 Gaussian 16, Revision C.01,
 Gaussian 16:  ES64L-G16RevC.01  3-Jul-2019

 ----------------------------------------------------------------------
 # B3LYP/6-31G** empiricaldispersion=gd3bj guess=read geom=check nosymm
  integral(ultrafinegrid)
 ----------------------------------------------------------------------

 ------------------------------------------------------
 Candidate Structure: Conf:145 Charge calc in gas phase
 ------------------------------------------------------
 Structure from the checkpoint file:  "conf-145.chk"
 Charge =  1 Multiplicity = 1

                          Input orientation:
 ---------------------------------------------------------------------
 Center     Atomic      Atomic             Coordinates (Angstroms)
 Number     Number       Type             X           Y           Z
 ---------------------------------------------------------------------
      1          7           0       -3.958649    6.161096   -4.060998
      2          1           0       -3.533799    5.771437   -3.204477
      3          1           0       -4.365778    7.085682   -3.921596
      4          1           0       -3.140949    6.255909   -4.728866
      5          6           0       -4.952869    5.188722   -4.588528
      6          1           0       -4.525062    4.188387   -4.516429
      7          1           0       -5.854755    5.229950   -3.973027
      8          6           0       -5.270400    5.528733   -6.045263
      9          8           0       -4.870826    6.584479   -6.534514
     10          7           0       -6.020735    4.598455   -6.668027
     11          1           0       -6.061120    3.671402   -6.254418
     12          6           0       -6.310605    4.656443   -8.099670
     13          1           0       -5.878507    5.576053   -8.495591
     14          1           0       -7.390740    4.658600   -8.266809
     15          6           0       -5.720630    3.386762   -8.709109
     16          8           0       -6.246164    2.293600   -8.474556
     17          7           0       -4.572981    3.536329   -9.395056
     18          1           0       -4.106668    4.433563   -9.525201
     19          6           0       -3.779838    2.381470   -9.784125
     20          1           0       -4.411544    1.645461  -10.287291
     21          1           0       -2.995879    2.724833  -10.456802
     22          6           0       -3.126216    1.786913   -8.534722
     23          8           0       -2.032268    2.182508   -8.114052
     24          7           0       -3.865182    0.823156   -7.933038
     25          1           0       -4.852324    0.832375   -8.184595
     26          6           0       -3.500768    0.301463   -6.642969
     27          1           0       -3.888371   -0.715495   -6.530564
     28          1           0       -2.408931    0.253043   -6.590653
     29          6           0       -3.983560    1.180581   -5.482606
     30          8           0       -4.415575    2.327444   -5.661694
     31          7           0       -3.837871    0.636491   -4.264678
     32          1           0       -3.451738   -0.293104   -4.131746
     33          6           0       -4.030951    1.389342   -3.043143
     34          1           0       -3.768048    2.435326   -3.206134
     35          1           0       -5.074710    1.344709   -2.703957
     36          6           0       -3.144248    0.766695   -1.971036
     37          8           0       -2.833876   -0.418086   -2.012954
     38          7           0       -2.788261    1.608062   -0.961729
     39          1           0       -2.793644    2.599622   -1.174398
     40          6           0       -1.853270    1.131288    0.029376
     41          1           0       -1.856615    1.811905    0.886641
     42          1           0       -2.173452    0.144706    0.373626
     43          6           0       -0.426216    1.044714   -0.522947
     44          8           0       -0.131460    1.500090   -1.628985
     45          7           0        0.488252    0.461145    0.286418
     46          1           0        0.233305    0.256604    1.241531
     47          6           0        1.900156    0.583098   -0.034044
     48          1           0        2.477462    0.100167    0.757396
     49          1           0        2.108478    0.065740   -0.974810
     50          6           0        2.284464    2.069705   -0.109104
     51          8           0        1.831021    2.884365    0.681897
     52          7           0        3.108497    2.422821   -1.135584
     53          1           0        3.379564    1.732203   -1.818870
     54          6           0        3.396246    3.826592   -1.379129
     55          1           0        4.102208    3.903960   -2.209404
     56          1           0        3.857314    4.282665   -0.500820
     57          6           0        2.157442    4.684251   -1.688584
     58          8           0        2.191551    5.894815   -1.563050
     59          7           0        1.051431    3.996972   -2.142266
     60          1           0        1.038385    2.990923   -2.000695
     61          6           0       -0.253515    4.600583   -1.975654
     62          1           0       -0.699054    4.342675   -1.008896
     63          1           0       -0.125725    5.688327   -2.004459
     64          6           0       -1.236774    4.206246   -3.058683
     65          8           0       -2.467959    4.255305   -2.840207
     66          7           0       -0.696352    3.835577   -4.225850
     67          1           0        0.315809    3.874270   -4.258259
     68          6           0       -1.439828    3.664208   -5.454517
     69          1           0       -0.949146    2.943111   -6.107866
     70          1           0       -2.429142    3.264368   -5.227367
     71          6           0       -1.641628    5.013457   -6.150996
     72          8           0       -1.715227    6.058885   -5.472253
     73          7           0       -1.758236    5.026761   -7.479372
     74          1           0       -1.766492    4.147828   -8.004824
     75          6           0       -1.977958    6.310186   -8.142169
     76          1           0       -1.227834    7.022938   -7.790886
     77          1           0       -2.961042    6.706386   -7.857155
     78          6           0       -1.948371    6.144537   -9.650127
     79          8           0       -2.587961    5.242260  -10.210786
     80          7           0       -1.231008    7.047511  -10.324844
     81          1           0       -0.675795    7.773076   -9.876443
     82          6           0       -1.164828    7.080799  -11.768701
     83          1           0       -0.759928    6.141825  -12.163709
     84          1           0       -2.162671    7.209216  -12.203895
     85          6           0       -0.254972    8.258117  -12.140011
     86          8           0        0.267367    8.948456  -11.263992
     87          7           0       -0.082861    8.460787  -13.455576
     88          1           0       -0.518946    7.887281  -14.172726
     89          6           0        0.743790    9.525262  -13.974499
     90          1           0        1.778323    9.428114  -13.623410
     91          1           0        0.383124   10.504589  -13.637222
     92          6           0        0.687348    9.432148  -15.501616
     93          8           0        0.023130    8.561768  -16.061833
     94          7           0        1.406614   10.357877  -16.165913
     95          1           0        1.948922   11.069830  -15.690582
     96          6           0        1.447462   10.393471  -17.610147
     97          1           0        0.448026   10.529735  -18.039413
     98          1           0        1.838475    9.457778  -18.026413
     99          6           0        2.337490   11.542866  -18.031153
    100          8           0        2.902167   12.284557  -17.255840
    101          8           0        2.421673   11.636105  -19.365888
    102          1           0        3.003494   12.389092  -19.567244
 ---------------------------------------------------------------------

 SCF Done:  E(RB3LYP) =  -2989.35752907     A.U. after    3 cycles

 Alpha  occ. eigenvalues --  -19.26978 -19.23143 -19.22419 -19.22270 -19.22251
 Alpha  occ. eigenvalues --  -19.22127 -19.21612 -19.21266 -19.21244 -19.21175
 Alpha  occ. eigenvalues --  -19.20238 -19.20072 -19.19597 -19.19313 -19.19228
 Alpha  occ. eigenvalues --  -14.53618 -14.46841 -14.46252 -14.46171 -14.46129
 Alpha  occ. eigenvalues --  -14.46033 -14.45526 -14.45342 -14.45123 -14.44608
 Alpha  occ. eigenvalues --  -14.44132 -14.43490 -14.43486 -14.43372 -10.39779
 Alpha  occ. eigenvalues --  -10.39772 -10.39760 -10.39271 -10.39097 -10.38830
 Alpha  occ. eigenvalues --  -10.38325 -10.38226 -10.37818 -10.37620 -10.37224
 Alpha  occ. eigenvalues --  -10.36829 -10.36602 -10.36450 -10.35092 -10.32596
 Alpha  occ. eigenvalues --  -10.32518 -10.32471 -10.32324 -10.32083 -10.31769
 Alpha  occ. eigenvalues --  -10.31535 -10.31378 -10.31301 -10.31179 -10.30682
 Alpha  occ. eigenvalues --  -10.30649 -10.30449  -1.18156  -1.14929  -1.14417
 Alpha  occ. eigenvalues --   -1.14351  -1.14027  -1.13711  -1.13078  -1.12979
 Alpha  occ. eigenvalues --   -1.12612  -1.12362  -1.11764  -1.11674  -1.11215
 Alpha  occ. eigenvalues --   -1.10991  -1.09279  -1.08584  -1.03510  -1.02617
 Alpha  occ. eigenvalues --   -1.02364  -1.02346  -1.02210  -1.01834  -1.01666
 Alpha  occ. eigenvalues --   -1.01520  -1.01414  -1.00438  -1.00239  -0.99809
 Alpha  occ. eigenvalues --   -0.99619  -0.86935  -0.86684  -0.86252  -0.85338
 Alpha  occ. eigenvalues --   -0.84810  -0.83756  -0.83165  -0.82089  -0.81036
 Alpha  occ. eigenvalues --   -0.80095  -0.79005  -0.77914  -0.76951  -0.76667
 Alpha  occ. eigenvalues --   -0.70382  -0.69824  -0.69549  -0.69462  -0.69229
 Alpha  occ. eigenvalues --   -0.68833  -0.68607  -0.68086  -0.67970  -0.67696
 Alpha  occ. eigenvalues --   -0.67300  -0.66917  -0.66766  -0.66134  -0.65998
 Alpha  occ. eigenvalues --   -0.65771  -0.64616  -0.64276  -0.63032  -0.62842
 Alpha  occ. eigenvalues --   -0.62532  -0.61274  -0.60777  -0.60363  -0.60144
 Alpha  occ. eigenvalues --   -0.59239  -0.59012  -0.58290  -0.58153  -0.57889
 Alpha  occ. eigenvalues --   -0.57738  -0.57373  -0.57071  -0.56895  -0.56412
 Alpha  occ. eigenvalues --   -0.56279  -0.56178  -0.56141  -0.55734  -0.55523
 Alpha  occ. eigenvalues --   -0.55402  -0.55192  -0.54790  -0.54598  -0.54135
 Alpha  occ. eigenvalues --   -0.54028  -0.53758  -0.53484  -0.53348  -0.53160
 Alpha  occ. eigenvalues --   -0.52771  -0.52593  -0.52409  -0.51984  -0.51796
 Alpha  occ. eigenvalues --   -0.51638  -0.51375  -0.51338  -0.50939  -0.50859
 Alpha  occ. eigenvalues --   -0.50239  -0.50078  -0.49899  -0.49404  -0.49154
 Alpha  occ. eigenvalues --   -0.49066  -0.48874  -0.48747  -0.48304  -0.47901
 Alpha  occ. eigenvalues --   -0.47716  -0.47347  -0.47151  -0.46848  -0.46501
 Alpha  occ. eigenvalues --   -0.46412  -0.46297  -0.46186  -0.45924  -0.45838
 Alpha  occ. eigenvalues --   -0.45507  -0.45405  -0.44928  -0.44561  -0.44156
 Alpha  occ. eigenvalues --   -0.43553  -0.42607  -0.39243  -0.38330  -0.37860
 Alpha  occ. eigenvalues --   -0.37293  -0.37052  -0.36882  -0.36778  -0.36624
 Alpha  occ. eigenvalues --   -0.36551  -0.36242  -0.36043  -0.35955  -0.35736
 Alpha  occ. eigenvalues --   -0.35704  -0.35456  -0.35313  -0.35259  -0.34850
 Alpha  occ. eigenvalues --   -0.34329  -0.34251  -0.34182  -0.33726  -0.33596
 Alpha  occ. eigenvalues --   -0.33380  -0.32932  -0.32585  -0.32349  -0.32057
 Alpha virt. eigenvalues --   -0.09754  -0.09001  -0.08542  -0.08289  -0.07802
 Alpha virt. eigenvalues --   -0.07526  -0.07164  -0.06887  -0.06569  -0.06268
 Alpha virt. eigenvalues --   -0.05866  -0.05711  -0.05293  -0.04411  -0.04203

 Mulliken charges:
               1
     1  N   -0.557074
     2  H    0.344662
     3  H    0.332660
     4  H    0.391036
     5  C   -0.210706
     6  H    0.212912
     7  H    0.175403
     8  C    0.597766
     9  O   -0.524007
    10  N   -0.515355
    11  H    0.304322
    12  C   -0.104822
    13  H    0.150437
    14  H    0.157073
    15  C    0.579515
    16  O   -0.541760
    17  N   -0.510285
    18  H    0.302089
    19  C   -0.136193
    20  H    0.147077
    21  H    0.161848
    22  C    0.581867
    23  O   -0.548447
    24  N   -0.478838
    25  H    0.305324
    26  C   -0.153083
    27  H    0.149625
    28  H    0.171868
    29  C    0.605950
    30  O   -0.563418
    31  N   -0.513238
    32  H    0.295382
    33  C   -0.115849
    34  H    0.157162
    35  H    0.156138
    36  C    0.587935
    37  O   -0.516939
    38  N   -0.519218
    39  H    0.284356
    40  C   -0.164093
    41  H    0.156715
    42  H    0.173648
    43  C    0.632139
    44  O   -0.551506
    45  N   -0.492870
    46  H    0.286259
    47  C   -0.133576
    48  H    0.159036
    49  H    0.138384
    50  C    0.574838
    51  O   -0.503874
    52  N   -0.533569
    53  H    0.275089
    54  C   -0.125268
    55  H    0.147038
    56  H    0.182368
    57  C    0.591658
    58  O   -0.489808
    59  N   -0.580329
    60  H    0.305509
    61  C   -0.098091
    62  H    0.135765
    63  H    0.182994
    64  C    0.605565
    65  O   -0.624592
    66  N   -0.463294
    67  H    0.292487
    68  C   -0.171656
    69  H    0.165317
    70  H    0.178906
    71  C    0.601048
    72  O   -0.583722
    73  N   -0.530963
    74  H    0.316908
    75  C   -0.103201
    76  H    0.145433
    77  H    0.188532
    78  C    0.579562
    79  O   -0.558692
    80  N   -0.529371
    81  H    0.298663
    82  C   -0.093018
    83  H    0.159616
    84  H    0.158382
    85  C    0.581809
    86  O   -0.532186
    87  N   -0.549263
    88  H    0.292743
    89  C   -0.086425
    90  H    0.157048
    91  H    0.157656
    92  C    0.582062
    93  O   -0.527675
    94  N   -0.553396
    95  H    0.291834
    96  C   -0.072762
    97  H    0.172895
    98  H    0.172628
    99  C    0.560650
   100  O   -0.460187
   101  O   -0.470849
   102  H    0.339878
 Sum of Mulliken charges =   1.00000

 Dipole moment (field-independent basis, Debye):
    X=             -7.3027    Y=             19.9566    Z=            -30.2430  Tot=             36.9626
 Quadrupole moment (field-independent basis, Debye-Ang):
   XX=           -253.5672   YY=           -173.0991   ZZ=             53.7510
   XY=            -42.4438   XZ=              8.4081   YZ=           -237.6347

 Normal termination of Gaussian 16 at Tue Sep  6 12:23:40 2022.
