 Gaussian 16, Revision C.01,
 Gaussian 16:  ES64L-G16RevC.01  3-Jul-2019

 ----------------------------------------------------------------------
 # B3LYP/6-31G** empiricaldispersion=gd3bj guess=read geom=check nosymm
  integral(ultrafinegrid)
 ----------------------------------------------------------------------

 ------------------------------------------------------
 Candidate Structure: Conf:584 Charge calc in gas phase
 ------------------------------------------------------
 Structure from the checkpoint file:  "conf-584.chk"
 Charge =  1 Multiplicity = 1

                          Input orientation:
 ---------------------------------------------------------------------
 Center     Atomic      Atomic             Coordinates (Angstroms)
 Number     Number       Type             X           Y           Z
 ---------------------------------------------------------------------
      1          7           0      -10.746640   13.925615   -0.689872
      2          1           0      -11.707431   13.882739   -1.032056
      3          1           0      -10.328748   14.805631   -0.994603
      4          1           0      -10.711942   13.828601    0.403462
      5          6           0       -9.929432   12.717712   -1.034795
      6          1           0      -10.515071   12.021610   -1.636300
      7          1           0       -9.036305   13.009437   -1.588469
      8          6           0       -9.586067   12.136564    0.360789
      9          8           0      -10.033459   12.769841    1.335882
     10          7           0       -8.864495   11.038332    0.405230
     11          1           0       -8.520859   10.538412   -0.422988
     12          6           0       -8.468548   10.355638    1.626671
     13          1           0       -9.336596   10.157879    2.261663
     14          1           0       -7.747054   10.956403    2.189804
     15          6           0       -7.786730    9.062098    1.157681
     16          8           0       -7.576936    8.898118   -0.047142
     17          7           0       -7.472514    8.190281    2.127319
     18          1           0       -7.470860    8.526256    3.086571
     19          6           0       -6.514564    7.122232    1.903235
     20          1           0       -6.993415    6.139639    1.977251
     21          1           0       -6.080609    7.223429    0.904971
     22          6           0       -5.402482    7.251562    2.948825
     23          8           0       -5.452248    8.124478    3.832907
     24          7           0       -4.405779    6.378010    2.814761
     25          1           0       -4.365586    5.775054    1.998260
     26          6           0       -3.140527    6.521643    3.508958
     27          1           0       -2.836618    7.572359    3.527318
     28          1           0       -3.215196    6.169096    4.545200
     29          6           0       -2.133238    5.654594    2.759314
     30          8           0       -2.495846    4.671021    2.112773
     31          7           0       -0.845560    6.062903    2.834079
     32          1           0       -0.575451    6.812131    3.475630
     33          6           0        0.204408    5.345411    2.118985
     34          1           0       -0.186305    5.029004    1.148012
     35          1           0        1.033983    6.028602    1.958043
     36          6           0        0.723989    4.119048    2.865346
     37          8           0        1.815198    4.097766    3.453890
     38          7           0       -0.117714    3.069205    2.823017
     39          1           0       -0.994637    3.197572    2.323505
     40          6           0        0.243695    1.751592    3.318337
     41          1           0        1.167873    1.856695    3.888230
     42          1           0       -0.545441    1.349780    3.956385
     43          6           0        0.399717    0.807548    2.124754
     44          8           0       -0.527212    0.074964    1.771238
     45          7           0        1.578816    0.885112    1.457299
     46          1           0        2.148552    1.713919    1.588294
     47          6           0        1.767011    0.153972    0.209124
     48          1           0        2.831538    0.010046    0.028375
     49          1           0        1.278913   -0.817936    0.316129
     50          6           0        1.195455    0.904512   -0.997755
     51          8           0        1.901736    1.227131   -1.955284
     52          7           0       -0.122674    1.209549   -0.904425
     53          1           0       -0.628895    0.889331   -0.084170
     54          6           0       -0.752659    2.147603   -1.823740
     55          1           0       -1.830774    2.120447   -1.672195
     56          1           0       -0.518009    1.862937   -2.853514
     57          6           0       -0.258109    3.569409   -1.524909
     58          8           0       -0.898451    4.351024   -0.822523
     59          7           0        0.952224    3.854733   -2.080849
     60          1           0        1.472072    3.033706   -2.395863
     61          6           0        1.728406    4.959788   -1.583737
     62          1           0        2.425558    5.306980   -2.352232
     63          1           0        1.050902    5.784669   -1.341939
     64          6           0        2.486348    4.589558   -0.299398
     65          8           0        2.180757    3.606908    0.372887
     66          7           0        3.479154    5.450938    0.035977
     67          1           0        3.616558    6.290585   -0.511517
     68          6           0        4.115557    5.434327    1.344166
     69          1           0        3.762969    4.551019    1.875385
     70          1           0        5.204315    5.388079    1.239695
     71          6           0        3.752431    6.731778    2.060455
     72          8           0        4.000631    7.823908    1.531544
     73          7           0        3.120491    6.591249    3.241940
     74          1           0        2.754128    5.663611    3.492911
     75          6           0        2.672535    7.750154    4.000268
     76          1           0        3.472987    8.495735    4.005761
     77          1           0        2.459608    7.439691    5.022389
     78          6           0        1.387405    8.385739    3.444923
     79          8           0        0.316257    8.316603    4.061059
     80          7           0        1.519997    9.002301    2.248885
     81          1           0        2.440476    8.956587    1.810368
     82          6           0        0.474642    9.832034    1.677436
     83          1           0       -0.310880    9.940577    2.432457
     84          1           0        0.874039   10.818945    1.435266
     85          6           0       -0.195581    9.324875    0.400703
     86          8           0       -0.377634   10.096099   -0.545082
     87          7           0       -0.617655    8.034062    0.395932
     88          1           0       -0.682309    7.561975    1.290781
     89          6           0       -1.509627    7.536096   -0.656575
     90          1           0       -1.502271    6.446904   -0.650480
     91          1           0       -1.135920    7.903255   -1.615213
     92          6           0       -2.931351    8.041620   -0.400292
     93          8           0       -3.811769    7.336636    0.089298
     94          7           0       -3.114133    9.366896   -0.681943
     95          1           0       -2.259350    9.889879   -0.869787
     96          6           0       -4.190419   10.052547   -0.010410
     97          1           0       -5.160325    9.634348   -0.290968
     98          1           0       -4.182490   11.109509   -0.292649
     99          6           0       -4.045344    9.932179    1.507533
    100          8           0       -3.037692    9.573630    2.076925
    101          8           0       -5.192939   10.231892    2.147084
    102          1           0       -5.138400    9.817150    3.039382
 ---------------------------------------------------------------------

 SCF Done:  E(RB3LYP) =  -2989.33731388     A.U. after    3 cycles

 Alpha  occ. eigenvalues --  -19.28978 -19.26548 -19.23028 -19.21615 -19.20359
 Alpha  occ. eigenvalues --  -19.19725 -19.19536 -19.19315 -19.19224 -19.19215
 Alpha  occ. eigenvalues --  -19.18936 -19.18776 -19.17925 -19.17911 -19.17401
 Alpha  occ. eigenvalues --  -14.61024 -14.51147 -14.45989 -14.43728 -14.43714
 Alpha  occ. eigenvalues --  -14.43613 -14.43364 -14.43122 -14.43019 -14.42875
 Alpha  occ. eigenvalues --  -14.42023 -14.41861 -14.41432 -14.41196 -10.45501
 Alpha  occ. eigenvalues --  -10.42258 -10.40003 -10.39533 -10.37229 -10.36703
 Alpha  occ. eigenvalues --  -10.36517 -10.36221 -10.36060 -10.35992 -10.35876
 Alpha  occ. eigenvalues --  -10.35223 -10.35130 -10.34879 -10.34653 -10.34290
 Alpha  occ. eigenvalues --  -10.30947 -10.30572 -10.29961 -10.29951 -10.29574
 Alpha  occ. eigenvalues --  -10.29510 -10.29386 -10.29169 -10.28763 -10.28456
 Alpha  occ. eigenvalues --  -10.28414 -10.28049  -1.21457  -1.17774  -1.15182
 Alpha  occ. eigenvalues --   -1.14602  -1.12196  -1.11703  -1.11436  -1.11248
 Alpha  occ. eigenvalues --   -1.10929  -1.10583  -1.10518  -1.10043  -1.09902
 Alpha  occ. eigenvalues --   -1.09449  -1.08788  -1.08668  -1.07728  -1.02679
 Alpha  occ. eigenvalues --   -1.00520  -1.00208  -1.00079  -0.99847  -0.99439
 Alpha  occ. eigenvalues --   -0.99291  -0.98995  -0.98451  -0.98321  -0.98189
 Alpha  occ. eigenvalues --   -0.97153  -0.91724  -0.86468  -0.84261  -0.84137
 Alpha  occ. eigenvalues --   -0.83043  -0.82526  -0.81756  -0.80657  -0.79661
 Alpha  occ. eigenvalues --   -0.78453  -0.77268  -0.76195  -0.75510  -0.75301
 Alpha  occ. eigenvalues --   -0.75209  -0.74101  -0.73208  -0.69322  -0.68949
 Alpha  occ. eigenvalues --   -0.67582  -0.67425  -0.66791  -0.66161  -0.66001
 Alpha  occ. eigenvalues --   -0.65492  -0.65322  -0.65027  -0.64472  -0.64267
 Alpha  occ. eigenvalues --   -0.63959  -0.63848  -0.62865  -0.62755  -0.62296
 Alpha  occ. eigenvalues --   -0.61318  -0.61131  -0.60661  -0.59886  -0.59627
 Alpha  occ. eigenvalues --   -0.59259  -0.59158  -0.58718  -0.58277  -0.57798
 Alpha  occ. eigenvalues --   -0.57366  -0.57021  -0.56451  -0.56390  -0.56136
 Alpha  occ. eigenvalues --   -0.55737  -0.55337  -0.55183  -0.54771  -0.54487
 Alpha  occ. eigenvalues --   -0.54040  -0.53979  -0.53778  -0.53483  -0.53197
 Alpha  occ. eigenvalues --   -0.52978  -0.52854  -0.52534  -0.52290  -0.51958
 Alpha  occ. eigenvalues --   -0.51803  -0.51487  -0.51016  -0.50137  -0.50022
 Alpha  occ. eigenvalues --   -0.49928  -0.49361  -0.49135  -0.48860  -0.48462
 Alpha  occ. eigenvalues --   -0.48367  -0.48120  -0.47949  -0.47725  -0.47409
 Alpha  occ. eigenvalues --   -0.47185  -0.47083  -0.46945  -0.46687  -0.46593
 Alpha  occ. eigenvalues --   -0.46424  -0.45821  -0.45624  -0.45273  -0.45197
 Alpha  occ. eigenvalues --   -0.44982  -0.44784  -0.44446  -0.44292  -0.44199
 Alpha  occ. eigenvalues --   -0.43879  -0.43715  -0.43456  -0.43247  -0.43117
 Alpha  occ. eigenvalues --   -0.42978  -0.42641  -0.42039  -0.41116  -0.39171
 Alpha  occ. eigenvalues --   -0.37477  -0.36468  -0.36105  -0.35640  -0.35250
 Alpha  occ. eigenvalues --   -0.34860  -0.34826  -0.34649  -0.34546  -0.34281
 Alpha  occ. eigenvalues --   -0.33964  -0.33877  -0.33457  -0.33204  -0.33008
 Alpha  occ. eigenvalues --   -0.32649  -0.32322  -0.32024  -0.31670  -0.31578
 Alpha  occ. eigenvalues --   -0.31246  -0.30710  -0.30666  -0.29861  -0.29550
 Alpha virt. eigenvalues --   -0.13783  -0.12669  -0.08341  -0.07413  -0.07213
 Alpha virt. eigenvalues --   -0.07084  -0.06567  -0.06425  -0.06047  -0.05858
 Alpha virt. eigenvalues --   -0.05625  -0.05221  -0.04817  -0.04544  -0.04087

 Mulliken charges:
               1
     1  N   -0.566722
     2  H    0.356586
     3  H    0.356236
     4  H    0.386824
     5  C   -0.191481
     6  H    0.209508
     7  H    0.208107
     8  C    0.623583
     9  O   -0.526737
    10  N   -0.528724
    11  H    0.310408
    12  C   -0.110460
    13  H    0.171616
    14  H    0.187188
    15  C    0.599991
    16  O   -0.533685
    17  N   -0.513756
    18  H    0.282725
    19  C   -0.150546
    20  H    0.157903
    21  H    0.204928
    22  C    0.607549
    23  O   -0.583562
    24  N   -0.509979
    25  H    0.308986
    26  C   -0.091758
    27  H    0.175734
    28  H    0.160893
    29  C    0.572791
    30  O   -0.530252
    31  N   -0.583291
    32  H    0.323824
    33  C   -0.180721
    34  H    0.201835
    35  H    0.112725
    36  C    0.633263
    37  O   -0.566425
    38  N   -0.509259
    39  H    0.308464
    40  C   -0.122864
    41  H    0.159594
    42  H    0.148950
    43  C    0.564574
    44  O   -0.526671
    45  N   -0.491473
    46  H    0.298457
    47  C   -0.140754
    48  H    0.145740
    49  H    0.165170
    50  C    0.604372
    51  O   -0.542354
    52  N   -0.511588
    53  H    0.299093
    54  C   -0.129958
    55  H    0.142724
    56  H    0.146387
    57  C    0.569875
    58  O   -0.515281
    59  N   -0.485640
    60  H    0.305305
    61  C   -0.160867
    62  H    0.136819
    63  H    0.165368
    64  C    0.607293
    65  O   -0.539508
    66  N   -0.512084
    67  H    0.281432
    68  C   -0.126120
    69  H    0.167251
    70  H    0.153614
    71  C    0.570401
    72  O   -0.551978
    73  N   -0.524776
    74  H    0.323985
    75  C   -0.127645
    76  H    0.157797
    77  H    0.152215
    78  C    0.554684
    79  O   -0.545435
    80  N   -0.504771
    81  H    0.308133
    82  C   -0.147643
    83  H    0.185680
    84  H    0.149852
    85  C    0.591090
    86  O   -0.538806
    87  N   -0.519571
    88  H    0.298428
    89  C   -0.174012
    90  H    0.191562
    91  H    0.143235
    92  C    0.579959
    93  O   -0.534342
    94  N   -0.497046
    95  H    0.301224
    96  C   -0.148065
    97  H    0.169935
    98  H    0.137113
    99  C    0.603653
   100  O   -0.468718
   101  O   -0.527850
   102  H    0.350548
 Sum of Mulliken charges =   1.00000

 Dipole moment (field-independent basis, Debye):
    X=            -36.5179    Y=             56.0955    Z=             -0.8693  Tot=             66.9404
 Quadrupole moment (field-independent basis, Debye-Ang):
   XX=            108.4222   YY=            385.8356   ZZ=           -311.6423
   XY=           -515.8720   XZ=             42.5598   YZ=            -38.8809

 Normal termination of Gaussian 16 at Tue Sep  6 12:24:10 2022.
