 Gaussian 16, Revision C.01,
 Gaussian 16:  ES64L-G16RevC.01  3-Jul-2019

 ----------------------------------------------------------------------
 # B3LYP/6-31G** empiricaldispersion=gd3bj guess=read geom=check nosymm
  integral(ultrafinegrid)
 ----------------------------------------------------------------------

 ------------------------------------------------------
 Candidate Structure: Conf:558 Charge calc in gas phase
 ------------------------------------------------------
 Structure from the checkpoint file:  "conf-558.chk"
 Charge =  1 Multiplicity = 1

                          Input orientation:
 ---------------------------------------------------------------------
 Center     Atomic      Atomic             Coordinates (Angstroms)
 Number     Number       Type             X           Y           Z
 ---------------------------------------------------------------------
      1          7           0        5.362055   -1.337707    6.985204
      2          1           0        6.114846   -1.447936    6.254825
      3          1           0        4.803477   -2.198200    6.955246
      4          1           0        5.812627   -1.158479    7.895945
      5          6           0        4.617444   -0.095572    6.634503
      6          1           0        4.468183   -0.046385    5.555561
      7          1           0        3.650578   -0.099077    7.143811
      8          6           0        5.485383    1.050467    7.166647
      9          8           0        6.247549    0.818370    8.106707
     10          7           0        5.323193    2.234853    6.563565
     11          1           0        4.720400    2.346526    5.750726
     12          6           0        6.099739    3.393465    6.950823
     13          1           0        6.895175    3.054653    7.620580
     14          1           0        5.477631    4.110656    7.497484
     15          6           0        6.708296    4.042187    5.710245
     16          8           0        7.076471    3.373546    4.742226
     17          7           0        6.825152    5.389728    5.761023
     18          1           0        6.328353    5.884344    6.488695
     19          6           0        7.166833    6.159246    4.564572
     20          1           0        7.514351    7.148653    4.858142
     21          1           0        7.957301    5.628988    4.030753
     22          6           0        5.896113    6.308083    3.718700
     23          8           0        5.200778    7.310393    3.757980
     24          7           0        5.581503    5.184361    2.993441
     25          1           0        6.120112    4.352194    3.218701
     26          6           0        4.217535    4.989215    2.576633
     27          1           0        3.743579    5.975442    2.539509
     28          1           0        4.169842    4.556178    1.570566
     29          6           0        3.453293    4.098433    3.564789
     30          8           0        3.881018    3.840516    4.690109
     31          7           0        2.274005    3.616559    3.105787
     32          1           0        1.992052    3.773026    2.146575
     33          6           0        1.535715    2.612016    3.829210
     34          1           0        2.247883    2.017643    4.408779
     35          1           0        0.809872    3.055278    4.523514
     36          6           0        0.823895    1.690730    2.845634
     37          8           0        1.009323    1.745560    1.630891
     38          7           0       -0.042374    0.816218    3.415391
     39          1           0       -0.111911    0.775082    4.420643
     40          6           0       -0.690498   -0.209742    2.636094
     41          1           0       -1.375092   -0.761126    3.285063
     42          1           0       -1.270239    0.244069    1.825345
     43          6           0        0.310194   -1.207824    2.049343
     44          8           0        1.498854   -1.195743    2.389156
     45          7           0       -0.209747   -2.065909    1.153145
     46          1           0       -1.188205   -1.969083    0.923362
     47          6           0        0.457429   -3.288791    0.700754
     48          1           0        0.900491   -3.785065    1.568499
     49          1           0       -0.290097   -3.941199    0.253312
     50          6           0        1.561706   -3.065224   -0.341012
     51          8           0        1.571665   -3.648179   -1.427977
     52          7           0        2.524791   -2.229658    0.083538
     53          1           0        2.450732   -1.945079    1.059411
     54          6           0        3.750230   -1.957858   -0.638755
     55          1           0        3.523334   -1.790878   -1.697437
     56          1           0        4.448501   -2.797428   -0.583397
     57          6           0        4.423339   -0.727288   -0.051217
     58          8           0        5.657780   -0.639227    0.005282
     59          7           0        3.612120    0.243216    0.431558
     60          1           0        2.607816    0.124592    0.440825
     61          6           0        4.142690    1.464353    1.016778
     62          1           0        4.811658    1.957392    0.305071
     63          1           0        3.291814    2.104261    1.232982
     64          6           0        4.875515    1.175141    2.332755
     65          8           0        4.278379    1.007940    3.401470
     66          7           0        6.220014    1.076558    2.204051
     67          1           0        6.553935    0.938357    1.257198
     68          6           0        7.029647    0.583373    3.299010
     69          1           0        8.077329    0.572890    2.987547
     70          1           0        6.955433    1.257482    4.154845
     71          6           0        6.638367   -0.809914    3.770906
     72          8           0        6.934770   -1.162894    4.923763
     73          7           0        5.969838   -1.617368    2.925613
     74          1           0        5.897180   -1.364538    1.942421
     75          6           0        5.540464   -2.933543    3.370034
     76          1           0        6.376237   -3.492197    3.795734
     77          1           0        5.133604   -3.482883    2.517006
     78          6           0        4.456711   -2.904576    4.452837
     79          8           0        4.554852   -3.632129    5.458074
     80          7           0        3.402186   -2.084664    4.277500
     81          1           0        3.291663   -1.563039    3.417140
     82          6           0        2.192620   -2.203790    5.089757
     83          1           0        2.472256   -2.324764    6.139919
     84          1           0        1.608869   -1.296122    4.959604
     85          6           0        1.333693   -3.400373    4.634151
     86          8           0        0.271358   -3.257435    4.040628
     87          7           0        1.882372   -4.615805    4.934799
     88          1           0        2.819454   -4.576784    5.329649
     89          6           0        1.615461   -5.745318    4.069668
     90          1           0        0.590960   -5.655759    3.697809
     91          1           0        1.699354   -6.683676    4.624788
     92          6           0        2.591603   -5.699572    2.882142
     93          8           0        3.039793   -4.621824    2.480471
     94          7           0        2.935659   -6.869146    2.308118
     95          1           0        2.536405   -7.735145    2.637519
     96          6           0        3.907414   -6.891765    1.222426
     97          1           0        3.925081   -7.900298    0.802437
     98          1           0        4.906241   -6.643969    1.589022
     99          6           0        3.583873   -5.899434    0.105649
    100          8           0        4.410460   -5.147271   -0.362340
    101          8           0        2.315398   -6.009385   -0.299512
    102          1           0        2.128403   -5.302296   -0.963092
 ---------------------------------------------------------------------

 SCF Done:  E(RB3LYP) =  -2989.37728741     A.U. after    3 cycles

 Alpha  occ. eigenvalues --  -19.25804 -19.23819 -19.23629 -19.23532 -19.23476
 Alpha  occ. eigenvalues --  -19.23077 -19.22663 -19.22428 -19.22340 -19.21975
 Alpha  occ. eigenvalues --  -19.21940 -19.21571 -19.20962 -19.20873 -19.19358
 Alpha  occ. eigenvalues --  -14.53607 -14.47947 -14.47795 -14.47495 -14.47364
 Alpha  occ. eigenvalues --  -14.47125 -14.46876 -14.46575 -14.46379 -14.46317
 Alpha  occ. eigenvalues --  -14.46027 -14.45163 -14.44706 -14.43292 -10.40704
 Alpha  occ. eigenvalues --  -10.40500 -10.40485 -10.40375 -10.40008 -10.39600
 Alpha  occ. eigenvalues --  -10.39568 -10.39451 -10.39313 -10.38964 -10.38836
 Alpha  occ. eigenvalues --  -10.38721 -10.38083 -10.36381 -10.35803 -10.34493
 Alpha  occ. eigenvalues --  -10.33907 -10.33377 -10.33159 -10.33005 -10.32898
 Alpha  occ. eigenvalues --  -10.32432 -10.32414 -10.32409 -10.32346 -10.31586
 Alpha  occ. eigenvalues --  -10.31410 -10.31090  -1.17331  -1.16141  -1.15904
 Alpha  occ. eigenvalues --   -1.15183  -1.15020  -1.14914  -1.14598  -1.14359
 Alpha  occ. eigenvalues --   -1.13848  -1.13695  -1.13334  -1.13249  -1.12547
 Alpha  occ. eigenvalues --   -1.11165  -1.08667  -1.08477  -1.04377  -1.04215
 Alpha  occ. eigenvalues --   -1.03960  -1.03534  -1.03344  -1.03002  -1.02843
 Alpha  occ. eigenvalues --   -1.02635  -1.02424  -1.02039  -1.01842  -1.01149
 Alpha  occ. eigenvalues --   -1.00043  -0.88075  -0.87544  -0.86941  -0.86558
 Alpha  occ. eigenvalues --   -0.85622  -0.84763  -0.83947  -0.83110  -0.81977
 Alpha  occ. eigenvalues --   -0.80875  -0.79852  -0.79200  -0.78493  -0.77228
 Alpha  occ. eigenvalues --   -0.72078  -0.71450  -0.71182  -0.70263  -0.70045
 Alpha  occ. eigenvalues --   -0.69777  -0.69636  -0.69293  -0.68724  -0.68363
 Alpha  occ. eigenvalues --   -0.68210  -0.68041  -0.67916  -0.67716  -0.67335
 Alpha  occ. eigenvalues --   -0.65921  -0.65293  -0.64841  -0.64162  -0.64035
 Alpha  occ. eigenvalues --   -0.63648  -0.63038  -0.62892  -0.61454  -0.60864
 Alpha  occ. eigenvalues --   -0.60650  -0.60130  -0.60031  -0.59899  -0.59208
 Alpha  occ. eigenvalues --   -0.59040  -0.58867  -0.58383  -0.57955  -0.57854
 Alpha  occ. eigenvalues --   -0.57598  -0.57193  -0.56966  -0.56641  -0.56125
 Alpha  occ. eigenvalues --   -0.55900  -0.55859  -0.55664  -0.55381  -0.55117
 Alpha  occ. eigenvalues --   -0.54750  -0.54661  -0.54453  -0.53988  -0.53825
 Alpha  occ. eigenvalues --   -0.53508  -0.53493  -0.53294  -0.52959  -0.52564
 Alpha  occ. eigenvalues --   -0.52168  -0.51971  -0.51677  -0.51605  -0.51265
 Alpha  occ. eigenvalues --   -0.51126  -0.51063  -0.50829  -0.50630  -0.50235
 Alpha  occ. eigenvalues --   -0.50078  -0.49944  -0.49681  -0.49612  -0.49443
 Alpha  occ. eigenvalues --   -0.49193  -0.48970  -0.48432  -0.48408  -0.48041
 Alpha  occ. eigenvalues --   -0.47903  -0.47671  -0.47487  -0.47044  -0.46560
 Alpha  occ. eigenvalues --   -0.46165  -0.45975  -0.45903  -0.45799  -0.45245
 Alpha  occ. eigenvalues --   -0.44473  -0.44303  -0.39804  -0.39463  -0.39058
 Alpha  occ. eigenvalues --   -0.38882  -0.38716  -0.38601  -0.38088  -0.37702
 Alpha  occ. eigenvalues --   -0.37381  -0.37278  -0.37153  -0.36913  -0.36804
 Alpha  occ. eigenvalues --   -0.36661  -0.36369  -0.36243  -0.36020  -0.35811
 Alpha  occ. eigenvalues --   -0.35740  -0.35224  -0.35140  -0.35078  -0.34693
 Alpha  occ. eigenvalues --   -0.34426  -0.34145  -0.33696  -0.33503  -0.32105
 Alpha virt. eigenvalues --   -0.11102  -0.10337  -0.09646  -0.09604  -0.09043
 Alpha virt. eigenvalues --   -0.08952  -0.08790  -0.08477  -0.08245  -0.07737
 Alpha virt. eigenvalues --   -0.07494  -0.07328  -0.06603  -0.05125  -0.04987

 Mulliken charges:
               1
     1  N   -0.570470
     2  H    0.399735
     3  H    0.338380
     4  H    0.341476
     5  C   -0.205603
     6  H    0.202673
     7  H    0.166019
     8  C    0.616460
     9  O   -0.526339
    10  N   -0.526472
    11  H    0.317384
    12  C   -0.116468
    13  H    0.190445
    14  H    0.135322
    15  C    0.612800
    16  O   -0.538606
    17  N   -0.508054
    18  H    0.283924
    19  C   -0.139734
    20  H    0.155092
    21  H    0.157132
    22  C    0.567299
    23  O   -0.489539
    24  N   -0.502333
    25  H    0.289268
    26  C   -0.153087
    27  H    0.191392
    28  H    0.122512
    29  C    0.603332
    30  O   -0.550607
    31  N   -0.527139
    32  H    0.282719
    33  C   -0.093708
    34  H    0.169043
    35  H    0.144527
    36  C    0.605767
    37  O   -0.541827
    38  N   -0.516428
    39  H    0.279096
    40  C   -0.150508
    41  H    0.169998
    42  H    0.164355
    43  C    0.679500
    44  O   -0.586362
    45  N   -0.513909
    46  H    0.287788
    47  C   -0.161667
    48  H    0.181075
    49  H    0.149916
    50  C    0.602416
    51  O   -0.545103
    52  N   -0.557459
    53  H    0.311400
    54  C   -0.084393
    55  H    0.174725
    56  H    0.190981
    57  C    0.534939
    58  O   -0.552085
    59  N   -0.496415
    60  H    0.301101
    61  C   -0.116898
    62  H    0.140621
    63  H    0.142156
    64  C    0.570037
    65  O   -0.546807
    66  N   -0.496434
    67  H    0.299518
    68  C   -0.144534
    69  H    0.164500
    70  H    0.198702
    71  C    0.613546
    72  O   -0.586833
    73  N   -0.531767
    74  H    0.309405
    75  C   -0.136116
    76  H    0.164222
    77  H    0.187034
    78  C    0.590106
    79  O   -0.586154
    80  N   -0.482174
    81  H    0.308973
    82  C   -0.130457
    83  H    0.121758
    84  H    0.125058
    85  C    0.597836
    86  O   -0.524197
    87  N   -0.491733
    88  H    0.293635
    89  C   -0.160596
    90  H    0.180611
    91  H    0.134956
    92  C    0.613922
    93  O   -0.546380
    94  N   -0.510697
    95  H    0.282984
    96  C   -0.106446
    97  H    0.154579
    98  H    0.156335
    99  C    0.599562
   100  O   -0.472919
   101  O   -0.505583
   102  H    0.360999
 Sum of Mulliken charges =   1.00000

 Dipole moment (field-independent basis, Debye):
    X=             12.7806    Y=             -5.5314    Z=             21.0968  Tot=             25.2787
 Quadrupole moment (field-independent basis, Debye-Ang):
   XX=           -247.6451   YY=           -241.8946   ZZ=           -217.3599
   XY=              1.9100   XZ=             68.5343   YZ=            -18.4995

 Normal termination of Gaussian 16 at Tue Sep  6 12:24:59 2022.
