 Gaussian 16, Revision C.01,
 Gaussian 16:  ES64L-G16RevC.01  3-Jul-2019

 ----------------------------------------------------------------------
 # B3LYP/6-31G** empiricaldispersion=gd3bj guess=read geom=check nosymm
  integral(ultrafinegrid)
 ----------------------------------------------------------------------

 ------------------------------------------------------
 Candidate Structure: Conf:702 Charge calc in gas phase
 ------------------------------------------------------
 Structure from the checkpoint file:  "conf-702.chk"
 Charge =  1 Multiplicity = 1

                          Input orientation:
 ---------------------------------------------------------------------
 Center     Atomic      Atomic             Coordinates (Angstroms)
 Number     Number       Type             X           Y           Z
 ---------------------------------------------------------------------
      1          7           0       -5.738234    3.590624   -1.635351
      2          1           0       -5.800078    2.970012   -2.442675
      3          1           0       -6.434630    4.330176   -1.729904
      4          1           0       -5.878986    3.038201   -0.699285
      5          6           0       -4.349649    4.090703   -1.375192
      6          1           0       -3.635978    3.596227   -2.044219
      7          1           0       -4.295019    5.174004   -1.476170
      8          6           0       -4.071405    3.587718    0.049890
      9          8           0       -4.949792    2.864446    0.557105
     10          7           0       -2.905728    3.896452    0.594720
     11          1           0       -2.245875    4.502062    0.089095
     12          6           0       -2.471725    3.246710    1.822408
     13          1           0       -3.306170    3.156572    2.518736
     14          1           0       -1.685290    3.850644    2.280807
     15          6           0       -1.876401    1.856181    1.614218
     16          8           0       -1.549437    1.198583    2.598966
     17          7           0       -1.673018    1.431903    0.336375
     18          1           0       -1.784972    2.066517   -0.446761
     19          6           0       -0.803336    0.278729    0.099119
     20          1           0       -0.993261   -0.464551    0.874946
     21          1           0       -1.007045   -0.136530   -0.886473
     22          6           0        0.629764    0.815156    0.135728
     23          8           0        1.266697    1.028111   -0.898405
     24          7           0        1.052931    1.192791    1.367872
     25          1           0        0.388830    1.069821    2.129339
     26          6           0        2.003989    2.289958    1.501659
     27          1           0        2.409199    2.285432    2.513964
     28          1           0        2.814362    2.150590    0.784350
     29          6           0        1.257822    3.623785    1.317785
     30          8           0        0.653298    4.162324    2.238961
     31          7           0        1.271891    4.136555    0.045020
     32          1           0        1.856002    3.673504   -0.644992
     33          6           0        0.974366    5.536453   -0.179075
     34          1           0        0.620371    5.937993    0.776205
     35          1           0        1.889788    6.073350   -0.452936
     36          6           0       -0.115635    5.861773   -1.200987
     37          8           0       -1.318809    5.592178   -1.016155
     38          7           0        0.305208    6.583401   -2.260139
     39          1           0        1.276578    6.492011   -2.531049
     40          6           0       -0.587688    7.207390   -3.235197
     41          1           0       -1.417420    7.667638   -2.692880
     42          1           0       -0.029030    7.977231   -3.765821
     43          6           0       -1.094259    6.183733   -4.254331
     44          8           0       -0.561478    6.003994   -5.337312
     45          7           0       -2.167184    5.455320   -3.793810
     46          1           0       -2.255497    5.491351   -2.779545
     47          6           0       -2.405133    4.149055   -4.399957
     48          1           0       -3.450960    3.856338   -4.290178
     49          1           0       -2.168394    4.223074   -5.461584
     50          6           0       -1.506516    3.159058   -3.658381
     51          8           0       -1.908886    2.594905   -2.626003
     52          7           0       -0.259730    3.083939   -4.153652
     53          1           0       -0.019984    3.726028   -4.902920
     54          6           0        0.852632    2.483099   -3.449312
     55          1           0        1.318023    1.682521   -4.036871
     56          1           0        0.507092    2.036711   -2.518087
     57          6           0        1.939335    3.520549   -3.205614
     58          8           0        1.949407    4.604178   -3.809383
     59          7           0        2.894908    3.185478   -2.305332
     60          1           0        2.946248    2.239719   -1.915761
     61          6           0        4.156847    3.927144   -2.260718
     62          1           0        3.950603    4.994101   -2.363722
     63          1           0        4.644800    3.709635   -1.314557
     64          6           0        5.040742    3.409829   -3.395868
     65          8           0        5.877629    2.532630   -3.219829
     66          7           0        4.773055    3.951818   -4.625396
     67          1           0        3.931512    4.518403   -4.677937
     68          6           0        5.101379    3.188135   -5.828982
     69          1           0        4.410327    2.351641   -5.954528
     70          1           0        5.026143    3.856250   -6.692117
     71          6           0        6.507948    2.606194   -5.783648
     72          8           0        6.717112    1.417387   -6.066837
     73          7           0        7.504403    3.471962   -5.507219
     74          1           0        7.242541    4.359725   -5.101888
     75          6           0        8.854879    2.983149   -5.272037
     76          1           0        9.523289    3.840983   -5.195527
     77          1           0        9.155786    2.372750   -6.125443
     78          6           0        8.978660    2.192954   -3.959358
     79          8           0        9.154394    2.759385   -2.880012
     80          7           0        8.926967    0.846704   -4.097308
     81          1           0        8.512632    0.478973   -4.944194
     82          6           0        9.227347   -0.053391   -2.994847
     83          1           0        9.519158   -1.021335   -3.401027
     84          1           0       10.067360    0.372936   -2.438198
     85          6           0        8.070121   -0.313115   -2.026126
     86          8           0        7.612665   -1.450378   -1.870739
     87          7           0        7.627940    0.763377   -1.340186
     88          1           0        7.974360    1.679900   -1.615774
     89          6           0        6.577650    0.643118   -0.339893
     90          1           0        6.601115    1.519074    0.307051
     91          1           0        6.770625   -0.253706    0.257654
     92          6           0        5.175885    0.555936   -0.953524
     93          8           0        4.324797    1.432235   -0.752971
     94          7           0        4.967472   -0.539297   -1.712628
     95          1           0        5.781588   -1.139412   -1.866876
     96          6           0        3.857874   -0.621653   -2.641682
     97          1           0        2.963664   -0.180576   -2.201979
     98          1           0        3.658908   -1.675060   -2.861372
     99          6           0        4.185383    0.094293   -3.952130
    100          8           0        3.426426    0.883203   -4.496851
    101          8           0        5.381387   -0.247290   -4.408251
    102          1           0        5.672489    0.329379   -5.161462
 ---------------------------------------------------------------------

 SCF Done:  E(RB3LYP) =  -2989.35183648     A.U. after    3 cycles

 Alpha  occ. eigenvalues --  -19.26954 -19.25526 -19.24984 -19.23431 -19.22612
 Alpha  occ. eigenvalues --  -19.22597 -19.21252 -19.21153 -19.21098 -19.21051
 Alpha  occ. eigenvalues --  -19.20997 -19.20726 -19.19391 -19.19048 -19.18349
 Alpha  occ. eigenvalues --  -14.59053 -14.48882 -14.48751 -14.46645 -14.46533
 Alpha  occ. eigenvalues --  -14.45708 -14.45663 -14.45479 -14.44953 -14.44944
 Alpha  occ. eigenvalues --  -14.44260 -14.43361 -14.42332 -14.42332 -10.43174
 Alpha  occ. eigenvalues --  -10.41793 -10.40041 -10.39431 -10.39236 -10.39022
 Alpha  occ. eigenvalues --  -10.39009 -10.38296 -10.38184 -10.38001 -10.37811
 Alpha  occ. eigenvalues --  -10.37776 -10.36079 -10.35989 -10.35242 -10.34057
 Alpha  occ. eigenvalues --  -10.33726 -10.33675 -10.32539 -10.31711 -10.31498
 Alpha  occ. eigenvalues --  -10.31118 -10.30986 -10.30643 -10.30642 -10.29812
 Alpha  occ. eigenvalues --  -10.29538 -10.29404  -1.19441  -1.16729  -1.16549
 Alpha  occ. eigenvalues --   -1.14978  -1.14281  -1.13933  -1.13527  -1.13293
 Alpha  occ. eigenvalues --   -1.12901  -1.12696  -1.12283  -1.12247  -1.11038
 Alpha  occ. eigenvalues --   -1.10681  -1.09789  -1.07954  -1.05952  -1.04838
 Alpha  occ. eigenvalues --   -1.03670  -1.02600  -1.02433  -1.01897  -1.01784
 Alpha  occ. eigenvalues --   -1.01506  -1.00515  -1.00434  -0.99568  -0.99404
 Alpha  occ. eigenvalues --   -0.98212  -0.89470  -0.88068  -0.86145  -0.85113
 Alpha  occ. eigenvalues --   -0.84516  -0.83695  -0.82930  -0.82051  -0.81032
 Alpha  occ. eigenvalues --   -0.80220  -0.79010  -0.77847  -0.77597  -0.75977
 Alpha  occ. eigenvalues --   -0.73385  -0.73287  -0.72114  -0.70610  -0.69921
 Alpha  occ. eigenvalues --   -0.69225  -0.68866  -0.68385  -0.68341  -0.67823
 Alpha  occ. eigenvalues --   -0.67497  -0.66547  -0.66532  -0.66108  -0.65915
 Alpha  occ. eigenvalues --   -0.65096  -0.64954  -0.64509  -0.63951  -0.62998
 Alpha  occ. eigenvalues --   -0.62527  -0.61721  -0.61639  -0.61255  -0.60852
 Alpha  occ. eigenvalues --   -0.60503  -0.60230  -0.59971  -0.59626  -0.59456
 Alpha  occ. eigenvalues --   -0.58654  -0.58256  -0.58019  -0.57877  -0.57502
 Alpha  occ. eigenvalues --   -0.57006  -0.56945  -0.56409  -0.56322  -0.55928
 Alpha  occ. eigenvalues --   -0.55717  -0.55047  -0.54897  -0.54750  -0.54520
 Alpha  occ. eigenvalues --   -0.53991  -0.53765  -0.53473  -0.53424  -0.53253
 Alpha  occ. eigenvalues --   -0.52779  -0.52521  -0.52109  -0.51736  -0.51402
 Alpha  occ. eigenvalues --   -0.50995  -0.50948  -0.50790  -0.50500  -0.50394
 Alpha  occ. eigenvalues --   -0.50076  -0.49644  -0.49482  -0.49306  -0.49043
 Alpha  occ. eigenvalues --   -0.48832  -0.48679  -0.48465  -0.48373  -0.48190
 Alpha  occ. eigenvalues --   -0.48018  -0.47835  -0.47611  -0.47511  -0.46977
 Alpha  occ. eigenvalues --   -0.46823  -0.46528  -0.46421  -0.45918  -0.45811
 Alpha  occ. eigenvalues --   -0.45452  -0.45075  -0.44973  -0.44692  -0.44303
 Alpha  occ. eigenvalues --   -0.43798  -0.43360  -0.42251  -0.40642  -0.40071
 Alpha  occ. eigenvalues --   -0.39562  -0.38927  -0.38531  -0.37799  -0.37330
 Alpha  occ. eigenvalues --   -0.36958  -0.36652  -0.36464  -0.36307  -0.36063
 Alpha  occ. eigenvalues --   -0.35674  -0.35502  -0.35186  -0.34961  -0.34842
 Alpha  occ. eigenvalues --   -0.34798  -0.34564  -0.34297  -0.33530  -0.33310
 Alpha  occ. eigenvalues --   -0.32714  -0.31796  -0.31727  -0.31127  -0.30825
 Alpha virt. eigenvalues --   -0.11904  -0.11718  -0.11073  -0.10253  -0.09701
 Alpha virt. eigenvalues --   -0.09082  -0.07992  -0.07763  -0.07210  -0.07112
 Alpha virt. eigenvalues --   -0.06266  -0.06054  -0.05779  -0.05687  -0.05223

 Mulliken charges:
               1
     1  N   -0.570636
     2  H    0.351119
     3  H    0.349157
     4  H    0.382544
     5  C   -0.217079
     6  H    0.222301
     7  H    0.189716
     8  C    0.613703
     9  O   -0.531281
    10  N   -0.549020
    11  H    0.338061
    12  C   -0.154571
    13  H    0.183127
    14  H    0.199368
    15  C    0.599382
    16  O   -0.520185
    17  N   -0.529116
    18  H    0.293499
    19  C   -0.132486
    20  H    0.168525
    21  H    0.145225
    22  C    0.565856
    23  O   -0.525731
    24  N   -0.492278
    25  H    0.307072
    26  C   -0.147026
    27  H    0.153430
    28  H    0.175889
    29  C    0.556229
    30  O   -0.508252
    31  N   -0.533982
    32  H    0.317220
    33  C   -0.136018
    34  H    0.185972
    35  H    0.126857
    36  C    0.604453
    37  O   -0.576088
    38  N   -0.487972
    39  H    0.300431
    40  C   -0.143921
    41  H    0.149921
    42  H    0.165298
    43  C    0.581274
    44  O   -0.486032
    45  N   -0.521058
    46  H    0.289479
    47  C   -0.136618
    48  H    0.098672
    49  H    0.170939
    50  C    0.580614
    51  O   -0.553740
    52  N   -0.491752
    53  H    0.304644
    54  C   -0.154514
    55  H    0.196150
    56  H    0.180715
    57  C    0.576589
    58  O   -0.566577
    59  N   -0.566182
    60  H    0.353702
    61  C   -0.126516
    62  H    0.121482
    63  H    0.161181
    64  C    0.585555
    65  O   -0.509132
    66  N   -0.537143
    67  H    0.291081
    68  C   -0.129238
    69  H    0.173362
    70  H    0.146972
    71  C    0.615995
    72  O   -0.575832
    73  N   -0.474226
    74  H    0.283158
    75  C   -0.132851
    76  H    0.151413
    77  H    0.148660
    78  C    0.600965
    79  O   -0.536127
    80  N   -0.499302
    81  H    0.293311
    82  C   -0.135269
    83  H    0.150004
    84  H    0.159425
    85  C    0.593569
    86  O   -0.542591
    87  N   -0.494063
    88  H    0.307695
    89  C   -0.136491
    90  H    0.132735
    91  H    0.157597
    92  C    0.609222
    93  O   -0.563200
    94  N   -0.496996
    95  H    0.318755
    96  C   -0.150678
    97  H    0.167467
    98  H    0.150542
    99  C    0.612222
   100  O   -0.512036
   101  O   -0.489662
   102  H    0.363966
 Sum of Mulliken charges =   1.00000

 Dipole moment (field-independent basis, Debye):
    X=             -5.9896    Y=             21.5017    Z=            -13.9669  Tot=             26.3300
 Quadrupole moment (field-independent basis, Debye-Ang):
   XX=           -163.5975   YY=           -215.1137   ZZ=           -289.4207
   XY=            -27.4744   XZ=             -4.5426   YZ=            -53.8838

 Normal termination of Gaussian 16 at Tue Sep  6 12:24:36 2022.
