 Gaussian 16, Revision C.01,
 Gaussian 16:  ES64L-G16RevC.01  3-Jul-2019

 ----------------------------------------------------------------------
 # B3LYP/6-31G** empiricaldispersion=gd3bj guess=read geom=check nosymm
  integral(ultrafinegrid)
 ----------------------------------------------------------------------

 ------------------------------------------------------
 Candidate Structure: Conf:497 Charge calc in gas phase
 ------------------------------------------------------
 Structure from the checkpoint file:  "conf-497.chk"
 Charge =  1 Multiplicity = 1

                          Input orientation:
 ---------------------------------------------------------------------
 Center     Atomic      Atomic             Coordinates (Angstroms)
 Number     Number       Type             X           Y           Z
 ---------------------------------------------------------------------
      1          7           0       -0.488962   -0.606659   -7.282978
      2          1           0       -1.493775   -0.465346   -7.174008
      3          1           0        0.037697    0.152204   -6.788473
      4          1           0       -0.224867   -1.537681   -6.831716
      5          6           0       -0.085643   -0.568901   -8.720732
      6          1           0       -0.582562   -1.387305   -9.246817
      7          1           0       -0.399396    0.383710   -9.150499
      8          6           0        1.428229   -0.771579   -8.748858
      9          8           0        1.925859   -1.581936   -7.967496
     10          7           0        2.136108   -0.043344   -9.627954
     11          1           0        1.688963    0.734062  -10.094346
     12          6           0        3.601437   -0.003709   -9.529293
     13          1           0        4.005293    0.412211  -10.450583
     14          1           0        3.963954   -1.024311   -9.391639
     15          6           0        3.954499    0.931607   -8.361284
     16          8           0        4.190898    2.114549   -8.535847
     17          7           0        3.891924    0.336173   -7.123253
     18          1           0        3.473801   -0.587315   -7.098386
     19          6           0        3.690323    1.173493   -5.967219
     20          1           0        4.111636    0.723693   -5.062915
     21          1           0        4.214971    2.117126   -6.142634
     22          6           0        2.208443    1.500985   -5.732730
     23          8           0        1.332464    1.239375   -6.577615
     24          7           0        1.953157    2.133631   -4.575315
     25          1           0        2.682205    2.106893   -3.860758
     26          6           0        0.642673    2.637705   -4.219966
     27          1           0        0.723795    3.665546   -3.854741
     28          1           0        0.028390    2.663430   -5.121983
     29          6           0       -0.118855    1.851852   -3.151385
     30          8           0       -1.183888    2.285250   -2.720966
     31          7           0        0.431945    0.671857   -2.740979
     32          1           0        1.436818    0.545082   -2.868037
     33          6           0       -0.152198    0.006099   -1.574038
     34          1           0       -1.237946    0.074189   -1.645037
     35          1           0        0.167907   -1.034683   -1.543764
     36          6           0        0.408790    0.709863   -0.346459
     37          8           0        1.513929    0.387001    0.095348
     38          7           0       -0.309428    1.754412    0.136031
     39          1           0       -1.082526    2.058370   -0.448231
     40          6           0        0.324589    2.778597    0.968756
     41          1           0        0.929152    3.459565    0.362557
     42          1           0       -0.468058    3.360003    1.448509
     43          6           0        1.266259    2.223257    2.045497
     44          8           0        2.414094    2.643733    2.136225
     45          7           0        0.714720    1.319031    2.894793
     46          1           0       -0.229731    1.008028    2.717584
     47          6           0        1.462866    0.703709    3.975651
     48          1           0        2.382588    1.280526    4.107120
     49          1           0        0.895069    0.733850    4.908089
     50          6           0        1.902203   -0.739561    3.749793
     51          8           0        2.209092   -1.440685    4.716934
     52          7           0        1.974052   -1.162333    2.465732
     53          1           0        1.854807   -0.491878    1.711831
     54          6           0        2.624780   -2.424961    2.128552
     55          1           0        2.367602   -2.691650    1.103332
     56          1           0        2.281982   -3.197189    2.821126
     57          6           0        4.135937   -2.221623    2.235242
     58          8           0        4.853697   -1.989741    1.251262
     59          7           0        4.628757   -2.190253    3.493946
     60          1           0        3.930739   -2.138733    4.237434
     61          6           0        5.886289   -1.495230    3.693168
     62          1           0        6.094584   -1.453187    4.764806
     63          1           0        6.700529   -2.036014    3.204174
     64          6           0        5.765137   -0.062028    3.153980
     65          8           0        4.744144    0.600635    3.326418
     66          7           0        6.852033    0.422513    2.504034
     67          1           0        7.562349   -0.225266    2.196149
     68          6           0        6.817081    1.741462    1.887534
     69          1           0        6.293223    2.414689    2.569532
     70          1           0        7.838050    2.091730    1.736570
     71          6           0        6.135252    1.722684    0.513416
     72          8           0        6.775764    1.706104   -0.531178
     73          7           0        4.768657    1.704822    0.530675
     74          1           0        4.256680    1.790447    1.405701
     75          6           0        4.060762    1.872242   -0.713230
     76          1           0        4.587282    2.586827   -1.354194
     77          1           0        3.064483    2.255245   -0.492720
     78          6           0        3.887837    0.615835   -1.551858
     79          8           0        3.439874    0.706831   -2.726351
     80          7           0        4.207093   -0.551366   -1.010074
     81          1           0        4.488323   -0.626652   -0.032996
     82          6           0        4.127029   -1.799375   -1.739765
     83          1           0        4.749391   -1.745312   -2.638979
     84          1           0        4.513915   -2.570429   -1.073751
     85          6           0        2.693282   -2.193984   -2.113066
     86          8           0        1.896293   -2.668768   -1.316588
     87          7           0        2.398637   -2.018159   -3.448141
     88          1           0        2.961806   -1.314789   -3.910582
     89          6           0        1.080585   -2.291818   -3.982918
     90          1           0        0.489727   -1.378527   -4.112078
     91          1           0        0.556594   -2.919946   -3.255467
     92          6           0        1.114416   -3.004068   -5.329197
     93          8           0        0.148174   -2.920662   -6.107197
     94          7           0        2.220660   -3.718466   -5.575586
     95          1           0        2.948613   -3.657406   -4.874596
     96          6           0        2.574866   -4.243416   -6.877178
     97          1           0        1.730248   -4.103446   -7.549710
     98          1           0        2.796569   -5.314707   -6.821186
     99          6           0        3.785948   -3.548982   -7.485310
    100          8           0        4.152082   -3.692815   -8.624020
    101          8           0        4.440958   -2.771553   -6.581111
    102          1           0        5.224976   -2.414725   -7.033284
 ---------------------------------------------------------------------

 SCF Done:  E(RB3LYP) =  -2989.36704684     A.U. after    2 cycles

 Alpha  occ. eigenvalues --  -19.30498 -19.25295 -19.24939 -19.24204 -19.24119
 Alpha  occ. eigenvalues --  -19.22955 -19.22928 -19.22709 -19.22558 -19.21432
 Alpha  occ. eigenvalues --  -19.20069 -19.19942 -19.19126 -19.18445 -19.18288
 Alpha  occ. eigenvalues --  -14.55614 -14.49762 -14.48312 -14.47776 -14.47406
 Alpha  occ. eigenvalues --  -14.47106 -14.47089 -14.45399 -14.45265 -14.44785
 Alpha  occ. eigenvalues --  -14.44022 -14.42792 -14.42613 -14.42505 -10.42912
 Alpha  occ. eigenvalues --  -10.42663 -10.41368 -10.41321 -10.39966 -10.39785
 Alpha  occ. eigenvalues --  -10.39722 -10.38660 -10.38584 -10.38572 -10.37902
 Alpha  occ. eigenvalues --  -10.36258 -10.36213 -10.35693 -10.35336 -10.34119
 Alpha  occ. eigenvalues --  -10.34075 -10.34042 -10.33623 -10.33048 -10.32873
 Alpha  occ. eigenvalues --  -10.32717 -10.32202 -10.30618 -10.30216 -10.29677
 Alpha  occ. eigenvalues --  -10.29651 -10.29475  -1.21042  -1.17958  -1.16151
 Alpha  occ. eigenvalues --   -1.15874  -1.15330  -1.14708  -1.14350  -1.13381
 Alpha  occ. eigenvalues --   -1.13265  -1.12105  -1.12069  -1.11932  -1.10829
 Alpha  occ. eigenvalues --   -1.10660  -1.10169  -1.10039  -1.05667  -1.05405
 Alpha  occ. eigenvalues --   -1.04889  -1.03389  -1.03153  -1.02623  -1.02139
 Alpha  occ. eigenvalues --   -1.02040  -1.01028  -0.99964  -0.99575  -0.98751
 Alpha  occ. eigenvalues --   -0.98564  -0.88969  -0.88038  -0.87543  -0.85514
 Alpha  occ. eigenvalues --   -0.85026  -0.83903  -0.83479  -0.82519  -0.81611
 Alpha  occ. eigenvalues --   -0.80499  -0.79551  -0.78803  -0.77432  -0.75539
 Alpha  occ. eigenvalues --   -0.72709  -0.72344  -0.72029  -0.71585  -0.70720
 Alpha  occ. eigenvalues --   -0.70272  -0.69771  -0.68970  -0.68559  -0.68296
 Alpha  occ. eigenvalues --   -0.67827  -0.67098  -0.67004  -0.66147  -0.65843
 Alpha  occ. eigenvalues --   -0.65245  -0.64992  -0.64732  -0.64385  -0.63761
 Alpha  occ. eigenvalues --   -0.63146  -0.62493  -0.62147  -0.61797  -0.61605
 Alpha  occ. eigenvalues --   -0.60757  -0.60701  -0.60084  -0.59706  -0.59403
 Alpha  occ. eigenvalues --   -0.59091  -0.58926  -0.58753  -0.58335  -0.57640
 Alpha  occ. eigenvalues --   -0.57422  -0.57118  -0.56815  -0.56510  -0.56228
 Alpha  occ. eigenvalues --   -0.56115  -0.55754  -0.55700  -0.55065  -0.54906
 Alpha  occ. eigenvalues --   -0.54419  -0.54258  -0.53938  -0.53728  -0.53528
 Alpha  occ. eigenvalues --   -0.53248  -0.53009  -0.52802  -0.52476  -0.52243
 Alpha  occ. eigenvalues --   -0.51912  -0.51601  -0.51419  -0.51177  -0.50874
 Alpha  occ. eigenvalues --   -0.50844  -0.50354  -0.50258  -0.50122  -0.50047
 Alpha  occ. eigenvalues --   -0.49867  -0.49510  -0.48944  -0.48797  -0.48415
 Alpha  occ. eigenvalues --   -0.48304  -0.48054  -0.47919  -0.47800  -0.47566
 Alpha  occ. eigenvalues --   -0.47501  -0.47092  -0.46940  -0.46840  -0.46268
 Alpha  occ. eigenvalues --   -0.46006  -0.45559  -0.45075  -0.44702  -0.43745
 Alpha  occ. eigenvalues --   -0.43274  -0.42923  -0.42386  -0.40648  -0.40167
 Alpha  occ. eigenvalues --   -0.39805  -0.39674  -0.39156  -0.38941  -0.38784
 Alpha  occ. eigenvalues --   -0.38210  -0.37621  -0.37337  -0.36666  -0.36403
 Alpha  occ. eigenvalues --   -0.36134  -0.35724  -0.35674  -0.35177  -0.35014
 Alpha  occ. eigenvalues --   -0.34856  -0.34521  -0.34407  -0.34211  -0.33973
 Alpha  occ. eigenvalues --   -0.32606  -0.32285  -0.32044  -0.31229  -0.30760
 Alpha virt. eigenvalues --   -0.12601  -0.10622  -0.10442  -0.10260  -0.09506
 Alpha virt. eigenvalues --   -0.09070  -0.08777  -0.07826  -0.07412  -0.07185
 Alpha virt. eigenvalues --   -0.06968  -0.06633  -0.05963  -0.04776  -0.04342

 Mulliken charges:
               1
     1  N   -0.596166
     2  H    0.329495
     3  H    0.362525
     4  H    0.409291
     5  C   -0.174018
     6  H    0.200128
     7  H    0.165693
     8  C    0.639348
     9  O   -0.540322
    10  N   -0.503787
    11  H    0.292516
    12  C   -0.156763
    13  H    0.165554
    14  H    0.168445
    15  C    0.568471
    16  O   -0.480996
    17  N   -0.520024
    18  H    0.290515
    19  C   -0.166863
    20  H    0.159050
    21  H    0.196967
    22  C    0.588813
    23  O   -0.583792
    24  N   -0.517873
    25  H    0.298910
    26  C   -0.123413
    27  H    0.170610
    28  H    0.166016
    29  C    0.560048
    30  O   -0.517199
    31  N   -0.547656
    32  H    0.308928
    33  C   -0.141944
    34  H    0.149362
    35  H    0.166062
    36  C    0.577136
    37  O   -0.535592
    38  N   -0.514800
    39  H    0.300410
    40  C   -0.133558
    41  H    0.152503
    42  H    0.153715
    43  C    0.597295
    44  O   -0.521589
    45  N   -0.521920
    46  H    0.272478
    47  C   -0.134504
    48  H    0.207968
    49  H    0.150054
    50  C    0.599267
    51  O   -0.544790
    52  N   -0.536496
    53  H    0.325912
    54  C   -0.152756
    55  H    0.158137
    56  H    0.150078
    57  C    0.582865
    58  O   -0.566007
    59  N   -0.480767
    60  H    0.311715
    61  C   -0.129417
    62  H    0.157208
    63  H    0.132680
    64  C    0.604617
    65  O   -0.536240
    66  N   -0.511263
    67  H    0.279424
    68  C   -0.128630
    69  H    0.156903
    70  H    0.145758
    71  C    0.563083
    72  O   -0.508781
    73  N   -0.549899
    74  H    0.330151
    75  C   -0.107538
    76  H    0.151757
    77  H    0.138912
    78  C    0.636735
    79  O   -0.625022
    80  N   -0.476597
    81  H    0.326141
    82  C   -0.126589
    83  H    0.123551
    84  H    0.177732
    85  C    0.580828
    86  O   -0.486584
    87  N   -0.558014
    88  H    0.284263
    89  C   -0.118778
    90  H    0.132050
    91  H    0.192638
    92  C    0.605773
    93  O   -0.586487
    94  N   -0.484713
    95  H    0.292417
    96  C   -0.126981
    97  H    0.189555
    98  H    0.174749
    99  C    0.615872
   100  O   -0.446432
   101  O   -0.506103
   102  H    0.338587
 Sum of Mulliken charges =   1.00000

 Dipole moment (field-independent basis, Debye):
    X=              4.8955    Y=             -2.2187    Z=            -22.3072  Tot=             22.9456
 Quadrupole moment (field-independent basis, Debye-Ang):
   XX=           -279.4349   YY=           -310.4183   ZZ=           -129.0942
   XY=            -24.0083   XZ=              8.4821   YZ=             22.7714

 Normal termination of Gaussian 16 at Tue Sep  6 12:23:35 2022.
