 Gaussian 16, Revision C.01,
 Gaussian 16:  ES64L-G16RevC.01  3-Jul-2019

 ----------------------------------------------------------------------
 # B3LYP/6-31G** empiricaldispersion=gd3bj guess=read geom=check nosymm
  integral(ultrafinegrid)
 ----------------------------------------------------------------------

 ------------------------------------------------------
 Candidate Structure: Conf:746 Charge calc in gas phase
 ------------------------------------------------------
 Structure from the checkpoint file:  "conf-746.chk"
 Charge =  1 Multiplicity = 1

                          Input orientation:
 ---------------------------------------------------------------------
 Center     Atomic      Atomic             Coordinates (Angstroms)
 Number     Number       Type             X           Y           Z
 ---------------------------------------------------------------------
      1          7           0        7.472930    3.238109   -4.811812
      2          1           0        7.381791    3.482588   -3.770734
      3          1           0        6.833857    3.849163   -5.362546
      4          1           0        8.438260    3.337681   -5.121963
      5          6           0        6.917787    1.866415   -5.001082
      6          1           0        7.433761    1.365653   -5.823062
      7          1           0        7.015804    1.291350   -4.078202
      8          6           0        5.441686    2.092060   -5.365761
      9          8           0        5.099121    3.219778   -5.749487
     10          7           0        4.639172    1.039374   -5.245230
     11          1           0        4.962232    0.185513   -4.797801
     12          6           0        3.232486    1.076791   -5.601539
     13          1           0        3.097376    1.685899   -6.498073
     14          1           0        2.631857    1.504671   -4.787838
     15          6           0        2.743493   -0.353993   -5.787758
     16          8           0        3.372478   -1.293272   -5.288636
     17          7           0        1.609144   -0.480179   -6.505829
     18          1           0        1.104721    0.379461   -6.694061
     19          6           0        0.712727   -1.629251   -6.324167
     20          1           0        0.102970   -1.745713   -7.220816
     21          1           0        1.298290   -2.529210   -6.149544
     22          6           0       -0.156627   -1.221260   -5.133309
     23          8           0       -0.907651   -0.252350   -5.230068
     24          7           0        0.115467   -1.836201   -3.962542
     25          1           0        0.688321   -2.673791   -3.955108
     26          6           0       -0.325770   -1.207247   -2.743018
     27          1           0       -1.419059   -1.193349   -2.678302
     28          1           0        0.072591   -1.755887   -1.885604
     29          6           0        0.219608    0.224732   -2.642561
     30          8           0        1.327625    0.545066   -3.088758
     31          7           0       -0.582612    1.072064   -1.968108
     32          1           0       -1.453655    0.738210   -1.575183
     33          6           0       -0.182929    2.386796   -1.512426
     34          1           0        0.886661    2.509681   -1.679778
     35          1           0       -0.703635    3.175296   -2.071281
     36          6           0       -0.570845    2.489871   -0.037963
     37          8           0       -1.580994    1.901823    0.363098
     38          7           0        0.231490    3.224987    0.765840
     39          1           0        1.178083    3.415300    0.442442
     40          6           0        0.048313    3.154311    2.220237
     41          1           0        0.516153    4.018039    2.689928
     42          1           0       -1.021176    3.138777    2.433016
     43          6           0        0.767725    1.882626    2.681853
     44          8           0        1.915935    1.917615    3.124025
     45          7           0        0.115585    0.725737    2.378416
     46          1           0       -0.752496    0.827619    1.858877
     47          6           0        0.869319   -0.506055    2.173472
     48          1           0        1.593235   -0.608926    2.986161
     49          1           0        0.192937   -1.359742    2.184011
     50          6           0        1.606425   -0.504039    0.821941
     51          8           0        1.436921   -1.380205   -0.028204
     52          7           0        2.426446    0.561404    0.638441
     53          1           0        2.648434    1.153622    1.434812
     54          6           0        3.183408    0.721107   -0.572724
     55          1           0        2.648036    0.261222   -1.404999
     56          1           0        4.165067    0.246593   -0.479083
     57          6           0        3.435938    2.177451   -0.890881
     58          8           0        3.110700    3.110780   -0.142538
     59          7           0        4.119023    2.391613   -2.047045
     60          1           0        4.541972    1.574824   -2.487122
     61          6           0        4.762952    3.680399   -2.277400
     62          1           0        4.871422    3.862669   -3.345972
     63          1           0        4.134392    4.457484   -1.839655
     64          6           0        6.125960    3.617231   -1.589919
     65          8           0        7.199453    3.461595   -2.213041
     66          7           0        6.082640    3.583736   -0.247841
     67          1           0        5.159608    3.614414    0.180387
     68          6           0        7.144310    2.920976    0.511355
     69          1           0        8.114019    3.269004    0.155151
     70          1           0        7.030477    3.168108    1.566206
     71          6           0        6.938897    1.409548    0.330919
     72          8           0        6.053082    0.810455    0.928397
     73          7           0        7.740196    0.807757   -0.594132
     74          1           0        8.256331    1.402284   -1.226147
     75          6           0        7.464256   -0.561951   -0.983022
     76          1           0        7.404105   -1.178660   -0.084036
     77          1           0        8.295302   -0.925199   -1.594093
     78          6           0        6.172604   -0.676289   -1.801995
     79          8           0        5.900874    0.186274   -2.664767
     80          7           0        5.392645   -1.722304   -1.534910
     81          1           0        5.688072   -2.430280   -0.871529
     82          6           0        4.168560   -2.039470   -2.254078
     83          1           0        3.301617   -1.899746   -1.594654
     84          1           0        4.060694   -1.375925   -3.109139
     85          6           0        4.212067   -3.510749   -2.648461
     86          8           0        4.742417   -4.335402   -1.907673
     87          7           0        3.595083   -3.795558   -3.816464
     88          1           0        3.270887   -3.033581   -4.406702
     89          6           0        3.375426   -5.152496   -4.244745
     90          1           0        3.687742   -5.814077   -3.432210
     91          1           0        3.987345   -5.400993   -5.122959
     92          6           0        1.906626   -5.371255   -4.606571
     93          8           0        1.111725   -4.434888   -4.737907
     94          7           0        1.549611   -6.650273   -4.815396
     95          1           0        2.195295   -7.421015   -4.683485
     96          6           0        0.206665   -7.019058   -5.205089
     97          1           0       -0.077303   -6.558844   -6.158342
     98          1           0       -0.532159   -6.687846   -4.466451
     99          6           0        0.150572   -8.526846   -5.335552
    100          8           0        1.095412   -9.259073   -5.134592
    101          8           0       -1.070019   -8.942325   -5.699039
    102          1           0       -1.040964   -9.912616   -5.762866
 ---------------------------------------------------------------------

 SCF Done:  E(RB3LYP) =  -2989.36522539     A.U. after    3 cycles

 Alpha  occ. eigenvalues --  -19.28083 -19.26582 -19.25042 -19.23837 -19.23376
 Alpha  occ. eigenvalues --  -19.22771 -19.22737 -19.22470 -19.21025 -19.20487
 Alpha  occ. eigenvalues --  -19.19724 -19.19519 -19.19450 -19.19181 -19.18087
 Alpha  occ. eigenvalues --  -14.55731 -14.48643 -14.48327 -14.47523 -14.47321
 Alpha  occ. eigenvalues --  -14.46881 -14.45921 -14.45081 -14.44485 -14.43876
 Alpha  occ. eigenvalues --  -14.43818 -14.43351 -14.43017 -14.42408 -10.42386
 Alpha  occ. eigenvalues --  -10.42009 -10.40913 -10.40634 -10.39847 -10.39623
 Alpha  occ. eigenvalues --  -10.39546 -10.38006 -10.37457 -10.37331 -10.36904
 Alpha  occ. eigenvalues --  -10.36622 -10.36526 -10.36166 -10.35258 -10.34494
 Alpha  occ. eigenvalues --  -10.34214 -10.34021 -10.33084 -10.32045 -10.31284
 Alpha  occ. eigenvalues --  -10.31079 -10.30972 -10.30573 -10.30390 -10.30234
 Alpha  occ. eigenvalues --  -10.29971 -10.29533  -1.19278  -1.17738  -1.17142
 Alpha  occ. eigenvalues --   -1.15358  -1.14913  -1.14312  -1.14246  -1.12875
 Alpha  occ. eigenvalues --   -1.12680  -1.11473  -1.11449  -1.11280  -1.10626
 Alpha  occ. eigenvalues --   -1.10534  -1.10434  -1.09910  -1.05373  -1.04833
 Alpha  occ. eigenvalues --   -1.03574  -1.03308  -1.03097  -1.02274  -1.01521
 Alpha  occ. eigenvalues --   -1.00848  -1.00490  -1.00324  -1.00216  -0.99078
 Alpha  occ. eigenvalues --   -0.98876  -0.88292  -0.88229  -0.86456  -0.85343
 Alpha  occ. eigenvalues --   -0.84815  -0.84114  -0.83750  -0.82320  -0.81311
 Alpha  occ. eigenvalues --   -0.80467  -0.79162  -0.78328  -0.77255  -0.75691
 Alpha  occ. eigenvalues --   -0.72730  -0.71411  -0.71176  -0.70700  -0.70064
 Alpha  occ. eigenvalues --   -0.69508  -0.69361  -0.68557  -0.68337  -0.67976
 Alpha  occ. eigenvalues --   -0.67389  -0.66572  -0.66462  -0.65940  -0.65624
 Alpha  occ. eigenvalues --   -0.65374  -0.65170  -0.64818  -0.64692  -0.63266
 Alpha  occ. eigenvalues --   -0.61864  -0.61781  -0.61462  -0.60957  -0.60582
 Alpha  occ. eigenvalues --   -0.60227  -0.59812  -0.59567  -0.59110  -0.58806
 Alpha  occ. eigenvalues --   -0.58673  -0.57993  -0.57739  -0.57553  -0.57373
 Alpha  occ. eigenvalues --   -0.57221  -0.56918  -0.56786  -0.56692  -0.56318
 Alpha  occ. eigenvalues --   -0.56002  -0.55697  -0.55171  -0.55041  -0.54748
 Alpha  occ. eigenvalues --   -0.54699  -0.54450  -0.53963  -0.53655  -0.53420
 Alpha  occ. eigenvalues --   -0.53242  -0.52953  -0.52653  -0.52228  -0.51946
 Alpha  occ. eigenvalues --   -0.51700  -0.51498  -0.51395  -0.51065  -0.50790
 Alpha  occ. eigenvalues --   -0.50706  -0.50181  -0.49896  -0.49801  -0.49512
 Alpha  occ. eigenvalues --   -0.49278  -0.49083  -0.48981  -0.48718  -0.48387
 Alpha  occ. eigenvalues --   -0.48286  -0.48145  -0.47726  -0.47530  -0.47299
 Alpha  occ. eigenvalues --   -0.47160  -0.46985  -0.46285  -0.46162  -0.45687
 Alpha  occ. eigenvalues --   -0.45310  -0.44948  -0.44633  -0.44093  -0.43819
 Alpha  occ. eigenvalues --   -0.43696  -0.42358  -0.41427  -0.40347  -0.40003
 Alpha  occ. eigenvalues --   -0.39938  -0.38931  -0.38254  -0.37922  -0.37210
 Alpha  occ. eigenvalues --   -0.36959  -0.36833  -0.36750  -0.36507  -0.36463
 Alpha  occ. eigenvalues --   -0.35780  -0.35392  -0.35294  -0.35210  -0.35149
 Alpha  occ. eigenvalues --   -0.34915  -0.33834  -0.33555  -0.33495  -0.33283
 Alpha  occ. eigenvalues --   -0.33128  -0.32164  -0.31926  -0.31581  -0.31323
 Alpha virt. eigenvalues --   -0.12945  -0.10966  -0.09972  -0.08799  -0.08592
 Alpha virt. eigenvalues --   -0.08331  -0.08211  -0.07489  -0.07098  -0.06457
 Alpha virt. eigenvalues --   -0.06153  -0.05332  -0.05254  -0.04119  -0.04015

 Mulliken charges:
               1
     1  N   -0.580628
     2  H    0.397061
     3  H    0.344249
     4  H    0.331656
     5  C   -0.199492
     6  H    0.186388
     7  H    0.196893
     8  C    0.602829
     9  O   -0.537069
    10  N   -0.524636
    11  H    0.307851
    12  C   -0.125358
    13  H    0.159270
    14  H    0.204468
    15  C    0.616562
    16  O   -0.548607
    17  N   -0.503954
    18  H    0.289562
    19  C   -0.141751
    20  H    0.146166
    21  H    0.153535
    22  C    0.578689
    23  O   -0.529681
    24  N   -0.507726
    25  H    0.298267
    26  C   -0.140964
    27  H    0.133493
    28  H    0.178656
    29  C    0.635922
    30  O   -0.578639
    31  N   -0.507111
    32  H    0.288770
    33  C   -0.115492
    34  H    0.136122
    35  H    0.160746
    36  C    0.588628
    37  O   -0.543523
    38  N   -0.524504
    39  H    0.306354
    40  C   -0.132669
    41  H    0.148748
    42  H    0.161352
    43  C    0.559790
    44  O   -0.524124
    45  N   -0.493383
    46  H    0.297121
    47  C   -0.142483
    48  H    0.169222
    49  H    0.147034
    50  C    0.569531
    51  O   -0.531915
    52  N   -0.535711
    53  H    0.308428
    54  C   -0.129006
    55  H    0.190618
    56  H    0.163739
    57  C    0.592807
    58  O   -0.572312
    59  N   -0.519496
    60  H    0.317891
    61  C   -0.153667
    62  H    0.140322
    63  H    0.176689
    64  C    0.601373
    65  O   -0.590320
    66  N   -0.480279
    67  H    0.314094
    68  C   -0.135893
    69  H    0.149855
    70  H    0.173903
    71  C    0.573505
    72  O   -0.501973
    73  N   -0.487969
    74  H    0.277835
    75  C   -0.139380
    76  H    0.163140
    77  H    0.152109
    78  C    0.601105
    79  O   -0.593879
    80  N   -0.481032
    81  H    0.299381
    82  C   -0.171548
    83  H    0.194646
    84  H    0.157482
    85  C    0.583181
    86  O   -0.529266
    87  N   -0.537364
    88  H    0.309992
    89  C   -0.138242
    90  H    0.175142
    91  H    0.151470
    92  C    0.601973
    93  O   -0.541054
    94  N   -0.537705
    95  H    0.296573
    96  C   -0.075004
    97  H    0.170093
    98  H    0.174261
    99  C    0.562823
   100  O   -0.457001
   101  O   -0.469882
   102  H    0.342322
 Sum of Mulliken charges =   1.00000

 Dipole moment (field-independent basis, Debye):
    X=             26.1448    Y=              2.0728    Z=            -18.9456  Tot=             32.3541
 Quadrupole moment (field-independent basis, Debye-Ang):
   XX=           -117.2458   YY=           -228.2390   ZZ=           -225.1637
   XY=             71.2915   XZ=           -104.5811   YZ=             18.8044

 Normal termination of Gaussian 16 at Tue Sep  6 12:24:25 2022.
