 Gaussian 16, Revision C.01,
 Gaussian 16:  ES64L-G16RevC.01  3-Jul-2019

 ----------------------------------------------------------------------
 # B3LYP/6-31G** empiricaldispersion=gd3bj guess=read geom=check nosymm
  integral(ultrafinegrid)
 ----------------------------------------------------------------------

 ------------------------------------------------------
 Candidate Structure: Conf:156 Charge calc in gas phase
 ------------------------------------------------------
 Structure from the checkpoint file:  "conf-156.chk"
 Charge =  1 Multiplicity = 1

                          Input orientation:
 ---------------------------------------------------------------------
 Center     Atomic      Atomic             Coordinates (Angstroms)
 Number     Number       Type             X           Y           Z
 ---------------------------------------------------------------------
      1          7           0       10.627959    1.105416   -2.144641
      2          1           0       11.476313    0.543454   -2.101009
      3          1           0       10.125387    1.049111   -1.207856
      4          1           0       10.847732    2.110685   -2.300875
      5          6           0        9.739270    0.739580   -3.288890
      6          1           0       10.332065    0.268394   -4.075511
      7          1           0        8.973888    0.036400   -2.966023
      8          6           0        9.167087    2.075900   -3.793170
      9          8           0        9.661100    3.126455   -3.352542
     10          7           0        8.174924    2.007584   -4.679373
     11          1           0        7.755329    1.091755   -4.876860
     12          6           0        7.525503    3.206961   -5.171263
     13          1           0        8.042886    3.593317   -6.059678
     14          1           0        7.570040    3.978723   -4.400201
     15          6           0        6.085065    2.901472   -5.565938
     16          8           0        5.733567    1.768723   -5.910183
     17          7           0        5.260891    3.971712   -5.592332
     18          1           0        5.540563    4.806586   -5.098921
     19          6           0        3.885366    3.889650   -6.068317
     20          1           0        3.539569    4.893872   -6.310474
     21          1           0        3.877359    3.279694   -6.976332
     22          6           0        2.894332    3.307798   -5.047197
     23          8           0        2.016529    3.976781   -4.524184
     24          7           0        3.068552    1.978120   -4.773952
     25          1           0        3.786706    1.482958   -5.292906
     26          6           0        2.100369    1.273299   -3.962397
     27          1           0        1.081766    1.441480   -4.324800
     28          1           0        2.309125    0.199590   -4.013634
     29          6           0        2.075419    1.640219   -2.481272
     30          8           0        1.107078    1.289732   -1.783041
     31          7           0        3.142679    2.273378   -1.973723
     32          1           0        3.925231    2.545913   -2.568575
     33          6           0        3.210957    2.640792   -0.567626
     34          1           0        4.041560    3.334982   -0.443699
     35          1           0        2.282424    3.135517   -0.269024
     36          6           0        3.476999    1.401005    0.294781
     37          8           0        4.615228    0.956100    0.480743
     38          7           0        2.372265    0.801507    0.793379
     39          1           0        1.484109    1.163891    0.467626
     40          6           0        2.424877   -0.533118    1.357957
     41          1           0        3.433846   -0.711073    1.728455
     42          1           0        1.733775   -0.615138    2.202476
     43          6           0        2.087893   -1.651991    0.368752
     44          8           0        2.378841   -2.824555    0.632972
     45          7           0        1.419879   -1.297390   -0.746018
     46          1           0        1.273842   -0.322471   -1.013831
     47          6           0        0.995822   -2.308837   -1.689151
     48          1           0        0.324884   -3.023680   -1.202248
     49          1           0        0.448507   -1.809063   -2.490858
     50          6           0        2.202211   -3.014890   -2.304681
     51          8           0        3.050400   -2.381921   -2.939042
     52          7           0        2.251640   -4.349972   -2.097771
     53          1           0        1.574793   -4.745681   -1.461248
     54          6           0        3.364900   -5.171707   -2.511063
     55          1           0        3.809077   -4.738316   -3.406195
     56          1           0        3.009635   -6.168898   -2.785052
     57          6           0        4.473637   -5.373832   -1.474602
     58          8           0        5.451777   -6.080070   -1.772714
     59          7           0        4.331653   -4.795051   -0.272891
     60          1           0        3.556631   -4.158638   -0.086221
     61          6           0        5.244370   -5.075966    0.829353
     62          1           0        4.714628   -4.910073    1.766614
     63          1           0        5.545403   -6.126885    0.770740
     64          6           0        6.519401   -4.226824    0.888986
     65          8           0        6.933978   -3.805430    1.973498
     66          7           0        7.159008   -4.015563   -0.279330
     67          1           0        6.847632   -4.446506   -1.143821
     68          6           0        8.434088   -3.319554   -0.322386
     69          1           0        9.111364   -3.728865    0.434049
     70          1           0        8.851080   -3.457853   -1.317366
     71          6           0        8.239437   -1.817687   -0.108867
     72          8           0        8.102573   -1.048188   -1.072834
     73          7           0        8.232288   -1.430252    1.179982
     74          1           0        8.100397   -2.191084    1.847651
     75          6           0        7.913700   -0.086542    1.641108
     76          1           0        8.482951    0.102817    2.555894
     77          1           0        6.846510   -0.009730    1.877651
     78          6           0        8.306341    0.978271    0.618348
     79          8           0        9.482131    1.114616    0.244809
     80          7           0        7.281331    1.749420    0.224186
     81          1           0        6.336566    1.491050    0.517014
     82          6           0        7.316412    2.650327   -0.907190
     83          1           0        6.939882    3.639114   -0.636069
     84          1           0        8.342880    2.776349   -1.255246
     85          6           0        6.419617    2.134803   -2.041625
     86          8           0        5.766121    2.941513   -2.721399
     87          7           0        6.395958    0.802985   -2.204556
     88          1           0        6.952469    0.209266   -1.586400
     89          6           0        5.514397    0.126620   -3.129586
     90          1           0        5.083189    0.881458   -3.784649
     91          1           0        4.704003   -0.372330   -2.587402
     92          6           0        6.258840   -0.873309   -4.014917
     93          8           0        7.401098   -0.665544   -4.438215
     94          7           0        5.538376   -1.961935   -4.347138
     95          1           0        4.657477   -2.137868   -3.866360
     96          6           0        6.133791   -3.067166   -5.076743
     97          1           0        7.035384   -2.696515   -5.567950
     98          1           0        5.438906   -3.458197   -5.821440
     99          6           0        6.509656   -4.146876   -4.066107
    100          8           0        7.197837   -3.911806   -3.090969
    101          8           0        5.931526   -5.323038   -4.313516
    102          1           0        5.992621   -5.871291   -3.488019
 ---------------------------------------------------------------------

 SCF Done:  E(RB3LYP) =  -2989.41747432     A.U. after    1 cycles

 Alpha  occ. eigenvalues --  -19.27508 -19.23933 -19.23516 -19.23081 -19.22822
 Alpha  occ. eigenvalues --  -19.22761 -19.22412 -19.22406 -19.22367 -19.22287
 Alpha  occ. eigenvalues --  -19.22112 -19.21902 -19.21576 -19.20503 -19.20128
 Alpha  occ. eigenvalues --  -14.53565 -14.48145 -14.47249 -14.46322 -14.46315
 Alpha  occ. eigenvalues --  -14.46216 -14.46180 -14.45992 -14.45978 -14.45799
 Alpha  occ. eigenvalues --  -14.45660 -14.45379 -14.44570 -14.44344 -10.40912
 Alpha  occ. eigenvalues --  -10.40728 -10.40312 -10.40243 -10.39917 -10.39531
 Alpha  occ. eigenvalues --  -10.39500 -10.39338 -10.39186 -10.38974 -10.38958
 Alpha  occ. eigenvalues --  -10.38705 -10.37520 -10.37145 -10.34783 -10.33726
 Alpha  occ. eigenvalues --  -10.33580 -10.33308 -10.33157 -10.33151 -10.32832
 Alpha  occ. eigenvalues --  -10.32503 -10.32138 -10.32038 -10.31940 -10.31852
 Alpha  occ. eigenvalues --  -10.31762 -10.31364  -1.19041  -1.15691  -1.15357
 Alpha  occ. eigenvalues --   -1.15194  -1.14911  -1.14111  -1.14026  -1.13896
 Alpha  occ. eigenvalues --   -1.13732  -1.13541  -1.13446  -1.13150  -1.12028
 Alpha  occ. eigenvalues --   -1.11983  -1.10079  -1.08308  -1.04732  -1.04293
 Alpha  occ. eigenvalues --   -1.03882  -1.02869  -1.02732  -1.02647  -1.02410
 Alpha  occ. eigenvalues --   -1.02279  -1.01929  -1.01899  -1.01630  -1.00544
 Alpha  occ. eigenvalues --   -1.00496  -0.87786  -0.87434  -0.86922  -0.86275
 Alpha  occ. eigenvalues --   -0.85496  -0.84653  -0.83789  -0.82797  -0.81809
 Alpha  occ. eigenvalues --   -0.80763  -0.79891  -0.79290  -0.78144  -0.77953
 Alpha  occ. eigenvalues --   -0.72015  -0.71282  -0.70843  -0.70461  -0.69602
 Alpha  occ. eigenvalues --   -0.69476  -0.69245  -0.69036  -0.68606  -0.68415
 Alpha  occ. eigenvalues --   -0.68193  -0.67847  -0.67671  -0.67307  -0.66978
 Alpha  occ. eigenvalues --   -0.66746  -0.65296  -0.64725  -0.64178  -0.63962
 Alpha  occ. eigenvalues --   -0.63194  -0.62534  -0.62325  -0.61721  -0.60900
 Alpha  occ. eigenvalues --   -0.60743  -0.60247  -0.59912  -0.59794  -0.59321
 Alpha  occ. eigenvalues --   -0.59034  -0.58804  -0.58710  -0.58181  -0.57705
 Alpha  occ. eigenvalues --   -0.57480  -0.57133  -0.56878  -0.56533  -0.56360
 Alpha  occ. eigenvalues --   -0.56117  -0.55741  -0.55618  -0.55238  -0.55161
 Alpha  occ. eigenvalues --   -0.54663  -0.54486  -0.54223  -0.53922  -0.53860
 Alpha  occ. eigenvalues --   -0.53532  -0.53362  -0.53200  -0.52816  -0.52703
 Alpha  occ. eigenvalues --   -0.52214  -0.52008  -0.51783  -0.51487  -0.51310
 Alpha  occ. eigenvalues --   -0.50950  -0.50854  -0.50547  -0.50344  -0.50208
 Alpha  occ. eigenvalues --   -0.49837  -0.49651  -0.49464  -0.49199  -0.48964
 Alpha  occ. eigenvalues --   -0.48639  -0.48538  -0.48425  -0.48211  -0.48098
 Alpha  occ. eigenvalues --   -0.47867  -0.47560  -0.46998  -0.46815  -0.46685
 Alpha  occ. eigenvalues --   -0.46556  -0.46065  -0.45792  -0.45574  -0.45127
 Alpha  occ. eigenvalues --   -0.44942  -0.44668  -0.40678  -0.39973  -0.39528
 Alpha  occ. eigenvalues --   -0.39079  -0.38663  -0.38434  -0.38088  -0.37675
 Alpha  occ. eigenvalues --   -0.37557  -0.37479  -0.37335  -0.37258  -0.36940
 Alpha  occ. eigenvalues --   -0.36699  -0.36593  -0.36105  -0.35855  -0.35684
 Alpha  occ. eigenvalues --   -0.35675  -0.35152  -0.34973  -0.34920  -0.34768
 Alpha  occ. eigenvalues --   -0.34306  -0.33829  -0.33567  -0.33163  -0.32709
 Alpha virt. eigenvalues --   -0.10119  -0.09956  -0.09783  -0.09574  -0.09094
 Alpha virt. eigenvalues --   -0.08688  -0.08604  -0.08246  -0.08043  -0.07902
 Alpha virt. eigenvalues --   -0.07480  -0.06634  -0.06342  -0.06165  -0.04900

 Mulliken charges:
               1
     1  N   -0.586338
     2  H    0.328917
     3  H    0.410771
     4  H    0.340439
     5  C   -0.190607
     6  H    0.181139
     7  H    0.231057
     8  C    0.579701
     9  O   -0.546881
    10  N   -0.533354
    11  H    0.337412
    12  C   -0.093212
    13  H    0.164653
    14  H    0.156177
    15  C    0.609752
    16  O   -0.554421
    17  N   -0.506853
    18  H    0.287560
    19  C   -0.143216
    20  H    0.156463
    21  H    0.157683
    22  C    0.569873
    23  O   -0.487360
    24  N   -0.546096
    25  H    0.297869
    26  C   -0.127719
    27  H    0.171754
    28  H    0.147214
    29  C    0.619606
    30  O   -0.579937
    31  N   -0.513069
    32  H    0.332603
    33  C   -0.128126
    34  H    0.145879
    35  H    0.153899
    36  C    0.588335
    37  O   -0.546544
    38  N   -0.505964
    39  H    0.293341
    40  C   -0.138039
    41  H    0.176515
    42  H    0.169012
    43  C    0.597342
    44  O   -0.557241
    45  N   -0.526033
    46  H    0.327571
    47  C   -0.129156
    48  H    0.135012
    49  H    0.160529
    50  C    0.599833
    51  O   -0.536404
    52  N   -0.512226
    53  H    0.289293
    54  C   -0.141191
    55  H    0.166884
    56  H    0.171325
    57  C    0.599739
    58  O   -0.566999
    59  N   -0.532861
    60  H    0.328398
    61  C   -0.138436
    62  H    0.158856
    63  H    0.174158
    64  C    0.588176
    65  O   -0.540482
    66  N   -0.515917
    67  H    0.318845
    68  C   -0.118682
    69  H    0.142608
    70  H    0.160777
    71  C    0.575605
    72  O   -0.555939
    73  N   -0.496982
    74  H    0.310785
    75  C   -0.103835
    76  H    0.163730
    77  H    0.146668
    78  C    0.594118
    79  O   -0.582207
    80  N   -0.518553
    81  H    0.325215
    82  C   -0.137705
    83  H    0.155357
    84  H    0.155641
    85  C    0.584528
    86  O   -0.589974
    87  N   -0.508007
    88  H    0.322419
    89  C   -0.154354
    90  H    0.159642
    91  H    0.141409
    92  C    0.635794
    93  O   -0.566430
    94  N   -0.540713
    95  H    0.319151
    96  C   -0.113867
    97  H    0.179345
    98  H    0.147071
    99  C    0.571843
   100  O   -0.472369
   101  O   -0.490109
   102  H    0.359116
 Sum of Mulliken charges =   1.00000

 Dipole moment (field-independent basis, Debye):
    X=             28.0563    Y=             -2.1647    Z=             -9.4892  Tot=             29.6966
 Quadrupole moment (field-independent basis, Debye-Ang):
   XX=            -82.0040   YY=           -278.2166   ZZ=           -271.8208
   XY=             20.7150   XZ=            -66.9080   YZ=             -1.8806

 Normal termination of Gaussian 16 at Tue Sep  6 12:22:56 2022.
