 Gaussian 16, Revision C.01,
 Gaussian 16:  ES64L-G16RevC.01  3-Jul-2019

 ----------------------------------------------------------------------
 # B3LYP/6-31G** empiricaldispersion=gd3bj guess=read geom=check nosymm
  integral(ultrafinegrid)
 ----------------------------------------------------------------------

 ------------------------------------------------------
 Candidate Structure: Conf:333 Charge calc in gas phase
 ------------------------------------------------------
 Structure from the checkpoint file:  "conf-333.chk"
 Charge =  1 Multiplicity = 1

                          Input orientation:
 ---------------------------------------------------------------------
 Center     Atomic      Atomic             Coordinates (Angstroms)
 Number     Number       Type             X           Y           Z
 ---------------------------------------------------------------------
      1          7           0        9.965791    4.922383   -6.781843
      2          1           0       10.805938    4.652748   -7.290704
      3          1           0        9.141617    4.995082   -7.436827
      4          1           0        9.721682    4.209414   -6.068302
      5          6           0       10.077303    6.214625   -6.049086
      6          1           0       11.113205    6.382664   -5.746238
      7          1           0        9.738188    7.016745   -6.703820
      8          6           0        9.191712    6.038833   -4.803182
      9          8           0        8.974854    4.895213   -4.406452
     10          7           0        8.739694    7.165772   -4.226492
     11          1           0        8.757197    8.027032   -4.760078
     12          6           0        7.781413    7.124234   -3.134688
     13          1           0        8.240946    7.451651   -2.195482
     14          1           0        7.431953    6.093724   -3.016906
     15          6           0        6.560809    7.979482   -3.476804
     16          8           0        6.410559    8.470093   -4.603834
     17          7           0        5.676352    8.102347   -2.482778
     18          1           0        5.833208    7.677882   -1.573613
     19          6           0        4.314281    8.539927   -2.690666
     20          1           0        4.247193    9.630155   -2.790226
     21          1           0        3.898335    8.105467   -3.603368
     22          6           0        3.515284    8.099554   -1.463702
     23          8           0        4.090411    7.771501   -0.423984
     24          7           0        2.174114    8.137446   -1.607026
     25          1           0        1.782667    8.279734   -2.543053
     26          6           0        1.315982    7.774715   -0.506793
     27          1           0        1.778278    8.120569    0.423888
     28          1           0        0.352577    8.279588   -0.620348
     29          6           0        1.123232    6.257294   -0.376181
     30          8           0        1.956775    5.457790   -0.806246
     31          7           0        0.013696    5.876670    0.302274
     32          1           0       -0.698426    6.576480    0.456403
     33          6           0       -0.413130    4.495302    0.312439
     34          1           0        0.471053    3.855628    0.371637
     35          1           0       -1.042089    4.307029    1.186951
     36          6           0       -1.136347    4.117951   -0.990320
     37          8           0       -1.130836    4.854562   -1.967081
     38          7           0       -1.748475    2.902765   -0.959478
     39          1           0       -1.573305    2.310209   -0.155346
     40          6           0       -1.946972    2.136993   -2.190753
     41          1           0       -2.944215    1.690258   -2.209096
     42          1           0       -1.834504    2.817187   -3.035447
     43          6           0       -0.889402    1.036903   -2.125777
     44          8           0       -0.876233    0.264640   -1.172294
     45          7           0        0.097827    1.032072   -3.069358
     46          1           0        0.157955    1.812412   -3.712682
     47          6           0        1.334681    0.399776   -2.664383
     48          1           0        1.147990   -0.641708   -2.394034
     49          1           0        2.042829    0.418234   -3.497516
     50          6           0        1.938541    1.156710   -1.465947
     51          8           0        1.577487    2.310139   -1.199077
     52          7           0        2.900483    0.536693   -0.756646
     53          1           0        3.238659   -0.369810   -1.044286
     54          6           0        3.605631    1.244482    0.312166
     55          1           0        4.163414    0.512430    0.896369
     56          1           0        2.867622    1.730912    0.953513
     57          6           0        4.606687    2.240247   -0.294647
     58          8           0        5.616753    1.843718   -0.859212
     59          7           0        4.261018    3.559250   -0.211735
     60          1           0        3.320642    3.809572    0.069561
     61          6           0        4.964582    4.528248   -1.028590
     62          1           0        4.723384    5.532742   -0.673824
     63          1           0        6.039797    4.360312   -0.945091
     64          6           0        4.621018    4.452981   -2.521312
     65          8           0        5.280199    5.081015   -3.356166
     66          7           0        3.557442    3.674524   -2.820132
     67          1           0        2.993299    3.316451   -2.056760
     68          6           0        3.056247    3.445953   -4.149388
     69          1           0        3.754616    3.875955   -4.871821
     70          1           0        2.972344    2.377653   -4.367811
     71          6           0        1.710735    4.100730   -4.432599
     72          8           0        1.020559    3.734542   -5.389043
     73          7           0        1.397869    5.150396   -3.644202
     74          1           0        1.922568    5.328610   -2.793493
     75          6           0        0.379435    6.105319   -4.046993
     76          1           0       -0.072227    6.562025   -3.171489
     77          1           0       -0.394565    5.583518   -4.610472
     78          6           0        1.126952    7.134479   -4.886063
     79          8           0        1.563654    8.189301   -4.405804
     80          7           0        1.394523    6.732006   -6.154675
     81          1           0        1.149361    5.773115   -6.391268
     82          6           0        2.512253    7.301824   -6.884815
     83          1           0        2.248927    7.432882   -7.939431
     84          1           0        2.734078    8.279011   -6.455063
     85          6           0        3.699331    6.339567   -6.808590
     86          8           0        3.530792    5.130602   -7.023636
     87          7           0        4.903651    6.869245   -6.526471
     88          1           0        4.983642    7.813912   -6.167055
     89          6           0        6.070269    6.025882   -6.290004
     90          1           0        5.821768    5.232696   -5.577077
     91          1           0        6.815040    6.672164   -5.843070
     92          6           0        6.688145    5.440757   -7.551780
     93          8           0        7.810028    5.815668   -7.951974
     94          7           0        5.988976    4.481820   -8.170005
     95          1           0        5.039832    4.316439   -7.826516
     96          6           0        6.491191    3.812413   -9.345827
     97          1           0        6.883300    4.543473  -10.063623
     98          1           0        5.681421    3.268128   -9.832601
     99          6           0        7.633089    2.849729   -9.038401
    100          8           0        8.364260    2.894304   -8.069821
    101          8           0        7.762315    1.950842  -10.024433
    102          1           0        8.523248    1.382647   -9.813289
 ---------------------------------------------------------------------

 SCF Done:  E(RB3LYP) =  -2989.36398802     A.U. after    3 cycles

 Alpha  occ. eigenvalues --  -19.30208 -19.24940 -19.24150 -19.22932 -19.21652
 Alpha  occ. eigenvalues --  -19.21390 -19.21268 -19.21234 -19.21168 -19.20218
 Alpha  occ. eigenvalues --  -19.19693 -19.19527 -19.19221 -19.19124 -19.18556
 Alpha  occ. eigenvalues --  -14.54934 -14.47852 -14.46441 -14.45953 -14.45938
 Alpha  occ. eigenvalues --  -14.45583 -14.44567 -14.44471 -14.43943 -14.43921
 Alpha  occ. eigenvalues --  -14.43648 -14.43346 -14.43207 -14.43098 -10.43089
 Alpha  occ. eigenvalues --  -10.41364 -10.39570 -10.38486 -10.38322 -10.38261
 Alpha  occ. eigenvalues --  -10.38212 -10.37569 -10.37282 -10.37098 -10.36689
 Alpha  occ. eigenvalues --  -10.36423 -10.36332 -10.36275 -10.35912 -10.33984
 Alpha  occ. eigenvalues --  -10.32152 -10.31795 -10.31734 -10.31644 -10.31265
 Alpha  occ. eigenvalues --  -10.31253 -10.30989 -10.30956 -10.30180 -10.30149
 Alpha  occ. eigenvalues --  -10.29913 -10.29273  -1.21381  -1.16551  -1.14634
 Alpha  occ. eigenvalues --   -1.13595  -1.13461  -1.13366  -1.12944  -1.12458
 Alpha  occ. eigenvalues --   -1.12256  -1.11920  -1.11675  -1.11283  -1.11006
 Alpha  occ. eigenvalues --   -1.10741  -1.10334  -1.09755  -1.04082  -1.03140
 Alpha  occ. eigenvalues --   -1.01860  -1.01828  -1.01635  -1.01364  -1.01324
 Alpha  occ. eigenvalues --   -1.01002  -1.00587  -1.00170  -1.00058  -0.99639
 Alpha  occ. eigenvalues --   -0.98367  -0.87504  -0.86920  -0.85532  -0.84843
 Alpha  occ. eigenvalues --   -0.84416  -0.83689  -0.82926  -0.81816  -0.80777
 Alpha  occ. eigenvalues --   -0.79824  -0.78546  -0.77529  -0.76484  -0.75732
 Alpha  occ. eigenvalues --   -0.73175  -0.70552  -0.70227  -0.69792  -0.69154
 Alpha  occ. eigenvalues --   -0.68833  -0.68556  -0.67808  -0.67497  -0.67089
 Alpha  occ. eigenvalues --   -0.66791  -0.66567  -0.66033  -0.65715  -0.65610
 Alpha  occ. eigenvalues --   -0.65357  -0.64409  -0.63090  -0.62856  -0.62344
 Alpha  occ. eigenvalues --   -0.61878  -0.61705  -0.61086  -0.60531  -0.60120
 Alpha  occ. eigenvalues --   -0.59981  -0.59287  -0.59112  -0.58690  -0.58512
 Alpha  occ. eigenvalues --   -0.58343  -0.57925  -0.57881  -0.57199  -0.57016
 Alpha  occ. eigenvalues --   -0.56855  -0.56438  -0.56335  -0.56062  -0.55631
 Alpha  occ. eigenvalues --   -0.55551  -0.55337  -0.55005  -0.54838  -0.54089
 Alpha  occ. eigenvalues --   -0.53654  -0.53246  -0.53018  -0.52567  -0.52191
 Alpha  occ. eigenvalues --   -0.52074  -0.51838  -0.51646  -0.51482  -0.51279
 Alpha  occ. eigenvalues --   -0.51045  -0.50913  -0.50546  -0.50435  -0.50342
 Alpha  occ. eigenvalues --   -0.50066  -0.49717  -0.49509  -0.49269  -0.49178
 Alpha  occ. eigenvalues --   -0.48891  -0.48689  -0.48358  -0.48197  -0.48126
 Alpha  occ. eigenvalues --   -0.47772  -0.47442  -0.47344  -0.47129  -0.46801
 Alpha  occ. eigenvalues --   -0.46461  -0.46063  -0.45890  -0.45689  -0.45204
 Alpha  occ. eigenvalues --   -0.44875  -0.44308  -0.44127  -0.43803  -0.43657
 Alpha  occ. eigenvalues --   -0.43299  -0.42762  -0.42658  -0.39607  -0.38632
 Alpha  occ. eigenvalues --   -0.38242  -0.37650  -0.36799  -0.36717  -0.36612
 Alpha  occ. eigenvalues --   -0.36390  -0.36156  -0.36044  -0.35973  -0.35704
 Alpha  occ. eigenvalues --   -0.35505  -0.35069  -0.34962  -0.34691  -0.34467
 Alpha  occ. eigenvalues --   -0.34365  -0.34117  -0.33709  -0.33487  -0.32837
 Alpha  occ. eigenvalues --   -0.32208  -0.31957  -0.31858  -0.31713  -0.31251
 Alpha virt. eigenvalues --   -0.10403  -0.10107  -0.09113  -0.08555  -0.07821
 Alpha virt. eigenvalues --   -0.07703  -0.07281  -0.06966  -0.06812  -0.05876
 Alpha virt. eigenvalues --   -0.05658  -0.05394  -0.04486  -0.04457  -0.04222

 Mulliken charges:
               1
     1  N   -0.556973
     2  H    0.331314
     3  H    0.399385
     4  H    0.354544
     5  C   -0.175726
     6  H    0.187258
     7  H    0.188180
     8  C    0.595132
     9  O   -0.505403
    10  N   -0.510977
    11  H    0.287532
    12  C   -0.148905
    13  H    0.152481
    14  H    0.213123
    15  C    0.616273
    16  O   -0.567502
    17  N   -0.521818
    18  H    0.293030
    19  C   -0.090446
    20  H    0.163159
    21  H    0.149794
    22  C    0.573587
    23  O   -0.537410
    24  N   -0.540649
    25  H    0.315745
    26  C   -0.147392
    27  H    0.182494
    28  H    0.131065
    29  C    0.612786
    30  O   -0.543624
    31  N   -0.491946
    32  H    0.278985
    33  C   -0.164840
    34  H    0.185976
    35  H    0.140930
    36  C    0.604564
    37  O   -0.512535
    38  N   -0.508621
    39  H    0.282347
    40  C   -0.119877
    41  H    0.151509
    42  H    0.150898
    43  C    0.581437
    44  O   -0.519856
    45  N   -0.499940
    46  H    0.288637
    47  C   -0.155003
    48  H    0.168990
    49  H    0.148508
    50  C    0.613799
    51  O   -0.558888
    52  N   -0.495265
    53  H    0.285883
    54  C   -0.124328
    55  H    0.151930
    56  H    0.136906
    57  C    0.564974
    58  O   -0.502384
    59  N   -0.535497
    60  H    0.292028
    61  C   -0.143988
    62  H    0.171916
    63  H    0.159829
    64  C    0.597233
    65  O   -0.552910
    66  N   -0.554410
    67  H    0.322490
    68  C   -0.123295
    69  H    0.177327
    70  H    0.122153
    71  C    0.577783
    72  O   -0.562061
    73  N   -0.509651
    74  H    0.313438
    75  C   -0.117096
    76  H    0.140449
    77  H    0.159172
    78  C    0.581432
    79  O   -0.542115
    80  N   -0.492326
    81  H    0.307013
    82  C   -0.135746
    83  H    0.157934
    84  H    0.153838
    85  C    0.603610
    86  O   -0.554117
    87  N   -0.516456
    88  H    0.303978
    89  C   -0.134296
    90  H    0.192338
    91  H    0.126700
    92  C    0.588374
    93  O   -0.598890
    94  N   -0.485568
    95  H    0.320263
    96  C   -0.132153
    97  H    0.181642
    98  H    0.169440
    99  C    0.592716
   100  O   -0.489164
   101  O   -0.454990
   102  H    0.338792
 Sum of Mulliken charges =   1.00000

 Dipole moment (field-independent basis, Debye):
    X=             28.5189    Y=             23.8509    Z=            -23.4383  Tot=             43.9494
 Quadrupole moment (field-independent basis, Debye-Ang):
   XX=            -40.3932   YY=           -165.6133   ZZ=           -130.9422
   XY=            142.5501   XZ=           -213.8446   YZ=           -107.7725

 Normal termination of Gaussian 16 at Tue Sep  6 12:24:36 2022.
