 Gaussian 16, Revision C.01,
 Gaussian 16:  ES64L-G16RevC.01  3-Jul-2019

 ----------------------------------------------------------------------
 # B3LYP/6-31G** empiricaldispersion=gd3bj guess=read geom=check nosymm
  integral(ultrafinegrid)
 ----------------------------------------------------------------------

 ------------------------------------------------------
 Candidate Structure: Conf:205 Charge calc in gas phase
 ------------------------------------------------------
 Structure from the checkpoint file:  "conf-205.chk"
 Charge =  1 Multiplicity = 1

                          Input orientation:
 ---------------------------------------------------------------------
 Center     Atomic      Atomic             Coordinates (Angstroms)
 Number     Number       Type             X           Y           Z
 ---------------------------------------------------------------------
      1          7           0        1.714190    4.591420   -7.691720
      2          1           0        2.471956    4.006152   -8.043984
      3          1           0        1.390194    4.301038   -6.648769
      4          1           0        2.008099    5.571509   -7.657684
      5          6           0        0.482878    4.494023   -8.525181
      6          1           0        0.699541    4.768962   -9.561079
      7          1           0        0.126116    3.463900   -8.484572
      8          6           0       -0.501576    5.479032   -7.881354
      9          8           0       -0.032054    6.441951   -7.267941
     10          7           0       -1.812655    5.217060   -8.007037
     11          1           0       -2.073161    4.399208   -8.541439
     12          6           0       -2.843950    5.716753   -7.084958
     13          1           0       -2.570792    5.420861   -6.064674
     14          1           0       -3.776126    5.211212   -7.334016
     15          6           0       -3.186399    7.204878   -6.968969
     16          8           0       -4.221473    7.475173   -6.364945
     17          7           0       -2.311491    8.137339   -7.422720
     18          1           0       -1.369342    7.814335   -7.618080
     19          6           0       -2.410600    9.500550   -6.886505
     20          1           0       -1.844214   10.183066   -7.517889
     21          1           0       -3.459985    9.793347   -6.860423
     22          6           0       -1.768384    9.448088   -5.498378
     23          8           0       -0.552342    9.661770   -5.369366
     24          7           0       -2.562939    8.971494   -4.519016
     25          1           0       -3.493449    8.676430   -4.799618
     26          6           0       -2.063385    8.502749   -3.231258
     27          1           0       -1.340028    9.210941   -2.820824
     28          1           0       -2.892292    8.428136   -2.529900
     29          6           0       -1.385965    7.129588   -3.293176
     30          8           0       -1.623796    6.255465   -2.452642
     31          7           0       -0.513145    6.940146   -4.316248
     32          1           0       -0.290339    7.752349   -4.879193
     33          6           0        0.539089    5.930917   -4.261970
     34          1           0        1.318829    6.236220   -4.955662
     35          1           0        0.969844    5.870857   -3.257570
     36          6           0        0.079113    4.529009   -4.633725
     37          8           0        0.605727    3.850356   -5.558538
     38          7           0       -0.902247    4.022069   -3.897306
     39          1           0       -1.271869    4.632240   -3.156659
     40          6           0       -1.428714    2.688263   -4.133470
     41          1           0       -2.307002    2.555533   -3.497558
     42          1           0       -1.739553    2.578905   -5.174391
     43          6           0       -0.453283    1.533230   -3.866482
     44          8           0       -0.601691    0.480318   -4.472631
     45          7           0        0.500109    1.746738   -2.926647
     46          1           0        0.573679    2.621914   -2.419782
     47          6           0        1.393390    0.681488   -2.549494
     48          1           0        0.981323   -0.252687   -2.940767
     49          1           0        2.382527    0.810344   -3.012756
     50          6           0        1.577709    0.604210   -1.032337
     51          8           0        1.097134    1.435005   -0.264166
     52          7           0        2.340678   -0.440595   -0.640489
     53          1           0        2.796803   -1.036368   -1.323730
     54          6           0        2.823114   -0.625997    0.708195
     55          1           0        2.126939   -1.227321    1.307993
     56          1           0        2.946662    0.343586    1.195441
     57          6           0        4.171002   -1.341644    0.618259
     58          8           0        4.607243   -1.739182   -0.465174
     59          7           0        4.836415   -1.523673    1.779804
     60          1           0        4.428448   -1.184326    2.638424
     61          6           0        6.049044   -2.333999    1.832853
     62          1           0        6.325741   -2.463995    2.881600
     63          1           0        5.865934   -3.321217    1.403210
     64          6           0        7.256444   -1.768254    1.071654
     65          8           0        8.136040   -2.522955    0.686696
     66          7           0        7.275314   -0.417742    0.902770
     67          1           0        6.450719    0.121376    1.141756
     68          6           0        8.226584    0.216320    0.004272
     69          1           0        8.900392    0.897043    0.529562
     70          1           0        8.819997   -0.580044   -0.455561
     71          6           0        7.474236    1.040749   -1.038198
     72          8           0        7.760845    2.199764   -1.299752
     73          7           0        6.402430    0.398869   -1.620257
     74          1           0        6.113682   -0.483892   -1.210460
     75          6           0        5.313959    1.240595   -2.036685
     76          1           0        4.563524    0.632222   -2.549633
     77          1           0        5.677957    2.004161   -2.728670
     78          6           0        4.664383    1.926889   -0.820192
     79          8           0        4.900658    1.586048    0.340094
     80          7           0        3.805950    2.933676   -1.099242
     81          1           0        3.549485    3.173423   -2.047197
     82          6           0        3.112526    3.626976   -0.040005
     83          1           0        2.597796    2.904663    0.603162
     84          1           0        3.816912    4.195342    0.579620
     85          6           0        2.056526    4.537599   -0.635296
     86          8           0        1.656204    4.403632   -1.797306
     87          7           0        1.596110    5.501278    0.198769
     88          1           0        1.945867    5.507515    1.147104
     89          6           0        0.440475    6.330646   -0.110636
     90          1           0       -0.176702    6.448546    0.782391
     91          1           0       -0.169001    5.831974   -0.865283
     92          6           0        0.735983    7.736527   -0.635730
     93          8           0       -0.180747    8.538756   -0.779909
     94          7           0        2.021226    8.028452   -0.952233
     95          1           0        2.739108    7.347760   -0.759052
     96          6           0        2.391770    9.386431   -1.313576
     97          1           0        3.446886    9.386486   -1.601431
     98          1           0        2.262611   10.073048   -0.472830
     99          6           0        1.585641    9.975942   -2.466305
    100          8           0        1.253720   11.135755   -2.506850
    101          8           0        1.345669    9.089463   -3.452059
    102          1           0        0.765400    9.536268   -4.111603
 ---------------------------------------------------------------------

 SCF Done:  E(RB3LYP) =  -2989.32090274     A.U. after    1 cycles

 Alpha  occ. eigenvalues --  -19.28528 -19.26845 -19.25595 -19.23966 -19.23558
 Alpha  occ. eigenvalues --  -19.23510 -19.23243 -19.21241 -19.20843 -19.20356
 Alpha  occ. eigenvalues --  -19.20346 -19.20098 -19.19671 -19.17550 -19.16760
 Alpha  occ. eigenvalues --  -14.57539 -14.52400 -14.48329 -14.48062 -14.47448
 Alpha  occ. eigenvalues --  -14.47159 -14.46915 -14.45671 -14.45496 -14.45486
 Alpha  occ. eigenvalues --  -14.44484 -14.44365 -14.41572 -14.41224 -10.45807
 Alpha  occ. eigenvalues --  -10.42313 -10.40928 -10.40828 -10.40825 -10.40245
 Alpha  occ. eigenvalues --  -10.40091 -10.38806 -10.38228 -10.37814 -10.37614
 Alpha  occ. eigenvalues --  -10.37603 -10.37524 -10.36597 -10.34457 -10.34392
 Alpha  occ. eigenvalues --  -10.34185 -10.33429 -10.33331 -10.32570 -10.32540
 Alpha  occ. eigenvalues --  -10.32317 -10.31679 -10.31459 -10.31452 -10.30712
 Alpha  occ. eigenvalues --  -10.30182 -10.27833  -1.20780  -1.17749  -1.16855
 Alpha  occ. eigenvalues --   -1.15821  -1.15580  -1.15140  -1.14540  -1.13353
 Alpha  occ. eigenvalues --   -1.12658  -1.12476  -1.12450  -1.12266  -1.11603
 Alpha  occ. eigenvalues --   -1.09497  -1.08813  -1.08360  -1.07845  -1.05226
 Alpha  occ. eigenvalues --   -1.04192  -1.04156  -1.03653  -1.02679  -1.01757
 Alpha  occ. eigenvalues --   -1.01565  -1.01324  -1.00978  -1.00620  -0.99004
 Alpha  occ. eigenvalues --   -0.97184  -0.90915  -0.88132  -0.86763  -0.86558
 Alpha  occ. eigenvalues --   -0.85314  -0.84451  -0.83508  -0.82722  -0.81595
 Alpha  occ. eigenvalues --   -0.80814  -0.80075  -0.78962  -0.77324  -0.75427
 Alpha  occ. eigenvalues --   -0.74809  -0.74224  -0.73235  -0.71091  -0.70663
 Alpha  occ. eigenvalues --   -0.69842  -0.69738  -0.68982  -0.68760  -0.68699
 Alpha  occ. eigenvalues --   -0.68411  -0.67441  -0.67285  -0.66875  -0.66775
 Alpha  occ. eigenvalues --   -0.65208  -0.65151  -0.64552  -0.64376  -0.64152
 Alpha  occ. eigenvalues --   -0.63539  -0.63432  -0.63304  -0.62306  -0.62184
 Alpha  occ. eigenvalues --   -0.61812  -0.60870  -0.60468  -0.59865  -0.59516
 Alpha  occ. eigenvalues --   -0.58989  -0.58686  -0.58208  -0.57728  -0.57636
 Alpha  occ. eigenvalues --   -0.57332  -0.57005  -0.56740  -0.56328  -0.56032
 Alpha  occ. eigenvalues --   -0.55776  -0.55518  -0.55414  -0.55204  -0.54925
 Alpha  occ. eigenvalues --   -0.54688  -0.54368  -0.54317  -0.53776  -0.53392
 Alpha  occ. eigenvalues --   -0.53064  -0.52933  -0.52849  -0.52589  -0.52340
 Alpha  occ. eigenvalues --   -0.52108  -0.52067  -0.51740  -0.51670  -0.51230
 Alpha  occ. eigenvalues --   -0.50999  -0.50655  -0.50445  -0.50272  -0.50083
 Alpha  occ. eigenvalues --   -0.49824  -0.49687  -0.49343  -0.48985  -0.48741
 Alpha  occ. eigenvalues --   -0.48501  -0.48407  -0.48314  -0.48041  -0.47723
 Alpha  occ. eigenvalues --   -0.47300  -0.46693  -0.46621  -0.45750  -0.45616
 Alpha  occ. eigenvalues --   -0.45304  -0.44755  -0.44325  -0.44155  -0.43678
 Alpha  occ. eigenvalues --   -0.43038  -0.42593  -0.42315  -0.41565  -0.41330
 Alpha  occ. eigenvalues --   -0.39870  -0.39294  -0.39232  -0.38972  -0.38457
 Alpha  occ. eigenvalues --   -0.38129  -0.37214  -0.37026  -0.36176  -0.35776
 Alpha  occ. eigenvalues --   -0.35718  -0.35599  -0.35225  -0.35150  -0.34911
 Alpha  occ. eigenvalues --   -0.34702  -0.34049  -0.33684  -0.33554  -0.33332
 Alpha  occ. eigenvalues --   -0.33270  -0.32897  -0.31372  -0.30499  -0.30083
 Alpha virt. eigenvalues --   -0.15093  -0.11753  -0.11380  -0.09838  -0.09426
 Alpha virt. eigenvalues --   -0.09137  -0.08133  -0.07424  -0.06995  -0.06629
 Alpha virt. eigenvalues --   -0.06585  -0.06255  -0.05885  -0.05802  -0.04577

 Mulliken charges:
               1
     1  N   -0.583083
     2  H    0.336721
     3  H    0.421508
     4  H    0.341483
     5  C   -0.180094
     6  H    0.199981
     7  H    0.189429
     8  C    0.618861
     9  O   -0.542185
    10  N   -0.520047
    11  H    0.297319
    12  C   -0.145314
    13  H    0.175246
    14  H    0.176420
    15  C    0.593213
    16  O   -0.512352
    17  N   -0.513690
    18  H    0.297516
    19  C   -0.134990
    20  H    0.161054
    21  H    0.169994
    22  C    0.570876
    23  O   -0.550316
    24  N   -0.489883
    25  H    0.308993
    26  C   -0.151010
    27  H    0.207915
    28  H    0.166680
    29  C    0.605945
    30  O   -0.542113
    31  N   -0.520973
    32  H    0.301853
    33  C   -0.131313
    34  H    0.118270
    35  H    0.194171
    36  C    0.613602
    37  O   -0.610501
    38  N   -0.511663
    39  H    0.331624
    40  C   -0.130198
    41  H    0.165580
    42  H    0.139130
    43  C    0.590820
    44  O   -0.513970
    45  N   -0.529550
    46  H    0.298184
    47  C   -0.128752
    48  H    0.180292
    49  H    0.121425
    50  C    0.587964
    51  O   -0.542057
    52  N   -0.531485
    53  H    0.287871
    54  C   -0.100289
    55  H    0.150338
    56  H    0.167820
    57  C    0.600346
    58  O   -0.541769
    59  N   -0.541236
    60  H    0.280768
    61  C   -0.129751
    62  H    0.150097
    63  H    0.172126
    64  C    0.585205
    65  O   -0.501939
    66  N   -0.541593
    67  H    0.289737
    68  C   -0.111985
    69  H    0.145222
    70  H    0.173857
    71  C    0.549972
    72  O   -0.511160
    73  N   -0.502224
    74  H    0.302390
    75  C   -0.150844
    76  H    0.126802
    77  H    0.152493
    78  C    0.624187
    79  O   -0.551880
    80  N   -0.546125
    81  H    0.273304
    82  C   -0.080037
    83  H    0.194116
    84  H    0.139857
    85  C    0.580966
    86  O   -0.552287
    87  N   -0.544518
    88  H    0.288042
    89  C   -0.143958
    90  H    0.163994
    91  H    0.189838
    92  C    0.598962
    93  O   -0.521468
    94  N   -0.514962
    95  H    0.269572
    96  C   -0.117091
    97  H    0.144051
    98  H    0.168787
    99  C    0.601399
   100  O   -0.453032
   101  O   -0.536268
   102  H    0.355766
 Sum of Mulliken charges =   1.00000

 Dipole moment (field-independent basis, Debye):
    X=              1.3241    Y=             22.1108    Z=            -25.4852  Tot=             33.7659
 Quadrupole moment (field-independent basis, Debye-Ang):
   XX=           -346.3822   YY=           -240.3814   ZZ=            -54.5126
   XY=             16.5144   XZ=             12.2526   YZ=           -149.6488

 Normal termination of Gaussian 16 at Tue Sep  6 12:22:42 2022.
