 Gaussian 16, Revision C.01,
 Gaussian 16:  ES64L-G16RevC.01  3-Jul-2019

 ----------------------------------------------------------------------
 # B3LYP/6-31G** empiricaldispersion=gd3bj guess=read geom=check nosymm
  integral(ultrafinegrid)
 ----------------------------------------------------------------------

 -----------------------------------------------------
 Candidate Structure: Conf:12 Charge calc in gas phase
 -----------------------------------------------------
 Structure from the checkpoint file:  "conf-12.chk"
 Charge =  1 Multiplicity = 1

                          Input orientation:
 ---------------------------------------------------------------------
 Center     Atomic      Atomic             Coordinates (Angstroms)
 Number     Number       Type             X           Y           Z
 ---------------------------------------------------------------------
      1          7           0        4.948275    8.401953    2.238199
      2          1           0        4.366552    8.366233    3.073943
      3          1           0        4.328461    8.315231    1.401019
      4          1           0        5.474172    9.290502    2.182374
      5          6           0        5.963958    7.300096    2.222204
      6          1           0        6.242363    7.016220    3.238441
      7          1           0        5.532804    6.441418    1.719735
      8          6           0        7.144101    7.876980    1.442823
      9          8           0        7.359178    9.096349    1.531175
     10          7           0        7.811861    7.023790    0.657644
     11          1           0        7.454553    6.061328    0.591119
     12          6           0        8.675236    7.513685   -0.420326
     13          1           0        9.228454    6.673711   -0.836670
     14          1           0        9.368835    8.261876   -0.031727
     15          6           0        7.731877    8.086974   -1.488381
     16          8           0        7.267793    7.401119   -2.395930
     17          7           0        7.356122    9.373139   -1.248012
     18          1           0        7.600171    9.752667   -0.338710
     19          6           0        6.159774    9.902295   -1.881334
     20          1           0        6.117200   10.978189   -1.712124
     21          1           0        6.212333    9.705564   -2.953596
     22          6           0        4.882029    9.296483   -1.276894
     23          8           0        4.288606    9.825119   -0.336197
     24          7           0        4.453415    8.145035   -1.864723
     25          1           0        5.090045    7.684643   -2.507139
     26          6           0        3.083763    7.699704   -1.746406
     27          1           0        2.439869    8.587277   -1.700478
     28          1           0        2.817175    7.145546   -2.649877
     29          6           0        2.714559    6.882694   -0.511780
     30          8           0        3.273686    7.047132    0.593955
     31          7           0        1.673050    6.063300   -0.661870
     32          1           0        1.258128    5.855061   -1.566937
     33          6           0        1.024337    5.404774    0.452682
     34          1           0        1.664737    4.640492    0.896207
     35          1           0        0.765109    6.125608    1.230370
     36          6           0       -0.211594    4.678175   -0.060722
     37          8           0       -0.358899    4.460001   -1.265741
     38          7           0       -1.076771    4.301156    0.903287
     39          1           0       -0.768616    4.388566    1.866930
     40          6           0       -2.134633    3.333195    0.624393
     41          1           0       -2.935618    3.451953    1.353323
     42          1           0       -2.514139    3.520172   -0.381445
     43          6           0       -1.536569    1.931636    0.770185
     44          8           0       -1.605270    1.299453    1.813852
     45          7           0       -0.843347    1.498488   -0.331445
     46          1           0       -0.635351    2.202546   -1.031943
     47          6           0        0.149220    0.469513   -0.131957
     48          1           0       -0.273677   -0.302969    0.514166
     49          1           0        0.407475    0.011720   -1.091983
     50          6           0        1.423268    1.047950    0.496495
     51          8           0        1.659631    2.258819    0.479627
     52          7           0        2.300227    0.154039    1.006060
     53          1           0        2.053560   -0.813730    1.167370
     54          6           0        3.561982    0.623815    1.533141
     55          1           0        3.437998    1.113005    2.509143
     56          1           0        3.975941    1.361949    0.844169
     57          6           0        4.523012   -0.523440    1.757918
     58          8           0        4.160397   -1.599226    2.230502
     59          7           0        5.817049   -0.249546    1.431606
     60          1           0        6.045574    0.712132    1.218990
     61          6           0        6.896883   -1.101103    1.921750
     62          1           0        6.570714   -2.139549    1.851955
     63          1           0        7.790913   -0.948917    1.318098
     64          6           0        7.174421   -0.668137    3.357445
     65          8           0        8.011231    0.201544    3.619128
     66          7           0        6.341662   -1.190884    4.291246
     67          1           0        5.536315   -1.704479    3.945963
     68          6           0        6.224623   -0.498789    5.560818
     69          1           0        5.405946   -0.947552    6.127992
     70          1           0        7.145316   -0.612519    6.140104
     71          6           0        5.910112    0.982120    5.306319
     72          8           0        5.155974    1.313009    4.391646
     73          7           0        6.535199    1.876017    6.110372
     74          1           0        7.227427    1.538702    6.762743
     75          6           0        6.364264    3.311165    5.942652
     76          1           0        6.797195    3.827991    6.800836
     77          1           0        5.298225    3.551495    5.894618
     78          6           0        6.942933    3.895047    4.650535
     79          8           0        6.725212    5.070988    4.355866
     80          7           0        7.591441    3.040491    3.823576
     81          1           0        7.743211    2.067203    4.071876
     82          6           0        7.785324    3.405932    2.440569
     83          1           0        8.461751    4.257967    2.332595
     84          1           0        8.231774    2.552029    1.924253
     85          6           0        6.481094    3.820691    1.749054
     86          8           0        6.508770    4.600728    0.785608
     87          7           0        5.327243    3.303231    2.223936
     88          1           0        5.344409    2.728626    3.070407
     89          6           0        4.069595    3.995043    1.972351
     90          1           0        3.304222    3.304969    1.599337
     91          1           0        4.236715    4.745579    1.201148
     92          6           0        3.540239    4.589662    3.276399
     93          8           0        3.563092    3.961069    4.326616
     94          7           0        3.005880    5.847859    3.189738
     95          1           0        2.873667    6.248571    2.261097
     96          6           0        2.184404    6.298726    4.288338
     97          1           0        1.965242    7.366530    4.181789
     98          1           0        2.708897    6.151549    5.233932
     99          6           0        0.850865    5.559180    4.359700
    100          8           0        0.356630    4.936867    3.442301
    101          8           0        0.274219    5.713514    5.555237
    102          1           0       -0.575997    5.240186    5.542623
 ---------------------------------------------------------------------

 SCF Done:  E(RB3LYP) =  -2989.36458987     A.U. after    3 cycles

 Alpha  occ. eigenvalues --  -19.30106 -19.24993 -19.24632 -19.23707 -19.22587
 Alpha  occ. eigenvalues --  -19.22308 -19.22301 -19.21787 -19.21711 -19.21334
 Alpha  occ. eigenvalues --  -19.21076 -19.21065 -19.21021 -19.20511 -19.18567
 Alpha  occ. eigenvalues --  -14.54996 -14.47517 -14.47102 -14.46591 -14.46508
 Alpha  occ. eigenvalues --  -14.45953 -14.45808 -14.45733 -14.45651 -14.44976
 Alpha  occ. eigenvalues --  -14.44949 -14.44866 -14.44527 -14.42571 -10.42938
 Alpha  occ. eigenvalues --  -10.40905 -10.40478 -10.39453 -10.39429 -10.38846
 Alpha  occ. eigenvalues --  -10.38775 -10.38660 -10.38420 -10.38224 -10.38070
 Alpha  occ. eigenvalues --  -10.38004 -10.37272 -10.35511 -10.34856 -10.34082
 Alpha  occ. eigenvalues --  -10.33983 -10.33101 -10.32709 -10.32501 -10.32426
 Alpha  occ. eigenvalues --  -10.32303 -10.32185 -10.31771 -10.31509 -10.31391
 Alpha  occ. eigenvalues --  -10.30463 -10.30152  -1.21361  -1.15927  -1.15654
 Alpha  occ. eigenvalues --   -1.15032  -1.14418  -1.13820  -1.13504  -1.13417
 Alpha  occ. eigenvalues --   -1.13193  -1.12880  -1.12666  -1.12597  -1.12331
 Alpha  occ. eigenvalues --   -1.12212  -1.10351  -1.09482  -1.03735  -1.03448
 Alpha  occ. eigenvalues --   -1.03321  -1.02825  -1.02620  -1.02324  -1.02258
 Alpha  occ. eigenvalues --   -1.01966  -1.01356  -1.01161  -1.00987  -1.00740
 Alpha  occ. eigenvalues --   -0.99120  -0.87459  -0.86865  -0.86570  -0.86351
 Alpha  occ. eigenvalues --   -0.85343  -0.84131  -0.83433  -0.82474  -0.81662
 Alpha  occ. eigenvalues --   -0.80454  -0.79458  -0.78739  -0.77979  -0.76288
 Alpha  occ. eigenvalues --   -0.72783  -0.71187  -0.70690  -0.70051  -0.69915
 Alpha  occ. eigenvalues --   -0.69040  -0.68773  -0.68529  -0.68401  -0.68009
 Alpha  occ. eigenvalues --   -0.67954  -0.67578  -0.67227  -0.67061  -0.66550
 Alpha  occ. eigenvalues --   -0.65235  -0.64321  -0.64002  -0.63751  -0.63475
 Alpha  occ. eigenvalues --   -0.63202  -0.62448  -0.62161  -0.61196  -0.60844
 Alpha  occ. eigenvalues --   -0.60532  -0.60218  -0.59665  -0.59398  -0.59069
 Alpha  occ. eigenvalues --   -0.58865  -0.58750  -0.58281  -0.57985  -0.57663
 Alpha  occ. eigenvalues --   -0.57264  -0.57218  -0.56890  -0.56439  -0.56391
 Alpha  occ. eigenvalues --   -0.56084  -0.55916  -0.55518  -0.55283  -0.55111
 Alpha  occ. eigenvalues --   -0.54460  -0.54216  -0.54181  -0.53933  -0.53421
 Alpha  occ. eigenvalues --   -0.53234  -0.52833  -0.52626  -0.52310  -0.52128
 Alpha  occ. eigenvalues --   -0.51559  -0.51465  -0.51290  -0.51029  -0.50853
 Alpha  occ. eigenvalues --   -0.50553  -0.50489  -0.50260  -0.50062  -0.49706
 Alpha  occ. eigenvalues --   -0.49558  -0.49250  -0.49043  -0.48898  -0.48717
 Alpha  occ. eigenvalues --   -0.48503  -0.48192  -0.47923  -0.47732  -0.47596
 Alpha  occ. eigenvalues --   -0.47506  -0.47259  -0.46981  -0.46803  -0.46478
 Alpha  occ. eigenvalues --   -0.46333  -0.45973  -0.45588  -0.45115  -0.44390
 Alpha  occ. eigenvalues --   -0.44227  -0.43527  -0.42450  -0.39967  -0.39071
 Alpha  occ. eigenvalues --   -0.38685  -0.38276  -0.38099  -0.37910  -0.37899
 Alpha  occ. eigenvalues --   -0.37673  -0.37405  -0.37055  -0.37043  -0.36304
 Alpha  occ. eigenvalues --   -0.36086  -0.35656  -0.35609  -0.35368  -0.35051
 Alpha  occ. eigenvalues --   -0.34829  -0.34611  -0.34448  -0.34225  -0.34121
 Alpha  occ. eigenvalues --   -0.33965  -0.33673  -0.33219  -0.32872  -0.31194
 Alpha virt. eigenvalues --   -0.10768  -0.09893  -0.09790  -0.09716  -0.09046
 Alpha virt. eigenvalues --   -0.08832  -0.08562  -0.07996  -0.07244  -0.07154
 Alpha virt. eigenvalues --   -0.06903  -0.06757  -0.05792  -0.05357  -0.04331

 Mulliken charges:
               1
     1  N   -0.557144
     2  H    0.329732
     3  H    0.386309
     4  H    0.350489
     5  C   -0.195422
     6  H    0.223146
     7  H    0.186952
     8  C    0.594790
     9  O   -0.552580
    10  N   -0.526254
    11  H    0.339437
    12  C   -0.135834
    13  H    0.157437
    14  H    0.157458
    15  C    0.563435
    16  O   -0.517919
    17  N   -0.491944
    18  H    0.300363
    19  C   -0.122799
    20  H    0.155224
    21  H    0.152599
    22  C    0.554982
    23  O   -0.536989
    24  N   -0.499433
    25  H    0.304946
    26  C   -0.139388
    27  H    0.179428
    28  H    0.142130
    29  C    0.633392
    30  O   -0.596234
    31  N   -0.515906
    32  H    0.300587
    33  C   -0.101605
    34  H    0.191814
    35  H    0.134841
    36  C    0.588855
    37  O   -0.550275
    38  N   -0.525644
    39  H    0.311062
    40  C   -0.140060
    41  H    0.145410
    42  H    0.156099
    43  C    0.575048
    44  O   -0.502870
    45  N   -0.492713
    46  H    0.287746
    47  C   -0.156457
    48  H    0.164939
    49  H    0.150253
    50  C    0.614824
    51  O   -0.541864
    52  N   -0.540120
    53  H    0.290807
    54  C   -0.086514
    55  H    0.182960
    56  H    0.136017
    57  C    0.580462
    58  O   -0.534380
    59  N   -0.509054
    60  H    0.272446
    61  C   -0.138014
    62  H    0.167450
    63  H    0.150866
    64  C    0.584880
    65  O   -0.545144
    66  N   -0.481949
    67  H    0.304481
    68  C   -0.130878
    69  H    0.164969
    70  H    0.143015
    71  C    0.582240
    72  O   -0.524571
    73  N   -0.528665
    74  H    0.285003
    75  C   -0.139474
    76  H    0.151000
    77  H    0.205375
    78  C    0.587660
    79  O   -0.549348
    80  N   -0.534864
    81  H    0.320933
    82  C   -0.119247
    83  H    0.154204
    84  H    0.153183
    85  C    0.586733
    86  O   -0.566721
    87  N   -0.541726
    88  H    0.335948
    89  C   -0.179441
    90  H    0.189154
    91  H    0.146995
    92  C    0.606968
    93  O   -0.517308
    94  N   -0.562382
    95  H    0.310987
    96  C   -0.145633
    97  H    0.140574
    98  H    0.183869
    99  C    0.604609
   100  O   -0.469723
   101  O   -0.456186
   102  H    0.343165
 Sum of Mulliken charges =   1.00000

 Dipole moment (field-independent basis, Debye):
    X=             22.6688    Y=             23.5119    Z=             11.5540  Tot=             34.6436
 Quadrupole moment (field-independent basis, Debye-Ang):
   XX=           -173.4733   YY=           -134.5217   ZZ=           -241.9761
   XY=             88.2677   XZ=             64.7226   YZ=             34.1601

 Normal termination of Gaussian 16 at Tue Sep  6 12:24:19 2022.
