 Gaussian 16, Revision C.01,
 Gaussian 16:  ES64L-G16RevC.01  3-Jul-2019

 ----------------------------------------------------------------------
 # B3LYP/6-31G** empiricaldispersion=gd3bj guess=read geom=check nosymm
  integral(ultrafinegrid)
 ----------------------------------------------------------------------

 ------------------------------------------------------
 Candidate Structure: Conf:202 Charge calc in gas phase
 ------------------------------------------------------
 Structure from the checkpoint file:  "conf-202.chk"
 Charge =  1 Multiplicity = 1

                          Input orientation:
 ---------------------------------------------------------------------
 Center     Atomic      Atomic             Coordinates (Angstroms)
 Number     Number       Type             X           Y           Z
 ---------------------------------------------------------------------
      1          7           0       -0.133875    9.658385   -0.201474
      2          1           0        0.876760    9.404965   -0.404834
      3          1           0       -0.751548    8.853621   -0.453832
      4          1           0       -0.221730    9.850628    0.797765
      5          6           0       -0.501752   10.869051   -1.012348
      6          1           0       -1.440159   11.277837   -0.642654
      7          1           0        0.300746   11.601316   -0.899036
      8          6           0       -0.723149   10.488413   -2.481021
      9          8           0       -1.817312   10.662713   -3.007548
     10          7           0        0.340916    9.940636   -3.119730
     11          1           0        1.209104    9.804613   -2.605493
     12          6           0        0.196783    9.422981   -4.483458
     13          1           0        1.178118    9.322980   -4.945023
     14          1           0       -0.412948   10.118968   -5.063490
     15          6           0       -0.455022    8.040890   -4.385626
     16          8           0        0.217009    6.996886   -4.394899
     17          7           0       -1.780108    8.045010   -4.124133
     18          1           0       -2.201142    8.956719   -3.948495
     19          6           0       -2.365043    6.895440   -3.442289
     20          1           0       -3.435140    7.066986   -3.319963
     21          1           0       -2.213108    5.990902   -4.033594
     22          6           0       -1.701955    6.812345   -2.063439
     23          8           0       -1.750275    7.782985   -1.297236
     24          7           0       -0.988964    5.704668   -1.776065
     25          1           0       -0.944737    4.961733   -2.458688
     26          6           0       -0.136173    5.655215   -0.601944
     27          1           0       -0.677464    6.034058    0.266363
     28          1           0        0.135446    4.618785   -0.390206
     29          6           0        1.170763    6.455387   -0.714991
     30          8           0        1.837587    6.636700    0.303202
     31          7           0        1.512027    6.918446   -1.933936
     32          1           0        0.908538    6.756818   -2.735057
     33          6           0        2.814932    7.494991   -2.235815
     34          1           0        3.573751    6.709731   -2.267165
     35          1           0        2.742863    7.925148   -3.239596
     36          6           0        3.195406    8.578171   -1.232795
     37          8           0        2.382695    9.487103   -0.921027
     38          7           0        4.420559    8.478085   -0.739001
     39          1           0        5.061841    7.752109   -1.105386
     40          6           0        4.897304    9.130192    0.472378
     41          1           0        5.819272    9.679796    0.277952
     42          1           0        4.133519    9.822598    0.832229
     43          6           0        5.218580    8.045031    1.525270
     44          8           0        6.213694    8.126206    2.243405
     45          7           0        4.351902    7.011885    1.541362
     46          1           0        3.515078    7.050501    0.967783
     47          6           0        4.609134    5.730030    2.177882
     48          1           0        5.592888    5.777837    2.651562
     49          1           0        3.854749    5.499634    2.932327
     50          6           0        4.548106    4.623180    1.113489
     51          8           0        3.728251    3.706693    1.157207
     52          7           0        5.440847    4.749160    0.097411
     53          1           0        6.055150    5.549938    0.008187
     54          6           0        5.441637    3.789388   -0.988899
     55          1           0        5.377999    2.778167   -0.580674
     56          1           0        6.371300    3.891952   -1.546370
     57          6           0        4.297828    4.053400   -1.967384
     58          8           0        4.372040    4.920520   -2.847718
     59          7           0        3.193844    3.296449   -1.806170
     60          1           0        3.117869    2.758244   -0.951506
     61          6           0        2.048453    3.462007   -2.673692
     62          1           0        1.381577    2.608644   -2.522825
     63          1           0        1.502358    4.380341   -2.431106
     64          6           0        2.448982    3.483281   -4.156030
     65          8           0        3.235139    2.663666   -4.620197
     66          7           0        1.811921    4.418355   -4.903984
     67          1           0        1.309618    5.181838   -4.473319
     68          6           0        2.038224    4.528789   -6.340385
     69          1           0        2.072567    3.519764   -6.760638
     70          1           0        1.208307    5.080270   -6.780138
     71          6           0        3.325693    5.287595   -6.701938
     72          8           0        3.301703    6.368588   -7.273849
     73          7           0        4.476973    4.652081   -6.333115
     74          1           0        4.394825    3.757458   -5.856979
     75          6           0        5.772717    5.163070   -6.726239
     76          1           0        5.668092    5.700818   -7.674018
     77          1           0        6.469453    4.337135   -6.882927
     78          6           0        6.429098    6.140880   -5.755968
     79          8           0        7.605495    6.482814   -5.901900
     80          7           0        5.634952    6.636221   -4.773707
     81          1           0        4.835810    6.080736   -4.493413
     82          6           0        6.171351    7.596715   -3.829147
     83          1           0        6.834944    8.268214   -4.379941
     84          1           0        5.360254    8.183766   -3.399071
     85          6           0        6.944320    6.921221   -2.696626
     86          8           0        6.501039    6.857477   -1.536644
     87          7           0        8.120252    6.385879   -3.066784
     88          1           0        8.329108    6.408215   -4.066898
     89          6           0        8.904804    5.557667   -2.163047
     90          1           0        9.695816    5.082025   -2.747838
     91          1           0        8.293128    4.770599   -1.717975
     92          6           0        9.547746    6.303499   -0.987441
     93          8           0        9.722496    5.733946    0.078611
     94          7           0        9.969559    7.570452   -1.243762
     95          1           0        9.616312    8.033037   -2.067189
     96          6           0       10.505417    8.369289   -0.159400
     97          1           0       10.855874    9.322699   -0.564060
     98          1           0       11.359376    7.862431    0.292778
     99          6           0        9.520866    8.650097    0.975389
    100          8           0        9.877919    8.916590    2.097989
    101          8           0        8.239292    8.597883    0.573235
    102          1           0        7.659399    8.617082    1.373214
 ---------------------------------------------------------------------

 SCF Done:  E(RB3LYP) =  -2989.35867806     A.U. after    3 cycles

 Alpha  occ. eigenvalues --  -19.27913 -19.27132 -19.26628 -19.26186 -19.25983
 Alpha  occ. eigenvalues --  -19.23862 -19.23250 -19.23163 -19.21902 -19.21775
 Alpha  occ. eigenvalues --  -19.20946 -19.20882 -19.19897 -19.18179 -19.17840
 Alpha  occ. eigenvalues --  -14.56761 -14.52394 -14.50716 -14.50184 -14.50001
 Alpha  occ. eigenvalues --  -14.48834 -14.47504 -14.46725 -14.46393 -14.45463
 Alpha  occ. eigenvalues --  -14.45371 -14.45134 -14.44111 -14.42991 -10.44789
 Alpha  occ. eigenvalues --  -10.43720 -10.43674 -10.43202 -10.43150 -10.39889
 Alpha  occ. eigenvalues --  -10.39835 -10.39626 -10.39092 -10.38980 -10.37920
 Alpha  occ. eigenvalues --  -10.37883 -10.37451 -10.37359 -10.37064 -10.36738
 Alpha  occ. eigenvalues --  -10.36387 -10.35910 -10.35655 -10.34901 -10.33814
 Alpha  occ. eigenvalues --  -10.33234 -10.32519 -10.31924 -10.31567 -10.31474
 Alpha  occ. eigenvalues --  -10.31188 -10.29168  -1.20120  -1.18695  -1.18348
 Alpha  occ. eigenvalues --   -1.18007  -1.17133  -1.15390  -1.14988  -1.14525
 Alpha  occ. eigenvalues --   -1.13775  -1.13495  -1.12845  -1.12489  -1.12048
 Alpha  occ. eigenvalues --   -1.11670  -1.10293  -1.08615  -1.07164  -1.06395
 Alpha  occ. eigenvalues --   -1.06078  -1.05796  -1.05532  -1.03707  -1.03115
 Alpha  occ. eigenvalues --   -1.02739  -1.02309  -1.01989  -1.00926  -1.00078
 Alpha  occ. eigenvalues --   -0.99049  -0.91493  -0.89897  -0.88353  -0.87384
 Alpha  occ. eigenvalues --   -0.86270  -0.85899  -0.84601  -0.83665  -0.83028
 Alpha  occ. eigenvalues --   -0.82100  -0.81044  -0.79344  -0.78433  -0.77705
 Alpha  occ. eigenvalues --   -0.75622  -0.74324  -0.73421  -0.72897  -0.71825
 Alpha  occ. eigenvalues --   -0.71711  -0.71317  -0.70436  -0.69593  -0.69172
 Alpha  occ. eigenvalues --   -0.68813  -0.68302  -0.68128  -0.67605  -0.67236
 Alpha  occ. eigenvalues --   -0.66986  -0.66553  -0.66366  -0.65674  -0.64941
 Alpha  occ. eigenvalues --   -0.64643  -0.64221  -0.63841  -0.63491  -0.63093
 Alpha  occ. eigenvalues --   -0.62770  -0.62660  -0.61984  -0.61879  -0.61083
 Alpha  occ. eigenvalues --   -0.60646  -0.60378  -0.60078  -0.59805  -0.59019
 Alpha  occ. eigenvalues --   -0.58726  -0.58079  -0.57976  -0.57780  -0.57586
 Alpha  occ. eigenvalues --   -0.57141  -0.56731  -0.56200  -0.56018  -0.55767
 Alpha  occ. eigenvalues --   -0.55368  -0.55257  -0.55037  -0.54792  -0.54322
 Alpha  occ. eigenvalues --   -0.54043  -0.53965  -0.53855  -0.53634  -0.53368
 Alpha  occ. eigenvalues --   -0.53105  -0.52800  -0.52451  -0.52388  -0.52121
 Alpha  occ. eigenvalues --   -0.52011  -0.51955  -0.51581  -0.51284  -0.51222
 Alpha  occ. eigenvalues --   -0.50938  -0.50805  -0.50437  -0.50393  -0.49834
 Alpha  occ. eigenvalues --   -0.49691  -0.49383  -0.49087  -0.48812  -0.48584
 Alpha  occ. eigenvalues --   -0.48450  -0.48005  -0.47451  -0.46860  -0.46777
 Alpha  occ. eigenvalues --   -0.46497  -0.46046  -0.45961  -0.45583  -0.44716
 Alpha  occ. eigenvalues --   -0.43826  -0.42984  -0.42877  -0.42838  -0.42460
 Alpha  occ. eigenvalues --   -0.41767  -0.40530  -0.40319  -0.40017  -0.39469
 Alpha  occ. eigenvalues --   -0.39031  -0.38799  -0.38469  -0.38220  -0.37786
 Alpha  occ. eigenvalues --   -0.37532  -0.37334  -0.36750  -0.36579  -0.35850
 Alpha  occ. eigenvalues --   -0.35694  -0.35392  -0.34623  -0.34201  -0.34014
 Alpha  occ. eigenvalues --   -0.33526  -0.33036  -0.32694  -0.31715  -0.30467
 Alpha virt. eigenvalues --   -0.14750  -0.14466  -0.12913  -0.12499  -0.12005
 Alpha virt. eigenvalues --   -0.09949  -0.09620  -0.08763  -0.08489  -0.07560
 Alpha virt. eigenvalues --   -0.06930  -0.06770  -0.06181  -0.06034  -0.04917

 Mulliken charges:
               1
     1  N   -0.608800
     2  H    0.392455
     3  H    0.380052
     4  H    0.338077
     5  C   -0.178996
     6  H    0.198731
     7  H    0.194024
     8  C    0.595562
     9  O   -0.501762
    10  N   -0.526147
    11  H    0.294822
    12  C   -0.141022
    13  H    0.169097
    14  H    0.181721
    15  C    0.587113
    16  O   -0.561895
    17  N   -0.472536
    18  H    0.320135
    19  C   -0.125678
    20  H    0.181073
    21  H    0.151277
    22  C    0.583985
    23  O   -0.551883
    24  N   -0.510423
    25  H    0.295482
    26  C   -0.142849
    27  H    0.179135
    28  H    0.182053
    29  C    0.582395
    30  O   -0.527655
    31  N   -0.550246
    32  H    0.321021
    33  C   -0.162864
    34  H    0.190015
    35  H    0.144247
    36  C    0.612523
    37  O   -0.617739
    38  N   -0.521526
    39  H    0.345465
    40  C   -0.145311
    41  H    0.173995
    42  H    0.162164
    43  C    0.583732
    44  O   -0.524105
    45  N   -0.529831
    46  H    0.315386
    47  C   -0.119358
    48  H    0.182755
    49  H    0.153103
    50  C    0.563437
    51  O   -0.532420
    52  N   -0.505289
    53  H    0.309083
    54  C   -0.122520
    55  H    0.151717
    56  H    0.143602
    57  C    0.598886
    58  O   -0.557393
    59  N   -0.482269
    60  H    0.301319
    61  C   -0.109830
    62  H    0.154497
    63  H    0.070482
    64  C    0.624782
    65  O   -0.526173
    66  N   -0.545786
    67  H    0.286941
    68  C   -0.138413
    69  H    0.161827
    70  H    0.143771
    71  C    0.559448
    72  O   -0.499841
    73  N   -0.546861
    74  H    0.304149
    75  C   -0.115535
    76  H    0.184859
    77  H    0.152724
    78  C    0.584526
    79  O   -0.537845
    80  N   -0.500685
    81  H    0.305371
    82  C   -0.137540
    83  H    0.166656
    84  H    0.104037
    85  C    0.618356
    86  O   -0.569467
    87  N   -0.524206
    88  H    0.315724
    89  C   -0.146507
    90  H    0.161541
    91  H    0.147569
    92  C    0.605340
    93  O   -0.504774
    94  N   -0.503510
    95  H    0.263847
    96  C   -0.134306
    97  H    0.141558
    98  H    0.179046
    99  C    0.598307
   100  O   -0.453328
   101  O   -0.536739
   102  H    0.356869
 Sum of Mulliken charges =   1.00000

 Dipole moment (field-independent basis, Debye):
    X=             -0.0222    Y=             36.3959    Z=            -12.5916  Tot=             38.5124
 Quadrupole moment (field-independent basis, Debye-Ang):
   XX=           -315.5013   YY=             -9.9287   ZZ=           -313.3669
   XY=              1.1628   XZ=            -47.6874   YZ=            -78.6106

 Normal termination of Gaussian 16 at Tue Sep  6 12:24:44 2022.
