 Gaussian 16, Revision C.01,
 Gaussian 16:  ES64L-G16RevC.01  3-Jul-2019

 ----------------------------------------------------------------------
 # B3LYP/6-31G** empiricaldispersion=gd3bj guess=read geom=check nosymm
  integral(ultrafinegrid)
 ----------------------------------------------------------------------

 ------------------------------------------------------
 Candidate Structure: Conf:172 Charge calc in gas phase
 ------------------------------------------------------
 Structure from the checkpoint file:  "conf-172.chk"
 Charge =  1 Multiplicity = 1

                          Input orientation:
 ---------------------------------------------------------------------
 Center     Atomic      Atomic             Coordinates (Angstroms)
 Number     Number       Type             X           Y           Z
 ---------------------------------------------------------------------
      1          7           0        1.209898    5.441327    0.178486
      2          1           0        1.068918    4.568974   -0.412305
      3          1           0        0.353158    6.062281    0.160331
      4          1           0        1.374557    5.151902    1.142694
      5          6           0        2.384188    6.175318   -0.356888
      6          1           0        2.552555    7.067165    0.252505
      7          1           0        3.269575    5.541475   -0.307219
      8          6           0        2.093485    6.601957   -1.794938
      9          8           0        0.927234    6.706623   -2.196942
     10          7           0        3.171761    6.881526   -2.530479
     11          1           0        4.111089    6.696825   -2.152794
     12          6           0        3.024224    7.360665   -3.886148
     13          1           0        4.018667    7.600780   -4.267141
     14          1           0        2.446932    8.287560   -3.892276
     15          6           0        2.336350    6.333900   -4.774398
     16          8           0        2.147809    5.157601   -4.442792
     17          7           0        1.896024    6.813901   -5.958490
     18          1           0        2.170141    7.748137   -6.247164
     19          6           0        1.081760    5.957386   -6.800034
     20          1           0        0.961175    6.431514   -7.778028
     21          1           0        1.547501    4.980586   -6.935420
     22          6           0       -0.298981    5.705087   -6.177044
     23          8           0       -0.802594    4.591629   -6.146044
     24          7           0       -0.909407    6.821108   -5.665752
     25          1           0       -0.470079    7.717053   -5.819888
     26          6           0       -2.278173    6.782247   -5.195047
     27          1           0       -2.962967    7.291493   -5.882894
     28          1           0       -2.574862    5.730899   -5.170694
     29          6           0       -2.534594    7.364893   -3.812920
     30          8           0       -3.685721    7.368766   -3.370370
     31          7           0       -1.479445    7.855301   -3.115129
     32          1           0       -0.534529    7.594740   -3.376102
     33          6           0       -1.663061    8.363323   -1.757309
     34          1           0       -0.839249    9.029295   -1.507362
     35          1           0       -2.608850    8.909926   -1.723190
     36          6           0       -1.669603    7.218428   -0.739849
     37          8           0       -0.830217    7.147703    0.174306
     38          7           0       -2.597567    6.272376   -0.971040
     39          1           0       -3.264875    6.455977   -1.721506
     40          6           0       -2.549510    4.955622   -0.371437
     41          1           0       -2.063038    5.030930    0.604431
     42          1           0       -3.559400    4.576987   -0.206859
     43          6           0       -1.813953    3.897100   -1.211545
     44          8           0       -1.987110    2.708594   -0.991752
     45          7           0       -0.981825    4.362475   -2.192269
     46          1           0       -0.742961    5.341201   -2.263612
     47          6           0       -0.269454    3.437515   -3.033174
     48          1           0       -0.887048    2.540645   -3.143868
     49          1           0       -0.112825    3.871052   -4.023640
     50          6           0        1.068219    2.995420   -2.452488
     51          8           0        1.473448    3.304910   -1.320780
     52          7           0        1.802552    2.193766   -3.248131
     53          1           0        1.467429    2.003990   -4.181826
     54          6           0        3.008446    1.534588   -2.778903
     55          1           0        3.218603    0.677580   -3.421730
     56          1           0        2.842523    1.154227   -1.767832
     57          6           0        4.279709    2.379749   -2.717739
     58          8           0        5.321661    1.854405   -2.316509
     59          7           0        4.201484    3.671317   -3.100281
     60          1           0        3.345020    4.083497   -3.471947
     61          6           0        5.409945    4.477010   -3.120150
     62          1           0        6.227320    3.894610   -3.555812
     63          1           0        5.252514    5.365102   -3.729493
     64          6           0        5.824243    4.937647   -1.719841
     65          8           0        5.550834    6.070796   -1.275882
     66          7           0        6.512093    4.042752   -0.995620
     67          1           0        6.599790    3.102195   -1.373479
     68          6           0        7.150708    4.435537    0.243771
     69          1           0        6.423125    4.884503    0.926618
     70          1           0        7.572722    3.546195    0.715707
     71          6           0        8.294589    5.402293   -0.085580
     72          8           0        9.107103    5.125222   -0.967569
     73          7           0        8.339721    6.558798    0.618259
     74          1           0        7.532459    6.824089    1.163139
     75          6           0        9.323679    7.591082    0.301494
     76          1           0       10.284475    7.099742    0.129641
     77          1           0        9.410558    8.277611    1.142416
     78          6           0        8.916071    8.410733   -0.931933
     79          8           0        8.635445    9.609722   -0.846611
     80          7           0        8.864139    7.706051   -2.085985
     81          1           0        9.068677    6.709278   -2.039423
     82          6           0        8.401772    8.295417   -3.333985
     83          1           0        8.911040    9.251388   -3.492314
     84          1           0        8.645431    7.617168   -4.150557
     85          6           0        6.880171    8.500057   -3.324665
     86          8           0        6.108127    7.731179   -3.892836
     87          7           0        6.480713    9.604647   -2.629741
     88          1           0        7.203347   10.008735   -2.029966
     89          6           0        5.097084    9.781736   -2.224675
     90          1           0        5.077894   10.445723   -1.356488
     91          1           0        4.652029    8.832945   -1.919483
     92          6           0        4.158617   10.397553   -3.261413
     93          8           0        2.950959   10.458440   -3.052257
     94          7           0        4.740256   10.892765   -4.382874
     95          1           0        5.735528   10.777948   -4.501303
     96          6           0        3.958094   11.583631   -5.370169
     97          1           0        4.597765   12.227116   -5.978814
     98          1           0        3.222353   12.226212   -4.874171
     99          6           0        3.172571   10.670248   -6.300023
    100          8           0        3.094791    9.460521   -6.224705
    101          8           0        2.546348   11.397989   -7.235737
    102          1           0        2.055512   10.792588   -7.816099
 ---------------------------------------------------------------------

 SCF Done:  E(RB3LYP) =  -2989.38940910     A.U. after    1 cycles

 Alpha  occ. eigenvalues --  -19.30769 -19.25826 -19.23646 -19.23578 -19.23030
 Alpha  occ. eigenvalues --  -19.22690 -19.22520 -19.22079 -19.21809 -19.21463
 Alpha  occ. eigenvalues --  -19.21382 -19.21040 -19.20776 -19.20632 -19.19621
 Alpha  occ. eigenvalues --  -14.52439 -14.47036 -14.46964 -14.46314 -14.46293
 Alpha  occ. eigenvalues --  -14.46227 -14.46147 -14.46052 -14.45855 -14.45805
 Alpha  occ. eigenvalues --  -14.45324 -14.45215 -14.44965 -14.44692 -10.43600
 Alpha  occ. eigenvalues --  -10.40663 -10.39814 -10.39303 -10.39287 -10.39247
 Alpha  occ. eigenvalues --  -10.39100 -10.38668 -10.38655 -10.38498 -10.38285
 Alpha  occ. eigenvalues --  -10.38278 -10.37949 -10.37245 -10.35885 -10.33984
 Alpha  occ. eigenvalues --  -10.33324 -10.32767 -10.32551 -10.32356 -10.32305
 Alpha  occ. eigenvalues --  -10.32268 -10.32166 -10.32075 -10.32067 -10.31856
 Alpha  occ. eigenvalues --  -10.31480 -10.31460  -1.22023  -1.15823  -1.15072
 Alpha  occ. eigenvalues --   -1.14735  -1.14351  -1.14173  -1.13911  -1.13690
 Alpha  occ. eigenvalues --   -1.13304  -1.13262  -1.12893  -1.12760  -1.12596
 Alpha  occ. eigenvalues --   -1.12463  -1.11788  -1.07983  -1.03535  -1.03363
 Alpha  occ. eigenvalues --   -1.03302  -1.02982  -1.02968  -1.02818  -1.02540
 Alpha  occ. eigenvalues --   -1.02182  -1.01772  -1.01097  -1.01040  -1.00999
 Alpha  occ. eigenvalues --   -1.00497  -0.87464  -0.87169  -0.86603  -0.86048
 Alpha  occ. eigenvalues --   -0.85558  -0.84626  -0.84047  -0.82539  -0.81897
 Alpha  occ. eigenvalues --   -0.80520  -0.79683  -0.78813  -0.78264  -0.77616
 Alpha  occ. eigenvalues --   -0.73251  -0.71191  -0.70940  -0.70290  -0.69509
 Alpha  occ. eigenvalues --   -0.69292  -0.68871  -0.68474  -0.68270  -0.68219
 Alpha  occ. eigenvalues --   -0.68020  -0.67761  -0.67498  -0.67009  -0.66859
 Alpha  occ. eigenvalues --   -0.66618  -0.64563  -0.64185  -0.63670  -0.63311
 Alpha  occ. eigenvalues --   -0.63021  -0.62819  -0.62379  -0.61671  -0.61580
 Alpha  occ. eigenvalues --   -0.61177  -0.61023  -0.60784  -0.60308  -0.59646
 Alpha  occ. eigenvalues --   -0.59276  -0.58725  -0.58524  -0.58088  -0.58065
 Alpha  occ. eigenvalues --   -0.57664  -0.57242  -0.57206  -0.56726  -0.56574
 Alpha  occ. eigenvalues --   -0.56185  -0.55663  -0.55581  -0.55106  -0.54765
 Alpha  occ. eigenvalues --   -0.54361  -0.53987  -0.53789  -0.53601  -0.53327
 Alpha  occ. eigenvalues --   -0.53254  -0.52841  -0.52652  -0.52231  -0.52080
 Alpha  occ. eigenvalues --   -0.51938  -0.51699  -0.51510  -0.51320  -0.51017
 Alpha  occ. eigenvalues --   -0.50884  -0.50602  -0.50347  -0.50320  -0.50189
 Alpha  occ. eigenvalues --   -0.49980  -0.49767  -0.49628  -0.49598  -0.49091
 Alpha  occ. eigenvalues --   -0.49034  -0.48782  -0.48583  -0.48306  -0.48123
 Alpha  occ. eigenvalues --   -0.47584  -0.47162  -0.46851  -0.46762  -0.46617
 Alpha  occ. eigenvalues --   -0.46351  -0.46069  -0.45480  -0.45186  -0.44832
 Alpha  occ. eigenvalues --   -0.44664  -0.44392  -0.43311  -0.39883  -0.38896
 Alpha  occ. eigenvalues --   -0.38574  -0.38247  -0.38140  -0.38052  -0.37933
 Alpha  occ. eigenvalues --   -0.37805  -0.37595  -0.37375  -0.37333  -0.37227
 Alpha  occ. eigenvalues --   -0.37013  -0.36822  -0.35950  -0.35621  -0.35126
 Alpha  occ. eigenvalues --   -0.34862  -0.34737  -0.34573  -0.34337  -0.34128
 Alpha  occ. eigenvalues --   -0.33902  -0.33734  -0.33484  -0.33203  -0.32626
 Alpha virt. eigenvalues --   -0.10231  -0.09792  -0.09740  -0.09636  -0.08954
 Alpha virt. eigenvalues --   -0.08856  -0.08422  -0.08048  -0.07644  -0.07049
 Alpha virt. eigenvalues --   -0.06909  -0.06676  -0.06599  -0.05850  -0.04641

 Mulliken charges:
               1
     1  N   -0.605386
     2  H    0.387675
     3  H    0.396476
     4  H    0.320270
     5  C   -0.189654
     6  H    0.183651
     7  H    0.176556
     8  C    0.627786
     9  O   -0.568966
    10  N   -0.549125
    11  H    0.342079
    12  C   -0.175578
    13  H    0.197469
    14  H    0.171718
    15  C    0.613422
    16  O   -0.561896
    17  N   -0.546760
    18  H    0.301314
    19  C   -0.128867
    20  H    0.142288
    21  H    0.164201
    22  C    0.594690
    23  O   -0.504678
    24  N   -0.537180
    25  H    0.263291
    26  C   -0.114175
    27  H    0.164868
    28  H    0.191594
    29  C    0.570654
    30  O   -0.532284
    31  N   -0.526343
    32  H    0.293114
    33  C   -0.121163
    34  H    0.153871
    35  H    0.173738
    36  C    0.576888
    37  O   -0.576786
    38  N   -0.498868
    39  H    0.315923
    40  C   -0.147213
    41  H    0.155565
    42  H    0.173429
    43  C    0.566386
    44  O   -0.494220
    45  N   -0.546453
    46  H    0.294069
    47  C   -0.157975
    48  H    0.179425
    49  H    0.181175
    50  C    0.633327
    51  O   -0.581316
    52  N   -0.522223
    53  H    0.296084
    54  C   -0.123648
    55  H    0.162722
    56  H    0.177753
    57  C    0.599881
    58  O   -0.542480
    59  N   -0.543226
    60  H    0.333607
    61  C   -0.157224
    62  H    0.155373
    63  H    0.156536
    64  C    0.608998
    65  O   -0.586603
    66  N   -0.476121
    67  H    0.315350
    68  C   -0.123715
    69  H    0.119397
    70  H    0.167314
    71  C    0.607667
    72  O   -0.529771
    73  N   -0.502529
    74  H    0.280094
    75  C   -0.140698
    76  H    0.173065
    77  H    0.154806
    78  C    0.584006
    79  O   -0.534563
    80  N   -0.507565
    81  H    0.312541
    82  C   -0.132995
    83  H    0.149073
    84  H    0.149392
    85  C    0.565403
    86  O   -0.513961
    87  N   -0.542106
    88  H    0.312016
    89  C   -0.129334
    90  H    0.158389
    91  H    0.146208
    92  C    0.607852
    93  O   -0.539956
    94  N   -0.499423
    95  H    0.283922
    96  C   -0.130057
    97  H    0.165127
    98  H    0.189593
    99  C    0.592862
   100  O   -0.470534
   101  O   -0.450950
   102  H    0.332628
 Sum of Mulliken charges =   1.00000

 Dipole moment (field-independent basis, Debye):
    X=             17.6829    Y=             36.0453    Z=            -14.0291  Tot=             42.5296
 Quadrupole moment (field-independent basis, Debye-Ang):
   XX=           -226.2320   YY=            -28.0690   ZZ=           -206.7531
   XY=            132.6002   XZ=            -32.8859   YZ=           -132.1174

 Normal termination of Gaussian 16 at Tue Sep  6 12:23:02 2022.
