 Gaussian 16, Revision C.01,
 Gaussian 16:  ES64L-G16RevC.01  3-Jul-2019

 ----------------------------------------------------------------------
 # B3LYP/6-31G** empiricaldispersion=gd3bj guess=read geom=check nosymm
  integral(ultrafinegrid)
 ----------------------------------------------------------------------

 ------------------------------------------------------
 Candidate Structure: Conf:242 Charge calc in gas phase
 ------------------------------------------------------
 Structure from the checkpoint file:  "conf-242.chk"
 Charge =  1 Multiplicity = 1

                          Input orientation:
 ---------------------------------------------------------------------
 Center     Atomic      Atomic             Coordinates (Angstroms)
 Number     Number       Type             X           Y           Z
 ---------------------------------------------------------------------
      1          7           0        5.011561    8.501643    7.238402
      2          1           0        4.460011    8.680652    8.077347
      3          1           0        5.427440    9.395156    6.889409
      4          1           0        5.792119    7.827866    7.500665
      5          6           0        4.180428    8.031952    6.088711
      6          1           0        4.378219    6.984227    5.866698
      7          1           0        3.121379    8.144757    6.326517
      8          6           0        4.551130    8.950078    4.907454
      9          8           0        5.310817    9.901758    5.121506
     10          7           0        3.971851    8.649414    3.740853
     11          1           0        3.497722    7.749654    3.661201
     12          6           0        4.052506    9.497630    2.563172
     13          1           0        4.836326   10.242035    2.729138
     14          1           0        3.108129   10.021884    2.396573
     15          6           0        4.345371    8.712550    1.287529
     16          8           0        3.749142    8.968237    0.239087
     17          7           0        5.302279    7.759865    1.354054
     18          1           0        5.731736    7.472935    2.229957
     19          6           0        5.636019    7.031729    0.148996
     20          1           0        6.024414    7.711826   -0.615930
     21          1           0        6.416437    6.308280    0.393574
     22          6           0        4.423079    6.274520   -0.381856
     23          8           0        3.708940    5.574999    0.359537
     24          7           0        4.123760    6.381402   -1.681492
     25          1           0        4.628205    7.037520   -2.259919
     26          6           0        2.944904    5.691891   -2.196517
     27          1           0        2.867517    5.884773   -3.268433
     28          1           0        3.046489    4.615550   -2.039747
     29          6           0        1.637018    6.104512   -1.505667
     30          8           0        0.703494    5.304612   -1.455208
     31          7           0        1.573496    7.349967   -0.984011
     32          1           0        2.399751    7.934483   -0.928104
     33          6           0        0.373354    7.793728   -0.292441
     34          1           0        0.511315    8.843434   -0.022901
     35          1           0       -0.495865    7.720045   -0.948448
     36          6           0        0.004060    7.003251    0.971281
     37          8           0       -1.144163    7.009836    1.384235
     38          7           0        1.030079    6.347219    1.596227
     39          1           0        1.940164    6.330909    1.154390
     40          6           0        0.765116    5.375575    2.638975
     41          1           0        1.268648    5.628637    3.572175
     42          1           0       -0.315569    5.384270    2.813552
     43          6           0        1.196941    3.955174    2.277031
     44          8           0        1.504304    3.148297    3.164214
     45          7           0        1.210831    3.654249    0.961552
     46          1           0        0.911591    4.341041    0.274768
     47          6           0        1.442356    2.302845    0.477768
     48          1           0        0.809344    1.600044    1.029684
     49          1           0        1.173720    2.280339   -0.577521
     50          6           0        2.905186    1.843095    0.571177
     51          8           0        3.639188    1.821812   -0.425390
     52          7           0        3.286836    1.417428    1.796609
     53          1           0        2.690997    1.708776    2.571962
     54          6           0        4.555436    0.748050    2.047711
     55          1           0        4.716604    0.001804    1.262772
     56          1           0        4.496683    0.241241    3.010214
     57          6           0        5.762883    1.690973    2.091753
     58          8           0        6.382009    1.906786    3.145393
     59          7           0        6.070226    2.240044    0.904360
     60          1           0        5.399822    2.067331    0.149377
     61          6           0        6.980905    3.356114    0.785547
     62          1           0        7.233832    3.476938   -0.271083
     63          1           0        6.491321    4.269620    1.142318
     64          6           0        8.287769    3.130637    1.548272
     65          8           0        9.005143    2.162037    1.371953
     66          7           0        8.589114    4.150387    2.413152
     67          1           0        7.902360    4.873459    2.590691
     68          6           0        9.761629    4.093317    3.248379
     69          1           0       10.444764    3.363351    2.800132
     70          1           0       10.272994    5.058199    3.291061
     71          6           0        9.509570    3.658283    4.689587
     72          8           0       10.229489    4.102643    5.603642
     73          7           0        8.507462    2.787908    4.915050
     74          1           0        7.918601    2.458812    4.145736
     75          6           0        8.340123    2.167607    6.229463
     76          1           0        9.287435    1.728394    6.556268
     77          1           0        7.589913    1.383668    6.132330
     78          6           0        7.824118    3.185975    7.251221
     79          8           0        6.626905    3.478373    7.328666
     80          7           0        8.758585    3.813427    8.011035
     81          1           0        9.720352    3.711000    7.706873
     82          6           0        8.371269    5.020421    8.723372
     83          1           0        7.582132    4.805569    9.444313
     84          1           0        9.238497    5.411891    9.260654
     85          6           0        7.812434    6.090153    7.773876
     86          8           0        6.873769    6.821234    8.129837
     87          7           0        8.382218    6.139442    6.556047
     88          1           0        9.137682    5.484695    6.336992
     89          6           0        7.827020    6.866090    5.435002
     90          1           0        8.624126    7.107349    4.730979
     91          1           0        7.396409    7.816180    5.764627
     92          6           0        6.767508    6.079176    4.647399
     93          8           0        6.651408    6.274288    3.423989
     94          7           0        5.988221    5.239227    5.340544
     95          1           0        6.250582    4.960933    6.284294
     96          6           0        5.082215    4.283344    4.705550
     97          1           0        4.386852    3.932377    5.470727
     98          1           0        5.629592    3.427803    4.308782
     99          6           0        4.289902    4.951202    3.602518
    100          8           0        3.602769    5.948341    3.800707
    101          8           0        4.418532    4.338034    2.453179
    102          1           0        4.030003    4.868739    1.691064
 ---------------------------------------------------------------------

 SCF Done:  E(RB3LYP) =  -2989.39705916     A.U. after    3 cycles

 Alpha  occ. eigenvalues --  -19.28260 -19.26349 -19.26218 -19.25848 -19.25746
 Alpha  occ. eigenvalues --  -19.24766 -19.23916 -19.23804 -19.22985 -19.21355
 Alpha  occ. eigenvalues --  -19.20828 -19.20452 -19.19763 -19.19645 -19.18277
 Alpha  occ. eigenvalues --  -14.56383 -14.49732 -14.49323 -14.48981 -14.48979
 Alpha  occ. eigenvalues --  -14.47875 -14.47792 -14.46946 -14.45157 -14.44957
 Alpha  occ. eigenvalues --  -14.44276 -14.43911 -14.43671 -14.43213 -10.43068
 Alpha  occ. eigenvalues --  -10.43046 -10.42829 -10.42620 -10.42523 -10.40877
 Alpha  occ. eigenvalues --  -10.40681 -10.39772 -10.38409 -10.38086 -10.37782
 Alpha  occ. eigenvalues --  -10.37482 -10.37012 -10.36540 -10.36459 -10.35881
 Alpha  occ. eigenvalues --  -10.35684 -10.34972 -10.34584 -10.33781 -10.33566
 Alpha  occ. eigenvalues --  -10.33114 -10.32333 -10.32008 -10.31153 -10.30683
 Alpha  occ. eigenvalues --  -10.30393 -10.29584  -1.20800  -1.18281  -1.17935
 Alpha  occ. eigenvalues --   -1.17840  -1.16981  -1.15838  -1.15525  -1.14446
 Alpha  occ. eigenvalues --   -1.13019  -1.12931  -1.11996  -1.11805  -1.11600
 Alpha  occ. eigenvalues --   -1.11143  -1.11042  -1.10327  -1.06816  -1.06061
 Alpha  occ. eigenvalues --   -1.05628  -1.05290  -1.04004  -1.03690  -1.03146
 Alpha  occ. eigenvalues --   -1.01493  -1.01451  -1.01044  -1.00614  -1.00073
 Alpha  occ. eigenvalues --   -0.98519  -0.89702  -0.89310  -0.87523  -0.86985
 Alpha  occ. eigenvalues --   -0.85638  -0.84638  -0.84364  -0.83328  -0.82374
 Alpha  occ. eigenvalues --   -0.81610  -0.80700  -0.79567  -0.78122  -0.76524
 Alpha  occ. eigenvalues --   -0.75253  -0.73127  -0.72629  -0.71904  -0.71621
 Alpha  occ. eigenvalues --   -0.71288  -0.70889  -0.70726  -0.69497  -0.69183
 Alpha  occ. eigenvalues --   -0.68480  -0.68310  -0.67415  -0.67343  -0.66888
 Alpha  occ. eigenvalues --   -0.66225  -0.65942  -0.65197  -0.65018  -0.64677
 Alpha  occ. eigenvalues --   -0.64072  -0.63524  -0.63036  -0.62310  -0.62001
 Alpha  occ. eigenvalues --   -0.61914  -0.61515  -0.61219  -0.60823  -0.60450
 Alpha  occ. eigenvalues --   -0.60092  -0.59630  -0.59461  -0.59004  -0.58881
 Alpha  occ. eigenvalues --   -0.58505  -0.57950  -0.57555  -0.57204  -0.56952
 Alpha  occ. eigenvalues --   -0.56673  -0.56390  -0.56002  -0.55914  -0.55738
 Alpha  occ. eigenvalues --   -0.55558  -0.55109  -0.54985  -0.54858  -0.54529
 Alpha  occ. eigenvalues --   -0.54226  -0.53979  -0.53844  -0.52906  -0.52815
 Alpha  occ. eigenvalues --   -0.52661  -0.52533  -0.52356  -0.52234  -0.51961
 Alpha  occ. eigenvalues --   -0.51547  -0.51457  -0.51387  -0.51136  -0.50437
 Alpha  occ. eigenvalues --   -0.50407  -0.49932  -0.49856  -0.49750  -0.49545
 Alpha  occ. eigenvalues --   -0.49416  -0.49160  -0.48595  -0.48412  -0.48217
 Alpha  occ. eigenvalues --   -0.48162  -0.47934  -0.47374  -0.46940  -0.46826
 Alpha  occ. eigenvalues --   -0.46308  -0.46080  -0.45830  -0.45363  -0.44815
 Alpha  occ. eigenvalues --   -0.44155  -0.43006  -0.42091  -0.41773  -0.41587
 Alpha  occ. eigenvalues --   -0.40852  -0.40524  -0.40244  -0.39823  -0.39418
 Alpha  occ. eigenvalues --   -0.39260  -0.38626  -0.38271  -0.38063  -0.37570
 Alpha  occ. eigenvalues --   -0.37210  -0.37067  -0.36788  -0.36256  -0.35758
 Alpha  occ. eigenvalues --   -0.35704  -0.35074  -0.34748  -0.34425  -0.33986
 Alpha  occ. eigenvalues --   -0.33341  -0.32786  -0.32346  -0.31892  -0.31493
 Alpha virt. eigenvalues --   -0.13410  -0.12041  -0.11781  -0.11195  -0.10401
 Alpha virt. eigenvalues --   -0.10142  -0.10072  -0.09403  -0.08005  -0.07725
 Alpha virt. eigenvalues --   -0.07475  -0.06652  -0.06196  -0.05789  -0.04379

 Mulliken charges:
               1
     1  N   -0.591400
     2  H    0.340600
     3  H    0.347560
     4  H    0.397910
     5  C   -0.193170
     6  H    0.206608
     7  H    0.193921
     8  C    0.588778
     9  O   -0.526863
    10  N   -0.539742
    11  H    0.331757
    12  C   -0.116023
    13  H    0.185344
    14  H    0.169130
    15  C    0.579193
    16  O   -0.544485
    17  N   -0.510082
    18  H    0.316107
    19  C   -0.132557
    20  H    0.144127
    21  H    0.155449
    22  C    0.626819
    23  O   -0.583181
    24  N   -0.509402
    25  H    0.295210
    26  C   -0.131465
    27  H    0.163766
    28  H    0.187654
    29  C    0.589807
    30  O   -0.530044
    31  N   -0.536012
    32  H    0.303821
    33  C   -0.127801
    34  H    0.147529
    35  H    0.177633
    36  C    0.579705
    37  O   -0.496430
    38  N   -0.571511
    39  H    0.288118
    40  C   -0.110067
    41  H    0.136034
    42  H    0.183118
    43  C    0.573305
    44  O   -0.567225
    45  N   -0.524596
    46  H    0.323102
    47  C   -0.126410
    48  H    0.148949
    49  H    0.156532
    50  C    0.578728
    51  O   -0.543610
    52  N   -0.499611
    53  H    0.307249
    54  C   -0.146950
    55  H    0.162116
    56  H    0.144658
    57  C    0.621183
    58  O   -0.567409
    59  N   -0.490051
    60  H    0.310520
    61  C   -0.123188
    62  H    0.144844
    63  H    0.103775
    64  C    0.591312
    65  O   -0.492490
    66  N   -0.565717
    67  H    0.290567
    68  C   -0.123620
    69  H    0.195797
    70  H    0.135618
    71  C    0.564090
    72  O   -0.572007
    73  N   -0.518808
    74  H    0.346167
    75  C   -0.118511
    76  H    0.151187
    77  H    0.168402
    78  C    0.569042
    79  O   -0.535763
    80  N   -0.492870
    81  H    0.299813
    82  C   -0.124619
    83  H    0.184289
    84  H    0.167550
    85  C    0.577003
    86  O   -0.573565
    87  N   -0.506639
    88  H    0.322184
    89  C   -0.146815
    90  H    0.169787
    91  H    0.148245
    92  C    0.578551
    93  O   -0.573749
    94  N   -0.524023
    95  H    0.326657
    96  C   -0.136452
    97  H    0.170045
    98  H    0.194455
    99  C    0.630579
   100  O   -0.540469
   101  O   -0.507366
   102  H    0.400766
 Sum of Mulliken charges =   1.00000

 Dipole moment (field-independent basis, Debye):
    X=             30.7600    Y=             33.5006    Z=             21.6883  Tot=             50.3870
 Quadrupole moment (field-independent basis, Debye-Ang):
   XX=           -145.0121   YY=            -69.5564   ZZ=           -133.9024
   XY=            204.9840   XZ=            151.2892   YZ=            143.2965

 Normal termination of Gaussian 16 at Tue Sep  6 12:25:16 2022.
