 Gaussian 16, Revision C.01,
 Gaussian 16:  ES64L-G16RevC.01  3-Jul-2019

 ----------------------------------------------------------------------
 # B3LYP/6-31G** empiricaldispersion=gd3bj guess=read geom=check nosymm
  integral(ultrafinegrid)
 ----------------------------------------------------------------------

 ------------------------------------------------------
 Candidate Structure: Conf:578 Charge calc in gas phase
 ------------------------------------------------------
 Structure from the checkpoint file:  "conf-578.chk"
 Charge =  1 Multiplicity = 1

                          Input orientation:
 ---------------------------------------------------------------------
 Center     Atomic      Atomic             Coordinates (Angstroms)
 Number     Number       Type             X           Y           Z
 ---------------------------------------------------------------------
      1          7           0       -1.365687    7.008976    3.609480
      2          1           0       -0.516632    6.738070    3.046755
      3          1           0       -1.170883    7.731550    4.302669
      4          1           0       -2.045800    7.445700    2.940593
      5          6           0       -1.941762    5.792984    4.263305
      6          1           0       -1.813668    4.958278    3.577796
      7          1           0       -1.391629    5.600519    5.186449
      8          6           0       -3.414109    6.075615    4.562639
      9          8           0       -3.731374    7.112701    5.145010
     10          7           0       -4.265292    5.145312    4.085365
     11          1           0       -3.892158    4.465873    3.418797
     12          6           0       -5.687666    5.451003    3.958109
     13          1           0       -6.056924    5.883387    4.889218
     14          1           0       -6.228668    4.532596    3.733884
     15          6           0       -5.805292    6.415494    2.776445
     16          8           0       -5.784266    6.032208    1.607992
     17          7           0       -5.802256    7.736610    3.112530
     18          1           0       -5.461256    7.963850    4.041085
     19          6           0       -5.538947    8.684368    2.047225
     20          1           0       -6.309406    8.592005    1.279017
     21          1           0       -5.573101    9.696058    2.457380
     22          6           0       -4.141747    8.454116    1.472629
     23          8           0       -3.151465    8.464126    2.217925
     24          7           0       -4.044761    8.264582    0.145648
     25          1           0       -4.894319    8.144980   -0.386918
     26          6           0       -2.760527    8.150731   -0.518409
     27          1           0       -2.863893    8.476262   -1.555199
     28          1           0       -2.056601    8.826112   -0.027425
     29          6           0       -2.083768    6.776621   -0.552420
     30          8           0       -1.018145    6.692380   -1.153133
     31          7           0       -2.694165    5.739524    0.077519
     32          1           0       -3.622771    5.838510    0.474186
     33          6           0       -2.123379    4.409408   -0.041527
     34          1           0       -2.731439    3.790835   -0.716595
     35          1           0       -1.131177    4.511499   -0.476373
     36          6           0       -2.082762    3.679316    1.290357
     37          8           0       -3.052312    3.703630    2.061002
     38          7           0       -0.971793    2.955641    1.538275
     39          1           0       -0.141138    3.139082    0.974189
     40          6           0       -0.853513    2.103897    2.711631
     41          1           0       -0.425600    2.632465    3.568220
     42          1           0       -1.858190    1.776924    2.994642
     43          6           0        0.051091    0.890829    2.476860
     44          8           0        0.691742    0.396286    3.390126
     45          7           0        0.049238    0.407725    1.196447
     46          1           0       -0.492388    0.921570    0.516627
     47          6           0        1.110021   -0.470807    0.728884
     48          1           0        1.404612   -1.126608    1.546179
     49          1           0        0.745598   -1.073578   -0.108166
     50          6           0        2.346261    0.343381    0.319316
     51          8           0        3.437066    0.174151    0.859813
     52          7           0        2.127812    1.255019   -0.665508
     53          1           0        1.165361    1.431359   -0.926989
     54          6           0        2.949134    2.434480   -0.833103
     55          1           0        3.381594    2.485882   -1.839635
     56          1           0        3.764587    2.417101   -0.112378
     57          6           0        2.071684    3.663492   -0.592948
     58          8           0        0.838835    3.552541   -0.606340
     59          7           0        2.709334    4.833364   -0.408151
     60          1           0        3.703490    4.797746   -0.187979
     61          6           0        1.953074    6.010525    0.005257
     62          1           0        2.595463    6.889122   -0.098913
     63          1           0        1.066299    6.139488   -0.616395
     64          6           0        1.475232    5.877643    1.455099
     65          8           0        0.288805    6.095347    1.758565
     66          7           0        2.404646    5.493205    2.349782
     67          1           0        3.345291    5.314437    2.000044
     68          6           0        2.046260    4.747757    3.545577
     69          1           0        2.520322    5.171872    4.428667
     70          1           0        0.959943    4.785022    3.649470
     71          6           0        2.459181    3.288047    3.299154
     72          8           0        2.152655    2.745879    2.235322
     73          7           0        3.156829    2.706603    4.298665
     74          1           0        3.605282    3.349526    4.943867
     75          6           0        3.858667    1.432753    4.104767
     76          1           0        3.257998    0.796774    3.455473
     77          1           0        4.002774    0.954135    5.073146
     78          6           0        5.211112    1.826339    3.506044
     79          8           0        6.127754    2.257134    4.211900
     80          7           0        5.229490    1.861250    2.153292
     81          1           0        4.509054    1.364154    1.624937
     82          6           0        6.230318    2.636174    1.446920
     83          1           0        7.240680    2.343863    1.748115
     84          1           0        6.120225    2.466695    0.375550
     85          6           0        5.981753    4.121617    1.742334
     86          8           0        5.144868    4.798480    1.121578
     87          7           0        6.725096    4.598634    2.761075
     88          1           0        7.115020    3.876229    3.364055
     89          6           0        6.526729    5.911918    3.334754
     90          1           0        5.935593    6.496726    2.625485
     91          1           0        7.492475    6.407855    3.472231
     92          6           0        5.751674    5.817556    4.651719
     93          8           0        4.703572    5.173919    4.735486
     94          7           0        6.283495    6.483868    5.691463
     95          1           0        7.172321    6.967500    5.629258
     96          6           0        5.676577    6.466714    7.003226
     97          1           0        5.536990    5.440893    7.362956
     98          1           0        4.686396    6.936796    6.997895
     99          6           0        6.586073    7.219219    7.953418
    100          8           0        7.635343    7.726652    7.622116
    101          8           0        6.081210    7.249440    9.193268
    102          1           0        6.709877    7.736096    9.754254
 ---------------------------------------------------------------------

 SCF Done:  E(RB3LYP) =  -2989.37471419     A.U. after    3 cycles

 Alpha  occ. eigenvalues --  -19.29283 -19.23943 -19.23404 -19.23359 -19.22837
 Alpha  occ. eigenvalues --  -19.22338 -19.22113 -19.22056 -19.21858 -19.21421
 Alpha  occ. eigenvalues --  -19.20942 -19.20852 -19.19670 -19.19651 -19.19236
 Alpha  occ. eigenvalues --  -14.53126 -14.47761 -14.46637 -14.46066 -14.46043
 Alpha  occ. eigenvalues --  -14.45870 -14.45473 -14.45445 -14.45405 -14.44937
 Alpha  occ. eigenvalues --  -14.44850 -14.44696 -14.44460 -14.43397 -10.42145
 Alpha  occ. eigenvalues --  -10.40281 -10.39699 -10.39605 -10.39261 -10.39247
 Alpha  occ. eigenvalues --  -10.38859 -10.38645 -10.38230 -10.37917 -10.37730
 Alpha  occ. eigenvalues --  -10.37521 -10.36961 -10.36467 -10.35443 -10.33440
 Alpha  occ. eigenvalues --  -10.32979 -10.32895 -10.32542 -10.32198 -10.32101
 Alpha  occ. eigenvalues --  -10.31995 -10.31852 -10.31730 -10.31421 -10.30988
 Alpha  occ. eigenvalues --  -10.30650 -10.29885  -1.20482  -1.15394  -1.14834
 Alpha  occ. eigenvalues --   -1.14423  -1.14340  -1.13872  -1.13581  -1.13549
 Alpha  occ. eigenvalues --   -1.13034  -1.12788  -1.12401  -1.11793  -1.11664
 Alpha  occ. eigenvalues --   -1.11310  -1.11135  -1.08280  -1.03817  -1.03377
 Alpha  occ. eigenvalues --   -1.02922  -1.02777  -1.02602  -1.02296  -1.01821
 Alpha  occ. eigenvalues --   -1.01604  -1.01463  -1.01170  -1.00532  -1.00046
 Alpha  occ. eigenvalues --   -0.99785  -0.87131  -0.87055  -0.86290  -0.85704
 Alpha  occ. eigenvalues --   -0.84873  -0.84231  -0.83290  -0.82259  -0.81354
 Alpha  occ. eigenvalues --   -0.80229  -0.79233  -0.78358  -0.77299  -0.76698
 Alpha  occ. eigenvalues --   -0.72044  -0.70837  -0.70463  -0.69647  -0.69353
 Alpha  occ. eigenvalues --   -0.69000  -0.68387  -0.68075  -0.67974  -0.67566
 Alpha  occ. eigenvalues --   -0.67279  -0.67124  -0.66964  -0.66575  -0.66187
 Alpha  occ. eigenvalues --   -0.65979  -0.64533  -0.64005  -0.63497  -0.63128
 Alpha  occ. eigenvalues --   -0.63013  -0.62498  -0.61468  -0.61168  -0.60356
 Alpha  occ. eigenvalues --   -0.59933  -0.59406  -0.59237  -0.58921  -0.58775
 Alpha  occ. eigenvalues --   -0.58607  -0.58346  -0.57972  -0.57908  -0.57559
 Alpha  occ. eigenvalues --   -0.57382  -0.57097  -0.56960  -0.56781  -0.56250
 Alpha  occ. eigenvalues --   -0.56117  -0.55624  -0.55419  -0.54977  -0.54721
 Alpha  occ. eigenvalues --   -0.54254  -0.53971  -0.53559  -0.53209  -0.52875
 Alpha  occ. eigenvalues --   -0.52677  -0.52593  -0.52496  -0.52208  -0.51943
 Alpha  occ. eigenvalues --   -0.51796  -0.51313  -0.51105  -0.50956  -0.50735
 Alpha  occ. eigenvalues --   -0.50484  -0.50213  -0.49865  -0.49709  -0.49474
 Alpha  occ. eigenvalues --   -0.49182  -0.48936  -0.48613  -0.48418  -0.48338
 Alpha  occ. eigenvalues --   -0.48046  -0.47774  -0.47654  -0.47562  -0.47386
 Alpha  occ. eigenvalues --   -0.47070  -0.46990  -0.46743  -0.46486  -0.46264
 Alpha  occ. eigenvalues --   -0.46001  -0.45635  -0.45310  -0.45006  -0.44535
 Alpha  occ. eigenvalues --   -0.44470  -0.43935  -0.41541  -0.39099  -0.38874
 Alpha  occ. eigenvalues --   -0.38393  -0.38312  -0.37718  -0.37580  -0.37352
 Alpha  occ. eigenvalues --   -0.37304  -0.37046  -0.36597  -0.36478  -0.36396
 Alpha  occ. eigenvalues --   -0.36125  -0.36003  -0.35759  -0.35548  -0.35220
 Alpha  occ. eigenvalues --   -0.35018  -0.34517  -0.34097  -0.33895  -0.33562
 Alpha  occ. eigenvalues --   -0.33151  -0.33119  -0.32917  -0.32376  -0.32120
 Alpha virt. eigenvalues --   -0.10197  -0.09989  -0.09738  -0.09574  -0.08649
 Alpha virt. eigenvalues --   -0.08520  -0.07899  -0.07623  -0.07538  -0.07305
 Alpha virt. eigenvalues --   -0.06815  -0.05863  -0.05456  -0.05080  -0.03859

 Mulliken charges:
               1
     1  N   -0.579135
     2  H    0.364288
     3  H    0.330857
     4  H    0.385093
     5  C   -0.184857
     6  H    0.175270
     7  H    0.172457
     8  C    0.580705
     9  O   -0.527732
    10  N   -0.518791
    11  H    0.337793
    12  C   -0.133684
    13  H    0.153520
    14  H    0.160597
    15  C    0.565790
    16  O   -0.524485
    17  N   -0.481427
    18  H    0.301261
    19  C   -0.125676
    20  H    0.143717
    21  H    0.160593
    22  C    0.599906
    23  O   -0.571412
    24  N   -0.506180
    25  H    0.294759
    26  C   -0.135788
    27  H    0.163642
    28  H    0.170290
    29  C    0.605704
    30  O   -0.515973
    31  N   -0.551380
    32  H    0.294894
    33  C   -0.130027
    34  H    0.148247
    35  H    0.197253
    36  C    0.593804
    37  O   -0.571092
    38  N   -0.570779
    39  H    0.332236
    40  C   -0.105572
    41  H    0.129909
    42  H    0.167073
    43  C    0.610215
    44  O   -0.513881
    45  N   -0.521661
    46  H    0.262060
    47  C   -0.147470
    48  H    0.181819
    49  H    0.144796
    50  C    0.617883
    51  O   -0.532576
    52  N   -0.493507
    53  H    0.266052
    54  C   -0.124340
    55  H    0.158998
    56  H    0.140037
    57  C    0.631038
    58  O   -0.562099
    59  N   -0.527646
    60  H    0.305935
    61  C   -0.168440
    62  H    0.148060
    63  H    0.218449
    64  C    0.596959
    65  O   -0.577024
    66  N   -0.491286
    67  H    0.306534
    68  C   -0.129412
    69  H    0.145065
    70  H    0.123838
    71  C    0.595643
    72  O   -0.553817
    73  N   -0.502782
    74  H    0.297766
    75  C   -0.131358
    76  H    0.182837
    77  H    0.144780
    78  C    0.566698
    79  O   -0.541888
    80  N   -0.528514
    81  H    0.349608
    82  C   -0.124705
    83  H    0.148032
    84  H    0.141279
    85  C    0.581895
    86  O   -0.562287
    87  N   -0.467670
    88  H    0.305573
    89  C   -0.138383
    90  H    0.167885
    91  H    0.134792
    92  C    0.608994
    93  O   -0.549496
    94  N   -0.533581
    95  H    0.297553
    96  C   -0.079396
    97  H    0.177362
    98  H    0.162724
    99  C    0.565299
   100  O   -0.453395
   101  O   -0.470241
   102  H    0.344731
 Sum of Mulliken charges =   1.00000

 Dipole moment (field-independent basis, Debye):
    X=              3.1469    Y=             30.5885    Z=             13.3687  Tot=             33.5303
 Quadrupole moment (field-independent basis, Debye-Ang):
   XX=           -211.9025   YY=           -102.6970   ZZ=           -231.2050
   XY=              6.9691   XZ=             36.7139   YZ=            107.5911

 Normal termination of Gaussian 16 at Tue Sep  6 12:24:27 2022.
