 Gaussian 16, Revision C.01,
 Gaussian 16:  ES64L-G16RevC.01  3-Jul-2019

 ----------------------------------------------------------------------
 # B3LYP/6-31G* empiricaldispersion=gd3bj guess=read geom=check nosymm
 integral(ultrafinegrid)
 ----------------------------------------------------------------------

 ------------------------------------------------------
 Candidate Structure: Conf:450 Charge calc in gas phase
 ------------------------------------------------------
 Structure from the checkpoint file:  "conf-450.chk"
 Charge =  1 Multiplicity = 1

                          Input orientation:
 ---------------------------------------------------------------------
 Center     Atomic      Atomic             Coordinates (Angstroms)
 Number     Number       Type             X           Y           Z
 ---------------------------------------------------------------------
      1          7           0       -9.612389    0.517388   -3.560382
      2          1           0       -9.873179    0.771625   -2.604203
      3          1           0      -10.372393   -0.028976   -4.002083
      4          1           0       -9.368241    1.395334   -4.082416
      5          6           0       -8.356454   -0.302331   -3.638148
      6          1           0       -8.225157   -0.841053   -2.696736
      7          6           0       -7.246312    0.735900   -3.908527
      8          6           0       -8.534809   -1.291394   -4.830183
      9          1           0       -8.420185   -0.716095   -5.755834
     10          8           0       -7.592541    1.840111   -4.348204
     11          6           0       -7.536164   -2.438168   -4.794228
     12          1           0       -6.503961   -2.083593   -4.863258
     13          1           0       -7.635992   -3.016511   -3.866592
     14          1           0       -7.718395   -3.103947   -5.642093
     15          8           0       -9.892333   -1.735879   -4.833488
     16          1           0       -9.955550   -2.584734   -4.364578
     17          7           0       -6.006333    0.323036   -3.690687
     18          1           0       -5.794218   -0.620322   -3.364637
     19          6           0       -4.797183    1.075631   -4.009735
     20          1           0       -4.974094    1.641067   -4.928063
     21          6           0       -3.732040   -0.011497   -4.218459
     22          6           0       -4.437319    2.056725   -2.851008
     23          1           0       -5.341965    2.668528   -2.731773
     24          8           0       -3.946222   -1.160905   -3.804785
     25          6           0       -3.277175    3.016814   -3.177066
     26          1           0       -2.322358    2.476689   -3.168622
     27          1           0       -3.211516    3.718387   -2.337113
     28          6           0       -4.166549    1.307384   -1.540810
     29          1           0       -3.265843    0.690240   -1.613545
     30          1           0       -4.998602    0.654939   -1.256629
     31          1           0       -4.012602    2.021630   -0.726561
     32          6           0       -3.440232    3.824095   -4.469723
     33          1           0       -2.652886    4.578986   -4.552740
     34          1           0       -4.406014    4.342204   -4.494120
     35          1           0       -3.385899    3.208255   -5.377854
     36          7           0       -2.584371    0.364489   -4.808182
     37          1           0       -2.452964    1.345410   -5.019870
     38          6           0       -1.354617   -0.438830   -4.666197
     39          1           0       -1.637333   -1.479978   -4.834857
     40          6           0       -0.879223   -0.238014   -3.213746
     41          6           0       -0.287563    0.000163   -5.655330
     42          1           0        0.595863   -0.631141   -5.523465
     43          1           0        0.011212    1.033604   -5.455271
     44          1           0       -0.649580   -0.089892   -6.683798
     45          8           0       -0.178618    0.711727   -2.887936
     46          7           0       -1.345827   -1.164112   -2.332796
     47          1           0       -2.080381   -1.789814   -2.640950
     48          6           0       -1.037189   -1.077688   -0.908862
     49          1           0       -1.278565   -0.076043   -0.537091
     50          6           0        0.466924   -1.252229   -0.651105
     51          6           0       -1.861940   -2.131387   -0.161857
     52          1           0       -1.616926   -3.124344   -0.561220
     53          1           0       -2.926338   -1.953926   -0.352651
     54          8           0        0.995738   -0.763855    0.339489
     55          6           0       -1.642869   -2.123394    1.350730
     56          1           0       -0.660962   -2.524407    1.610731
     57          1           0       -1.659760   -1.090413    1.722304
     58          6           0       -2.768509   -2.874442    2.056473
     59          7           0       -2.395658   -3.580087    3.158300
     60          1           0       -1.437833   -3.639625    3.484420
     61          1           0       -3.126008   -4.008968    3.709613
     62          8           0       -3.932415   -2.824533    1.667543
     63          7           0        1.098455   -2.038379   -1.558574
     64          1           0        0.641124   -2.212858   -2.446314
     65          6           0        2.536432   -2.126565   -1.627766
     66          1           0        2.949137   -1.340201   -0.988538
     67          6           0        2.917156   -1.889109   -3.098275
     68          6           0        3.048727   -3.509588   -1.135763
     69          1           0        4.138532   -3.463420   -1.023102
     70          1           0        2.837233   -4.255408   -1.910650
     71          8           0        2.075291   -2.019899   -3.996785
     72          6           0        2.377694   -3.914054    0.154713
     73          6           0        2.684068   -3.276929    1.363863
     74          1           0        3.453425   -2.510882    1.387149
     75          6           0        1.362775   -4.874173    0.155376
     76          1           0        1.099509   -5.373496   -0.773293
     77          6           0        2.006075   -3.586732    2.538117
     78          1           0        2.243086   -3.090427    3.473123
     79          6           0        0.668375   -5.196186    1.321649
     80          1           0       -0.127843   -5.937401    1.301649
     81          8           0        0.318898   -4.795271    3.692011
     82          1           0       -0.206920   -5.603312    3.578462
     83          6           0        0.995001   -4.548229    2.512863
     84          7           0        4.202880   -1.579944   -3.318112
     85          1           0        4.883965   -1.506801   -2.565595
     86          6           0        4.774832   -1.385623   -4.637894
     87          1           0        4.447502   -2.203941   -5.289988
     88          6           0        6.301094   -1.447630   -4.443185
     89          6           0        4.348506   -0.044633   -5.256480
     90          1           0        4.766873    0.072323   -6.260995
     91          1           0        3.258638   -0.003283   -5.320382
     92          1           0        4.698940    0.785358   -4.634998
     93          8           0        6.792241   -1.415493   -3.308853
     94          7           0        7.018918   -1.504937   -5.572982
     95          1           0        6.599530   -1.514037   -6.501280
     96          6           0        8.470630   -1.414730   -5.626599
     97          1           0        8.807180   -0.624949   -4.947578
     98          6           0        8.811876   -1.032932   -7.093896
     99          6           0        9.093862   -2.765932   -5.172448
    100          1           0        8.951820   -3.503557   -5.973881
    101          1           0        8.481467   -3.095768   -4.329731
    102          8           0        9.973446   -0.524514   -7.285979
    103          6           0       10.566946   -2.744722   -4.700364
    104          1           0       10.659518   -3.335120   -3.782046
    105          1           0       10.864815   -1.723654   -4.430907
    106          6           0       11.593236   -3.310868   -5.690695
    107          1           0       11.306661   -4.330596   -5.981397
    108          1           0       12.579823   -3.363355   -5.212826
    109          7           0       11.651397   -2.457103   -6.873933
    110          1           0       11.143182   -1.543169   -6.793557
    111          7           0       12.324512   -4.037977   -8.461977
    112          1           0       12.100507   -4.492545   -9.334117
    113          1           0       12.729936   -4.609110   -7.736806
    114          7           0       11.221026   -2.081387   -9.090933
    115          1           0       11.448066   -2.219230  -10.063411
    116          1           0       10.631589   -1.286266   -8.765871
    117          6           0       11.725847   -2.866546   -8.136754
    118          8           0        7.961127   -1.281771   -7.961142
 ---------------------------------------------------------------------

 SCF Done:  E(RB3LYP) =  -2837.90054303     A.U. after    1 cycles

 Alpha  occ. eigenvalues --  -19.30615 -19.26329 -19.23741 -19.22832 -19.18198
 Alpha  occ. eigenvalues --  -19.16544 -19.15373 -19.15283 -19.15222 -19.12921
 Alpha  occ. eigenvalues --  -19.12160 -14.59467 -14.49298 -14.46296 -14.45107
 Alpha  occ. eigenvalues --  -14.42594 -14.42171 -14.41803 -14.40228 -14.39580
 Alpha  occ. eigenvalues --  -14.39295 -14.38651 -10.43384 -10.40396 -10.39851
 Alpha  occ. eigenvalues --  -10.39685 -10.39500 -10.35155 -10.34316 -10.33390
 Alpha  occ. eigenvalues --  -10.33027 -10.32496 -10.32299 -10.31381 -10.31077
 Alpha  occ. eigenvalues --  -10.30323 -10.29733 -10.29041 -10.29037 -10.28464
 Alpha  occ. eigenvalues --  -10.27633 -10.27575 -10.26506 -10.25883 -10.25794
 Alpha  occ. eigenvalues --  -10.25357 -10.24589 -10.24351 -10.24220 -10.24093
 Alpha  occ. eigenvalues --  -10.23923 -10.23835 -10.23655 -10.23559 -10.23442
 Alpha  occ. eigenvalues --  -10.23152 -10.22860 -10.22105  -1.19358  -1.17749
 Alpha  occ. eigenvalues --   -1.14692  -1.13277  -1.11325  -1.10304  -1.08573
 Alpha  occ. eigenvalues --   -1.08470  -1.07276  -1.06992  -1.06932  -1.06178
 Alpha  occ. eigenvalues --   -1.05775  -1.02653  -0.99334  -0.98383  -0.97101
 Alpha  occ. eigenvalues --   -0.96911  -0.96407  -0.96323  -0.95186  -0.94264
 Alpha  occ. eigenvalues --   -0.93586  -0.90655  -0.90093  -0.86219  -0.85783
 Alpha  occ. eigenvalues --   -0.84502  -0.84364  -0.83455  -0.82639  -0.81412
 Alpha  occ. eigenvalues --   -0.80381  -0.79495  -0.78553  -0.77804  -0.77678
 Alpha  occ. eigenvalues --   -0.76328  -0.74163  -0.73356  -0.72418  -0.72248
 Alpha  occ. eigenvalues --   -0.72177  -0.71196  -0.70918  -0.70286  -0.69574
 Alpha  occ. eigenvalues --   -0.69455  -0.67688  -0.66771  -0.66541  -0.66003
 Alpha  occ. eigenvalues --   -0.65895  -0.65141  -0.64754  -0.64443  -0.63612
 Alpha  occ. eigenvalues --   -0.62957  -0.62778  -0.62409  -0.62066  -0.61743
 Alpha  occ. eigenvalues --   -0.61140  -0.60233  -0.59759  -0.59474  -0.59224
 Alpha  occ. eigenvalues --   -0.58519  -0.58259  -0.57939  -0.57478  -0.57359
 Alpha  occ. eigenvalues --   -0.56844  -0.56677  -0.56067  -0.55596  -0.54699
 Alpha  occ. eigenvalues --   -0.54105  -0.53884  -0.53555  -0.53266  -0.52994
 Alpha  occ. eigenvalues --   -0.52753  -0.52172  -0.52135  -0.52036  -0.51649
 Alpha  occ. eigenvalues --   -0.51184  -0.51128  -0.50936  -0.50676  -0.50483
 Alpha  occ. eigenvalues --   -0.50149  -0.49484  -0.49176  -0.48769  -0.48576
 Alpha  occ. eigenvalues --   -0.48408  -0.48157  -0.48070  -0.47883  -0.47774
 Alpha  occ. eigenvalues --   -0.47421  -0.47346  -0.46999  -0.46817  -0.46382
 Alpha  occ. eigenvalues --   -0.46051  -0.45556  -0.45314  -0.45253  -0.45081
 Alpha  occ. eigenvalues --   -0.45039  -0.44638  -0.44503  -0.44309  -0.44094
 Alpha  occ. eigenvalues --   -0.44011  -0.43815  -0.43651  -0.43247  -0.42886
 Alpha  occ. eigenvalues --   -0.42760  -0.42622  -0.42462  -0.41953  -0.41813
 Alpha  occ. eigenvalues --   -0.41358  -0.41314  -0.40800  -0.40687  -0.40469
 Alpha  occ. eigenvalues --   -0.40345  -0.40147  -0.39896  -0.39216  -0.38938
 Alpha  occ. eigenvalues --   -0.38681  -0.38548  -0.38448  -0.38328  -0.37554
 Alpha  occ. eigenvalues --   -0.37375  -0.36961  -0.36319  -0.35410  -0.33238
 Alpha  occ. eigenvalues --   -0.32396  -0.31373  -0.30944  -0.30878  -0.30756
 Alpha  occ. eigenvalues --   -0.30222  -0.29511  -0.29317  -0.29241  -0.28817
 Alpha  occ. eigenvalues --   -0.28461  -0.28112  -0.27130  -0.26797  -0.26383
 Alpha virt. eigenvalues --   -0.12273  -0.10256  -0.08809  -0.05563  -0.04954
 Alpha virt. eigenvalues --   -0.04848  -0.04520  -0.04365  -0.04173  -0.02752
 Alpha virt. eigenvalues --   -0.02140  -0.01778  -0.01517  -0.01290  -0.01214

 Mulliken charges:
               1
     1  N   -0.746623
     2  H    0.416088
     3  H    0.426615
     4  H    0.426836
     5  C   -0.142816
     6  H    0.207570
     7  C    0.651175
     8  C    0.128750
     9  H    0.193283
    10  O   -0.537915
    11  C   -0.510739
    12  H    0.201780
    13  H    0.168377
    14  H    0.207334
    15  O   -0.628519
    16  H    0.424550
    17  N   -0.603537
    18  H    0.377247
    19  C   -0.082147
    20  H    0.195612
    21  C    0.637789
    22  C   -0.079809
    23  H    0.153491
    24  O   -0.568947
    25  C   -0.296752
    26  H    0.172229
    27  H    0.165431
    28  C   -0.481690
    29  H    0.185427
    30  H    0.138388
    31  H    0.172776
    32  C   -0.472640
    33  H    0.179199
    34  H    0.162815
    35  H    0.131904
    36  N   -0.595331
    37  H    0.359343
    38  C   -0.065390
    39  H    0.178245
    40  C    0.631766
    41  C   -0.492058
    42  H    0.223550
    43  H    0.173508
    44  H    0.154121
    45  O   -0.518292
    46  N   -0.655675
    47  H    0.357258
    48  C   -0.011067
    49  H    0.172969
    50  C    0.634358
    51  C   -0.306327
    52  H    0.149642
    53  H    0.168822
    54  O   -0.534221
    55  C   -0.379593
    56  H    0.190289
    57  H    0.181729
    58  C    0.598132
    59  N   -0.784387
    60  H    0.372663
    61  H    0.333024
    62  O   -0.536041
    63  N   -0.599375
    64  H    0.347884
    65  C   -0.058612
    66  H    0.187605
    67  C    0.639088
    68  C   -0.365642
    69  H    0.159750
    70  H    0.151132
    71  O   -0.569643
    72  C    0.187799
    73  C   -0.156079
    74  H    0.141475
    75  C   -0.189022
    76  H    0.126829
    77  C   -0.153510
    78  H    0.150220
    79  C   -0.191138
    80  H    0.124025
    81  O   -0.656451
    82  H    0.412768
    83  C    0.326814
    84  N   -0.614817
    85  H    0.359617
    86  C   -0.035044
    87  H    0.170915
    88  C    0.620484
    89  C   -0.453655
    90  H    0.160885
    91  H    0.177834
    92  H    0.163486
    93  O   -0.559872
    94  N   -0.621781
    95  H    0.355004
    96  C   -0.031968
    97  H    0.166589
    98  C    0.589578
    99  C   -0.275913
   100  H    0.135263
   101  H    0.176920
   102  O   -0.647192
   103  C   -0.303252
   104  H    0.158035
   105  H    0.171747
   106  C   -0.148226
   107  H    0.146210
   108  H    0.164650
   109  N   -0.605706
   110  H    0.410402
   111  N   -0.762283
   112  H    0.361649
   113  H    0.367970
   114  N   -0.775502
   115  H    0.347151
   116  H    0.419585
   117  C    0.774988
   118  O   -0.553237
 Sum of Mulliken charges =   1.00000

 Dipole moment (field-independent basis, Debye):
    X=            -19.5241    Y=            -11.5608    Z=            -22.5222  Tot=             31.9702
 Quadrupole moment (field-independent basis, Debye-Ang):
   XX=            163.3561   YY=           -269.4044   ZZ=           -195.1196
   XY=            -92.8060   XZ=             -9.7375   YZ=             60.4152

 Normal termination of Gaussian 16 at Sun Jul 17 00:10:03 2022.
