 Gaussian 16, Revision C.01,
 Gaussian 16:  ES64L-G16RevC.01  3-Jul-2019

 ----------------------------------------------------------------------
 # B3LYP/6-31G* empiricaldispersion=gd3bj guess=read geom=check nosymm
 integral(ultrafinegrid)
 ----------------------------------------------------------------------

 ------------------------------------------------------
 Candidate Structure: Conf:584 Charge calc in gas phase
 ------------------------------------------------------
 Structure from the checkpoint file:  "conf-584.chk"
 Charge =  1 Multiplicity = 1

                          Input orientation:
 ---------------------------------------------------------------------
 Center     Atomic      Atomic             Coordinates (Angstroms)
 Number     Number       Type             X           Y           Z
 ---------------------------------------------------------------------
      1          7           0       -0.730150   -7.737282   -5.155792
      2          1           0        0.048484   -8.082030   -4.588797
      3          1           0       -0.618446   -8.043507   -6.137653
      4          1           0       -1.630055   -8.055735   -4.714229
      5          6           0       -0.854617   -6.240761   -5.153131
      6          1           0        0.125588   -5.801567   -4.953574
      7          6           0       -1.894309   -5.955077   -4.048229
      8          6           0       -1.380063   -5.828590   -6.561670
      9          1           0       -2.442504   -6.093485   -6.606328
     10          8           0       -2.629123   -6.891666   -3.706345
     11          6           0       -1.193397   -4.346491   -6.848605
     12          1           0       -1.743075   -3.717190   -6.142710
     13          1           0       -0.132588   -4.068414   -6.796990
     14          1           0       -1.563279   -4.123632   -7.853117
     15          8           0       -0.746281   -6.666556   -7.530466
     16          1           0        0.028873   -6.207525   -7.894575
     17          7           0       -1.938265   -4.707746   -3.606412
     18          1           0       -1.341303   -3.977450   -3.993605
     19          6           0       -2.967715   -4.159889   -2.725590
     20          1           0       -3.876428   -4.751336   -2.861498
     21          6           0       -3.167951   -2.728067   -3.256435
     22          6           0       -2.521774   -4.237468   -1.235732
     23          1           0       -2.394505   -5.314142   -1.052569
     24          8           0       -2.273659   -2.190779   -3.921667
     25          6           0       -3.587565   -3.718609   -0.257527
     26          1           0       -3.725867   -2.641965   -0.396814
     27          1           0       -3.186701   -3.817489    0.755542
     28          6           0       -1.176149   -3.540817   -0.997477
     29          1           0       -1.223424   -2.457940   -1.148608
     30          1           0       -0.389746   -3.935275   -1.650539
     31          1           0       -0.857149   -3.710830    0.035610
     32          6           0       -4.939817   -4.434117   -0.298174
     33          1           0       -5.567616   -4.058049    0.513534
     34          1           0       -4.822100   -5.516366   -0.167454
     35          1           0       -5.489266   -4.289057   -1.240304
     36          7           0       -4.337106   -2.136574   -2.955317
     37          1           0       -4.981238   -2.630081   -2.350263
     38          6           0       -4.649425   -0.741120   -3.273841
     39          1           0       -3.916744   -0.424032   -4.020047
     40          6           0       -4.457063    0.160686   -2.031128
     41          6           0       -6.060717   -0.626110   -3.838706
     42          1           0       -6.271281    0.407857   -4.113632
     43          1           0       -6.809903   -0.930482   -3.100018
     44          1           0       -6.159614   -1.254455   -4.728164
     45          8           0       -5.247763    1.064345   -1.761282
     46          7           0       -3.371420   -0.153032   -1.287644
     47          1           0       -2.615232   -0.676587   -1.724298
     48          6           0       -2.909372    0.626073   -0.150109
     49          1           0       -3.361285    1.620113   -0.207973
     50          6           0       -1.384479    0.736735   -0.320526
     51          6           0       -3.270877   -0.055680    1.182808
     52          1           0       -2.809221    0.497459    2.009891
     53          1           0       -2.840357   -1.061635    1.190192
     54          8           0       -0.780636   -0.046310   -1.059791
     55          6           0       -4.786293   -0.157245    1.400373
     56          1           0       -5.209913    0.827746    1.625208
     57          1           0       -5.264519   -0.502601    0.478489
     58          6           0       -5.117487   -1.188822    2.472201
     59          7           0       -5.834229   -0.735353    3.535046
     60          1           0       -6.099126    0.231733    3.639599
     61          1           0       -6.060258   -1.383092    4.277320
     62          8           0       -4.762109   -2.359575    2.372460
     63          7           0       -0.788443    1.726459    0.367041
     64          1           0       -1.309481    2.324102    0.998660
     65          6           0        0.553409    2.188460    0.071654
     66          1           0        1.121356    1.331861   -0.294292
     67          6           0        1.120925    2.747873    1.380130
     68          6           0        0.545360    3.328881   -1.015720
     69          1           0        1.516457    3.324543   -1.522186
     70          1           0        0.453631    4.289065   -0.496474
     71          8           0        0.355947    3.243465    2.211981
     72          6           0       -0.598441    3.175026   -1.985913
     73          6           0       -0.527578    2.324358   -3.094329
     74          1           0        0.415544    1.843424   -3.338854
     75          6           0       -1.834769    3.760556   -1.686221
     76          1           0       -1.911924    4.435145   -0.836699
     77          6           0       -1.659049    2.021688   -3.848871
     78          1           0       -1.608678    1.326661   -4.680879
     79          6           0       -2.976551    3.466760   -2.425277
     80          1           0       -3.934685    3.905921   -2.161814
     81          8           0       -4.005993    2.186676   -4.200713
     82          1           0       -4.777208    2.299859   -3.617201
     83          6           0       -2.893687    2.568520   -3.492988
     84          7           0        2.455588    2.702294    1.500405
     85          1           0        3.062008    2.339078    0.768607
     86          6           0        3.184457    3.244132    2.634557
     87          1           0        2.790829    4.240201    2.867033
     88          6           0        4.652989    3.356149    2.185803
     89          6           0        3.055704    2.348371    3.878244
     90          1           0        3.645135    2.742317    4.711713
     91          1           0        2.005882    2.289326    4.176020
     92          1           0        3.419331    1.340923    3.649966
     93          8           0        5.020684    2.859915    1.109456
     94          7           0        5.448651    3.993811    3.054882
     95          1           0        5.137032    4.152519    4.030595
     96          6           0        6.887240    3.795866    3.137293
     97          1           0        7.144308    2.800514    2.754870
     98          6           0        7.260475    3.892651    4.680896
     99          6           0        7.707022    4.839177    2.386671
    100          1           0        8.751916    4.623798    2.638729
    101          1           0        7.459505    5.812537    2.846591
    102          8           0        8.481468    3.890057    4.915196
    103          6           0        7.484803    4.893494    0.871741
    104          1           0        6.509733    5.335408    0.640991
    105          1           0        7.462113    3.881487    0.457654
    106          6           0        8.596385    5.671568    0.160005
    107          1           0        8.343526    5.871410   -0.888135
    108          1           0        9.534449    5.102170    0.200816
    109          7           0        8.806163    6.964494    0.842935
    110          1           0        8.447323    7.004143    1.791589
    111          7           0       10.338526    7.808237   -0.676914
    112          1           0       10.721538    8.617790   -1.142455
    113          1           0       10.347732    6.933374   -1.179673
    114          7           0        9.648129    9.112113    1.107408
    115          1           0       10.472894    9.691736    1.037111
    116          1           0        9.099113    9.225771    1.948797
    117          6           0        9.595089    7.942170    0.434209
    118          8           0        6.263297    3.999881    5.444491
 ---------------------------------------------------------------------

 SCF Done:  E(RB3LYP) =  -2837.83734943     A.U. after    2 cycles

 Alpha  occ. eigenvalues --  -19.30187 -19.25658 -19.22157 -19.21543 -19.18427
 Alpha  occ. eigenvalues --  -19.17601 -19.16411 -19.15282 -19.14128 -19.06155
 Alpha  occ. eigenvalues --  -19.05169 -14.58957 -14.50686 -14.50256 -14.49687
 Alpha  occ. eigenvalues --  -14.48614 -14.45543 -14.41949 -14.41306 -14.41295
 Alpha  occ. eigenvalues --  -14.39312 -14.35666 -10.46501 -10.42713 -10.39895
 Alpha  occ. eigenvalues --  -10.39371 -10.38456 -10.35468 -10.34587 -10.34329
 Alpha  occ. eigenvalues --  -10.33214 -10.32532 -10.32530 -10.30843 -10.30590
 Alpha  occ. eigenvalues --  -10.30550 -10.29366 -10.29148 -10.28208 -10.27500
 Alpha  occ. eigenvalues --  -10.25955 -10.25217 -10.25038 -10.24839 -10.24649
 Alpha  occ. eigenvalues --  -10.24379 -10.24351 -10.24137 -10.24111 -10.23965
 Alpha  occ. eigenvalues --  -10.23771 -10.23711 -10.23659 -10.23456 -10.23220
 Alpha  occ. eigenvalues --  -10.22128 -10.21836 -10.20107  -1.18809  -1.17207
 Alpha  occ. eigenvalues --   -1.15164  -1.13573  -1.12703  -1.10620  -1.09953
 Alpha  occ. eigenvalues --   -1.09319  -1.08237  -1.07287  -1.05465  -1.05352
 Alpha  occ. eigenvalues --   -1.04138  -1.03501  -1.02109  -0.99277  -0.98745
 Alpha  occ. eigenvalues --   -0.98125  -0.95899  -0.95772  -0.93187  -0.92972
 Alpha  occ. eigenvalues --   -0.90495  -0.90063  -0.89483  -0.86953  -0.86232
 Alpha  occ. eigenvalues --   -0.85160  -0.84418  -0.83453  -0.81521  -0.80615
 Alpha  occ. eigenvalues --   -0.79584  -0.79299  -0.78915  -0.78683  -0.77139
 Alpha  occ. eigenvalues --   -0.77122  -0.76394  -0.73633  -0.72849  -0.72814
 Alpha  occ. eigenvalues --   -0.72188  -0.71713  -0.71212  -0.70951  -0.69675
 Alpha  occ. eigenvalues --   -0.69197  -0.68902  -0.68329  -0.67527  -0.66738
 Alpha  occ. eigenvalues --   -0.65965  -0.65059  -0.64639  -0.64138  -0.64082
 Alpha  occ. eigenvalues --   -0.63774  -0.63620  -0.63514  -0.63335  -0.63097
 Alpha  occ. eigenvalues --   -0.62387  -0.61226  -0.60713  -0.59283  -0.59107
 Alpha  occ. eigenvalues --   -0.58829  -0.58692  -0.58679  -0.58000  -0.57900
 Alpha  occ. eigenvalues --   -0.57054  -0.56401  -0.55769  -0.55596  -0.55282
 Alpha  occ. eigenvalues --   -0.54812  -0.54340  -0.53817  -0.53497  -0.53311
 Alpha  occ. eigenvalues --   -0.52768  -0.52496  -0.51953  -0.51538  -0.51071
 Alpha  occ. eigenvalues --   -0.50707  -0.50659  -0.50562  -0.50375  -0.50306
 Alpha  occ. eigenvalues --   -0.49662  -0.49533  -0.49003  -0.48892  -0.48625
 Alpha  occ. eigenvalues --   -0.48559  -0.47951  -0.47722  -0.47436  -0.47246
 Alpha  occ. eigenvalues --   -0.46953  -0.46879  -0.46850  -0.46668  -0.46264
 Alpha  occ. eigenvalues --   -0.46181  -0.45908  -0.45417  -0.45166  -0.44556
 Alpha  occ. eigenvalues --   -0.44489  -0.44163  -0.43803  -0.43527  -0.43495
 Alpha  occ. eigenvalues --   -0.43351  -0.43057  -0.42914  -0.42631  -0.42585
 Alpha  occ. eigenvalues --   -0.42135  -0.41697  -0.41209  -0.41088  -0.41003
 Alpha  occ. eigenvalues --   -0.40803  -0.40537  -0.40262  -0.40155  -0.39978
 Alpha  occ. eigenvalues --   -0.39862  -0.39489  -0.39193  -0.39110  -0.38676
 Alpha  occ. eigenvalues --   -0.38289  -0.37928  -0.37445  -0.37268  -0.36805
 Alpha  occ. eigenvalues --   -0.36720  -0.36158  -0.35561  -0.35242  -0.33734
 Alpha  occ. eigenvalues --   -0.32953  -0.32303  -0.32080  -0.31551  -0.30701
 Alpha  occ. eigenvalues --   -0.30120  -0.29633  -0.29384  -0.28800  -0.28066
 Alpha  occ. eigenvalues --   -0.27221  -0.26546  -0.21338  -0.21014  -0.19513
 Alpha virt. eigenvalues --   -0.11613  -0.10602  -0.09801  -0.07477  -0.06610
 Alpha virt. eigenvalues --   -0.05280  -0.05163  -0.04941  -0.04784  -0.04209
 Alpha virt. eigenvalues --   -0.03335  -0.02794  -0.02279  -0.02044  -0.01461

 Mulliken charges:
               1
     1  N   -0.746831
     2  H    0.414552
     3  H    0.425287
     4  H    0.426798
     5  C   -0.141618
     6  H    0.203033
     7  C    0.648004
     8  C    0.128432
     9  H    0.192955
    10  O   -0.537824
    11  C   -0.513498
    12  H    0.208384
    13  H    0.163549
    14  H    0.205345
    15  O   -0.629393
    16  H    0.422982
    17  N   -0.595620
    18  H    0.374446
    19  C   -0.088797
    20  H    0.191625
    21  C    0.627419
    22  C   -0.076376
    23  H    0.144575
    24  O   -0.556554
    25  C   -0.282392
    26  H    0.153365
    27  H    0.183051
    28  C   -0.486742
    29  H    0.198868
    30  H    0.120932
    31  H    0.166910
    32  C   -0.478854
    33  H    0.196742
    34  H    0.154229
    35  H    0.113230
    36  N   -0.595689
    37  H    0.354552
    38  C   -0.090571
    39  H    0.226751
    40  C    0.631613
    41  C   -0.444410
    42  H    0.181615
    43  H    0.156425
    44  H    0.154055
    45  O   -0.557089
    46  N   -0.621010
    47  H    0.384469
    48  C   -0.063347
    49  H    0.183609
    50  C    0.643561
    51  C   -0.272665
    52  H    0.159677
    53  H    0.180077
    54  O   -0.552817
    55  C   -0.349336
    56  H    0.145525
    57  H    0.178926
    58  C    0.591307
    59  N   -0.738437
    60  H    0.345015
    61  H    0.349263
    62  O   -0.517061
    63  N   -0.599195
    64  H    0.347862
    65  C   -0.038632
    66  H    0.178223
    67  C    0.625851
    68  C   -0.373267
    69  H    0.155288
    70  H    0.166072
    71  O   -0.555899
    72  C    0.161973
    73  C   -0.162574
    74  H    0.127232
    75  C   -0.202179
    76  H    0.133956
    77  C   -0.165256
    78  H    0.136058
    79  C   -0.182089
    80  H    0.138195
    81  O   -0.678692
    82  H    0.425751
    83  C    0.348624
    84  N   -0.616706
    85  H    0.348581
    86  C   -0.036738
    87  H    0.174081
    88  C    0.596107
    89  C   -0.463070
    90  H    0.193135
    91  H    0.173634
    92  H    0.149760
    93  O   -0.577836
    94  N   -0.609764
    95  H    0.363732
    96  C   -0.083430
    97  H    0.148454
    98  C    0.583971
    99  C   -0.292323
   100  H    0.173792
   101  H    0.117368
   102  O   -0.591771
   103  C   -0.289611
   104  H    0.166484
   105  H    0.190828
   106  C   -0.165728
   107  H    0.167511
   108  H    0.183186
   109  N   -0.589205
   110  H    0.374616
   111  N   -0.757214
   112  H    0.380380
   113  H    0.391682
   114  N   -0.757888
   115  H    0.378270
   116  H    0.386343
   117  C    0.817149
   118  O   -0.609299
 Sum of Mulliken charges =   1.00000

 Dipole moment (field-independent basis, Debye):
    X=              9.5207    Y=             -4.2207    Z=            -30.3729  Tot=             32.1088
 Quadrupole moment (field-independent basis, Debye-Ang):
   XX=           -104.0682   YY=             32.5035   ZZ=           -296.5002
   XY=            219.4959   XZ=           -112.6033   YZ=             95.1642

 Normal termination of Gaussian 16 at Sun Jul 17 00:10:37 2022.
