 Gaussian 16, Revision C.01,
 Gaussian 16:  ES64L-G16RevC.01  3-Jul-2019

 ----------------------------------------------------------------------
 # B3LYP/6-31G* empiricaldispersion=gd3bj guess=read geom=check nosymm
 integral(ultrafinegrid)
 ----------------------------------------------------------------------

 ------------------------------------------------------
 Candidate Structure: Conf:535 Charge calc in gas phase
 ------------------------------------------------------
 Structure from the checkpoint file:  "conf-535.chk"
 Charge =  1 Multiplicity = 1

                          Input orientation:
 ---------------------------------------------------------------------
 Center     Atomic      Atomic             Coordinates (Angstroms)
 Number     Number       Type             X           Y           Z
 ---------------------------------------------------------------------
      1          7           0       -7.053773   -6.501479   -2.571432
      2          1           0       -7.707773   -5.665388   -2.645751
      3          1           0       -7.306078   -7.124659   -1.803363
      4          1           0       -7.063898   -7.000994   -3.475329
      5          6           0       -5.711741   -5.835346   -2.438106
      6          1           0       -5.368786   -5.928383   -1.405291
      7          6           0       -6.036069   -4.345836   -2.750299
      8          6           0       -4.723223   -6.504464   -3.412426
      9          1           0       -3.889982   -5.810390   -3.580911
     10          8           0       -7.227946   -4.037852   -2.885889
     11          6           0       -4.186611   -7.837430   -2.899649
     12          1           0       -3.613763   -7.700736   -1.976600
     13          1           0       -4.996423   -8.550947   -2.708571
     14          1           0       -3.515553   -8.285088   -3.640083
     15          8           0       -5.489158   -6.651873   -4.608168
     16          1           0       -4.953272   -7.088024   -5.289024
     17          7           0       -4.996962   -3.528282   -2.802758
     18          1           0       -4.039192   -3.875475   -2.790826
     19          6           0       -5.045044   -2.113218   -3.174702
     20          1           0       -5.976470   -1.936194   -3.720948
     21          6           0       -3.812930   -1.949893   -4.082663
     22          6           0       -4.982994   -1.181938   -1.924177
     23          1           0       -4.007486   -1.321608   -1.442824
     24          8           0       -2.846919   -2.707188   -3.932139
     25          6           0       -6.068865   -1.587458   -0.907200
     26          1           0       -5.913242   -2.637404   -0.629917
     27          1           0       -7.055853   -1.538891   -1.387293
     28          6           0       -5.095179    0.296206   -2.315761
     29          1           0       -6.057492    0.505510   -2.803809
     30          1           0       -4.284853    0.632255   -2.965680
     31          1           0       -5.029378    0.911175   -1.416884
     32          6           0       -6.058142   -0.742904    0.371891
     33          1           0       -6.706226   -1.194959    1.130484
     34          1           0       -6.427129    0.270954    0.190974
     35          1           0       -5.045814   -0.657242    0.778595
     36          7           0       -3.851546   -0.964375   -5.004832
     37          1           0       -4.620976   -0.307488   -4.949155
     38          6           0       -2.615166   -0.433279   -5.614531
     39          1           0       -2.002935   -1.293388   -5.893402
     40          6           0       -1.952411    0.378873   -4.485535
     41          6           0       -2.945830    0.418791   -6.829373
     42          1           0       -2.029854    0.851572   -7.239963
     43          1           0       -3.602458    1.246808   -6.543143
     44          1           0       -3.440028   -0.180338   -7.599114
     45          8           0       -2.389399    1.497280   -4.191985
     46          7           0       -1.015623   -0.288370   -3.787497
     47          1           0       -0.748141   -1.209218   -4.107285
     48          6           0       -0.580970    0.084135   -2.452214
     49          1           0       -1.189469    0.944087   -2.163119
     50          6           0        0.911087    0.436000   -2.440120
     51          6           0       -0.829787   -1.103759   -1.495142
     52          1           0       -0.164920   -1.926231   -1.785635
     53          1           0       -1.858016   -1.442500   -1.639544
     54          8           0        1.712255   -0.144030   -3.163432
     55          6           0       -0.614737   -0.760638   -0.015332
     56          1           0       -0.858822   -1.641106    0.589813
     57          1           0        0.425722   -0.497418    0.189063
     58          6           0       -1.563280    0.357635    0.404937
     59          7           0       -0.968330    1.462208    0.921948
     60          1           0        0.034780    1.510481    1.117082
     61          1           0       -1.569896    2.198506    1.268150
     62          8           0       -2.778467    0.266017    0.225714
     63          7           0        1.234897    1.350655   -1.494739
     64          1           0        0.491177    1.797397   -0.975291
     65          6           0        2.574890    1.834447   -1.268576
     66          1           0        3.236901    1.156685   -1.812486
     67          6           0        2.857546    1.781325    0.237943
     68          6           0        2.767371    3.293878   -1.821381
     69          1           0        3.833799    3.454726   -2.013650
     70          1           0        2.465937    4.008376   -1.046605
     71          8           0        1.934195    1.737672    1.067137
     72          6           0        1.918303    3.475506   -3.052012
     73          6           0        2.292441    2.935447   -4.286824
     74          1           0        3.297365    2.542907   -4.419018
     75          6           0        0.611111    3.956742   -2.910794
     76          1           0        0.302239    4.392672   -1.962945
     77          6           0        1.372543    2.805152   -5.325460
     78          1           0        1.648759    2.335371   -6.263720
     79          6           0       -0.320007    3.828054   -3.933627
     80          1           0       -1.343730    4.161473   -3.794974
     81          8           0       -0.872018    2.949296   -6.112435
     82          1           0       -1.723841    2.807889   -5.659408
     83          6           0        0.049085    3.203264   -5.129500
     84          7           0        4.148044    1.835493    0.579423
     85          1           0        4.897992    1.895689   -0.107535
     86          6           0        4.636501    1.845012    1.949107
     87          1           0        4.080482    2.596160    2.520901
     88          6           0        6.123332    2.242626    1.867403
     89          6           0        4.481939    0.473831    2.628063
     90          1           0        4.901482    0.492566    3.638477
     91          1           0        3.423616    0.206896    2.680920
     92          1           0        5.014668   -0.288868    2.050176
     93          8           0        6.696339    2.288298    0.763390
     94          7           0        6.684405    2.480925    3.053230
     95          1           0        6.190817    2.225134    3.932399
     96          6           0        8.099475    2.344629    3.374719
     97          1           0        8.541824    1.560078    2.746652
     98          6           0        8.144049    1.855194    4.890736
     99          6           0        8.911816    3.624167    3.218474
    100          1           0        9.852248    3.444587    3.751663
    101          1           0        8.390031    4.442225    3.733789
    102          8           0        9.281532    1.803768    5.383477
    103          6           0        9.172612    4.004290    1.760649
    104          1           0        8.223965    4.153560    1.232097
    105          1           0        9.685712    3.176733    1.253892
    106          6           0       10.033348    5.257410    1.664843
    107          1           0       11.000159    5.093241    2.155064
    108          1           0        9.532962    6.107351    2.146128
    109          7           0       10.284289    5.586069    0.243957
    110          1           0        9.690595    5.116576   -0.429610
    111          7           0       11.857894    7.233901    0.652564
    112          1           0       12.739775    7.647822    0.386821
    113          1           0       11.639593    7.210067    1.638388
    114          7           0       11.487043    6.516809   -1.515866
    115          1           0       11.913357    7.350455   -1.894340
    116          1           0       11.052996    5.887482   -2.175627
    117          6           0       11.194804    6.436268   -0.201405
    118          8           0        7.007839    1.598155    5.378380
 ---------------------------------------------------------------------

 SCF Done:  E(RB3LYP) =  -2837.83968322     A.U. after    3 cycles

 Alpha  occ. eigenvalues --  -19.30216 -19.25968 -19.22110 -19.20636 -19.18804
 Alpha  occ. eigenvalues --  -19.16735 -19.16382 -19.16113 -19.14129 -19.05658
 Alpha  occ. eigenvalues --  -19.04583 -14.58523 -14.51051 -14.50978 -14.50572
 Alpha  occ. eigenvalues --  -14.48608 -14.45907 -14.43250 -14.40669 -14.40111
 Alpha  occ. eigenvalues --  -14.40005 -14.35376 -10.47113 -10.42817 -10.40261
 Alpha  occ. eigenvalues --  -10.39758 -10.38850 -10.35993 -10.33965 -10.33562
 Alpha  occ. eigenvalues --  -10.33422 -10.33346 -10.32348 -10.31591 -10.31575
 Alpha  occ. eigenvalues --  -10.30539 -10.29063 -10.28252 -10.28250 -10.27061
 Alpha  occ. eigenvalues --  -10.26235 -10.25478 -10.25326 -10.24988 -10.24715
 Alpha  occ. eigenvalues --  -10.24474 -10.24316 -10.23687 -10.23571 -10.23033
 Alpha  occ. eigenvalues --  -10.22955 -10.22849 -10.22532 -10.22484 -10.22311
 Alpha  occ. eigenvalues --  -10.21252 -10.20600 -10.20350  -1.19115  -1.17300
 Alpha  occ. eigenvalues --   -1.15728  -1.14051  -1.12428  -1.10737  -1.08726
 Alpha  occ. eigenvalues --   -1.08613  -1.07925  -1.07824  -1.05535  -1.05262
 Alpha  occ. eigenvalues --   -1.04662  -1.04016  -1.02182  -0.99713  -0.98748
 Alpha  occ. eigenvalues --   -0.97821  -0.96587  -0.94935  -0.93203  -0.92932
 Alpha  occ. eigenvalues --   -0.89957  -0.89504  -0.89298  -0.86949  -0.86604
 Alpha  occ. eigenvalues --   -0.85729  -0.84920  -0.83288  -0.81533  -0.80602
 Alpha  occ. eigenvalues --   -0.79303  -0.78742  -0.78542  -0.77862  -0.76854
 Alpha  occ. eigenvalues --   -0.76699  -0.76115  -0.73834  -0.73583  -0.72929
 Alpha  occ. eigenvalues --   -0.72514  -0.71265  -0.71185  -0.70836  -0.70322
 Alpha  occ. eigenvalues --   -0.69508  -0.68744  -0.68127  -0.67297  -0.66336
 Alpha  occ. eigenvalues --   -0.65866  -0.65685  -0.64917  -0.64713  -0.64091
 Alpha  occ. eigenvalues --   -0.63731  -0.63215  -0.63035  -0.62879  -0.62515
 Alpha  occ. eigenvalues --   -0.61672  -0.61569  -0.60935  -0.59417  -0.59051
 Alpha  occ. eigenvalues --   -0.58886  -0.58332  -0.58098  -0.57791  -0.57684
 Alpha  occ. eigenvalues --   -0.57417  -0.56570  -0.56327  -0.56209  -0.55577
 Alpha  occ. eigenvalues --   -0.54921  -0.54557  -0.53864  -0.53742  -0.53242
 Alpha  occ. eigenvalues --   -0.52990  -0.52557  -0.52221  -0.52181  -0.51483
 Alpha  occ. eigenvalues --   -0.51364  -0.50634  -0.50617  -0.50412  -0.50096
 Alpha  occ. eigenvalues --   -0.49973  -0.49149  -0.48908  -0.48564  -0.48416
 Alpha  occ. eigenvalues --   -0.48037  -0.47840  -0.47696  -0.47618  -0.47182
 Alpha  occ. eigenvalues --   -0.46760  -0.46518  -0.46339  -0.46164  -0.46100
 Alpha  occ. eigenvalues --   -0.45872  -0.45782  -0.45259  -0.44874  -0.44692
 Alpha  occ. eigenvalues --   -0.44470  -0.44261  -0.43892  -0.43301  -0.42903
 Alpha  occ. eigenvalues --   -0.42786  -0.42741  -0.42558  -0.42314  -0.42274
 Alpha  occ. eigenvalues --   -0.42078  -0.41819  -0.41571  -0.41420  -0.41174
 Alpha  occ. eigenvalues --   -0.40689  -0.40642  -0.40227  -0.39942  -0.39443
 Alpha  occ. eigenvalues --   -0.39392  -0.39205  -0.39173  -0.38875  -0.38580
 Alpha  occ. eigenvalues --   -0.37792  -0.37523  -0.37427  -0.37178  -0.36534
 Alpha  occ. eigenvalues --   -0.36142  -0.35678  -0.35446  -0.34990  -0.33085
 Alpha  occ. eigenvalues --   -0.33025  -0.32096  -0.31912  -0.31401  -0.30502
 Alpha  occ. eigenvalues --   -0.30204  -0.29851  -0.29693  -0.28434  -0.28184
 Alpha  occ. eigenvalues --   -0.26920  -0.25592  -0.20753  -0.20568  -0.18924
 Alpha virt. eigenvalues --   -0.11916  -0.11056  -0.09456  -0.08366  -0.07224
 Alpha virt. eigenvalues --   -0.05241  -0.05144  -0.04368  -0.04047  -0.03978
 Alpha virt. eigenvalues --   -0.03100  -0.02698  -0.02335  -0.02268  -0.02007

 Mulliken charges:
               1
     1  N   -0.760473
     2  H    0.435795
     3  H    0.410170
     4  H    0.426713
     5  C   -0.122420
     6  H    0.227233
     7  C    0.667706
     8  C    0.100109
     9  H    0.189838
    10  O   -0.538818
    11  C   -0.474041
    12  H    0.184491
    13  H    0.155766
    14  H    0.189646
    15  O   -0.637105
    16  H    0.435047
    17  N   -0.596494
    18  H    0.368412
    19  C   -0.083688
    20  H    0.184497
    21  C    0.636147
    22  C   -0.089598
    23  H    0.179951
    24  O   -0.559836
    25  C   -0.251369
    26  H    0.107011
    27  H    0.142591
    28  C   -0.508369
    29  H    0.131480
    30  H    0.177991
    31  H    0.201042
    32  C   -0.465448
    33  H    0.139637
    34  H    0.154985
    35  H    0.192601
    36  N   -0.585537
    37  H    0.351401
    38  C   -0.056610
    39  H    0.175399
    40  C    0.643553
    41  C   -0.484509
    42  H    0.203873
    43  H    0.164835
    44  H    0.164461
    45  O   -0.569904
    46  N   -0.555656
    47  H    0.352889
    48  C   -0.094696
    49  H    0.196242
    50  C    0.652254
    51  C   -0.286206
    52  H    0.154938
    53  H    0.169732
    54  O   -0.544938
    55  C   -0.369240
    56  H    0.167577
    57  H    0.180217
    58  C    0.579095
    59  N   -0.785767
    60  H    0.412148
    61  H    0.338527
    62  O   -0.530247
    63  N   -0.601020
    64  H    0.341579
    65  C   -0.051708
    66  H    0.191180
    67  C    0.641461
    68  C   -0.376410
    69  H    0.152160
    70  H    0.155101
    71  O   -0.575384
    72  C    0.172251
    73  C   -0.173841
    74  H    0.126003
    75  C   -0.203592
    76  H    0.120950
    77  C   -0.154425
    78  H    0.135178
    79  C   -0.167407
    80  H    0.134093
    81  O   -0.684316
    82  H    0.429887
    83  C    0.348025
    84  N   -0.610352
    85  H    0.352407
    86  C   -0.035080
    87  H    0.174943
    88  C    0.595871
    89  C   -0.464252
    90  H    0.199340
    91  H    0.166024
    92  H    0.150316
    93  O   -0.591267
    94  N   -0.606195
    95  H    0.366204
    96  C   -0.078388
    97  H    0.139033
    98  C    0.587368
    99  C   -0.261525
   100  H    0.173297
   101  H    0.131764
   102  O   -0.584193
   103  C   -0.312219
   104  H    0.176355
   105  H    0.155809
   106  C   -0.152157
   107  H    0.182326
   108  H    0.182436
   109  N   -0.598305
   110  H    0.370969
   111  N   -0.754741
   112  H    0.381858
   113  H    0.397716
   114  N   -0.762676
   115  H    0.380681
   116  H    0.381907
   117  C    0.824104
   118  O   -0.614170
 Sum of Mulliken charges =   1.00000

 Dipole moment (field-independent basis, Debye):
    X=             -2.8821    Y=             -4.7232    Z=            -25.6535  Tot=             26.2434
 Quadrupole moment (field-independent basis, Debye-Ang):
   XX=             90.4333   YY=              2.5964   ZZ=           -381.6941
   XY=            402.3310   XZ=            -67.7857   YZ=             51.9563

 Normal termination of Gaussian 16 at Sun Jul 17 00:11:34 2022.
