 Gaussian 16, Revision C.01,
 Gaussian 16:  ES64L-G16RevC.01  3-Jul-2019

 ----------------------------------------------------------------------
 # B3LYP/6-31G* empiricaldispersion=gd3bj guess=read geom=check nosymm
 integral(ultrafinegrid)
 ----------------------------------------------------------------------

 ------------------------------------------------------
 Candidate Structure: Conf:472 Charge calc in gas phase
 ------------------------------------------------------
 Structure from the checkpoint file:  "conf-472.chk"
 Charge =  1 Multiplicity = 1

                          Input orientation:
 ---------------------------------------------------------------------
 Center     Atomic      Atomic             Coordinates (Angstroms)
 Number     Number       Type             X           Y           Z
 ---------------------------------------------------------------------
      1          7           0       -0.733710   -1.859604   -7.889609
      2          1           0       -0.211736   -1.135228   -7.343318
      3          1           0       -0.232093   -2.170820   -8.722260
      4          1           0       -0.926580   -2.650836   -7.237310
      5          6           0       -2.086932   -1.256314   -8.142557
      6          1           0       -2.138636   -0.881085   -9.167572
      7          6           0       -2.157156   -0.114288   -7.100956
      8          6           0       -3.121680   -2.388541   -7.853117
      9          1           0       -4.108853   -1.931955   -7.725625
     10          8           0       -1.151601    0.121085   -6.424921
     11          6           0       -3.174803   -3.422429   -8.969784
     12          1           0       -3.470074   -2.965771   -9.920050
     13          1           0       -2.206562   -3.918951   -9.105061
     14          1           0       -3.901820   -4.195063   -8.709642
     15          8           0       -2.712963   -3.020646   -6.655760
     16          1           0       -3.089738   -2.499977   -5.899117
     17          7           0       -3.336480    0.505630   -6.945275
     18          1           0       -4.125218    0.133500   -7.459455
     19          6           0       -3.667699    1.062937   -5.623739
     20          1           0       -2.946771    1.844788   -5.388317
     21          6           0       -3.506572   -0.092382   -4.614032
     22          6           0       -5.098725    1.637928   -5.652889
     23          1           0       -5.753950    0.831958   -6.019117
     24          8           0       -3.805461   -1.258095   -4.941022
     25          6           0       -5.207772    2.821098   -6.638638
     26          1           0       -6.271515    3.066400   -6.745626
     27          1           0       -4.868380    2.500204   -7.631987
     28          6           0       -5.583367    2.010603   -4.244941
     29          1           0       -4.884978    2.683498   -3.737667
     30          1           0       -5.705507    1.127853   -3.612110
     31          1           0       -6.551684    2.516816   -4.306678
     32          6           0       -4.438788    4.082341   -6.230706
     33          1           0       -4.542932    4.854389   -6.999332
     34          1           0       -3.368182    3.891742   -6.098763
     35          1           0       -4.825484    4.501517   -5.295482
     36          7           0       -3.026736    0.244663   -3.422536
     37          1           0       -2.812296    1.218034   -3.204395
     38          6           0       -2.707383   -0.722293   -2.381237
     39          1           0       -3.580567   -1.364505   -2.216177
     40          6           0       -2.420772    0.104213   -1.112942
     41          6           0       -1.498300   -1.583565   -2.790924
     42          1           0       -1.339655   -2.408893   -2.091379
     43          1           0       -0.589021   -0.980176   -2.805153
     44          1           0       -1.681952   -2.013688   -3.777700
     45          8           0       -2.532842    1.325893   -1.118400
     46          7           0       -2.037105   -0.613030   -0.022496
     47          1           0       -1.759453   -1.569283   -0.208246
     48          6           0       -1.199716    0.014164    0.996499
     49          1           0       -1.606640    1.010120    1.188256
     50          6           0        0.216315    0.175147    0.395219
     51          6           0       -1.268325   -0.850311    2.272213
     52          1           0       -1.172548   -1.902843    1.985166
     53          1           0       -2.265126   -0.712998    2.701827
     54          8           0        0.593133   -0.515990   -0.546714
     55          6           0       -0.188644   -0.595786    3.326017
     56          1           0        0.018866    0.468055    3.486961
     57          1           0       -0.544567   -0.978466    4.290708
     58          6           0        1.096098   -1.371344    3.009370
     59          7           0        2.231895   -0.862259    3.567133
     60          1           0        2.298080    0.133168    3.751004
     61          1           0        3.093662   -1.325524    3.307930
     62          8           0        1.072963   -2.416515    2.371975
     63          7           0        0.981172    1.144486    0.954229
     64          1           0        0.675402    1.654615    1.772560
     65          6           0        2.346035    1.379358    0.540053
     66          1           0        2.673063    0.481127    0.011615
     67          6           0        3.187570    1.618909    1.796998
     68          6           0        2.489075    2.620891   -0.398723
     69          1           0        3.439897    2.532227   -0.937367
     70          1           0        2.564336    3.518343    0.225567
     71          8           0        2.657380    1.982225    2.856701
     72          6           0        1.329949    2.787995   -1.349926
     73          6           0        1.146769    1.952530   -2.459453
     74          1           0        1.870305    1.169424   -2.664842
     75          6           0        0.370166    3.772208   -1.099135
     76          1           0        0.491251    4.431172   -0.243589
     77          6           0        0.035629    2.085601   -3.289167
     78          1           0       -0.114888    1.435381   -4.145595
     79          6           0       -0.747970    3.919188   -1.914496
     80          1           0       -1.498248    4.673510   -1.688338
     81          8           0       -2.041184    3.126171   -3.800894
     82          1           0       -2.610955    3.841420   -3.476530
     83          6           0       -0.913904    3.064286   -2.998456
     84          7           0        4.508405    1.454076    1.641525
     85          1           0        4.924822    1.242709    0.735677
     86          6           0        5.496253    1.808608    2.646959
     87          1           0        5.210519    2.765447    3.099760
     88          6           0        6.822465    1.974837    1.875976
     89          6           0        5.609369    0.745876    3.749936
     90          1           0        6.375303    1.019039    4.481743
     91          1           0        4.655305    0.654063    4.274459
     92          1           0        5.879257   -0.222845    3.316867
     93          8           0        6.893644    1.675501    0.677885
     94          7           0        7.849245    2.432298    2.602071
     95          1           0        7.772210    2.664898    3.590511
     96          6           0        9.217701    2.550781    2.116402
     97          1           0        9.456363    1.683704    1.494434
     98          6           0       10.110009    2.566865    3.384301
     99          6           0        9.344555    3.844206    1.265958
    100          1           0        9.209853    4.704578    1.935086
    101          1           0        8.484048    3.832221    0.590884
    102          8           0        9.595540    2.998868    4.430214
    103          6           0       10.619952    4.017349    0.409278
    104          1           0       10.339876    4.421983   -0.569934
    105          1           0       11.081997    3.042077    0.210319
    106          6           0       11.686209    4.964509    0.979890
    107          1           0       11.228101    5.928966    1.231092
    108          1           0       12.461662    5.145894    0.225060
    109          7           0       12.284764    4.377374    2.177166
    110          1           0       12.077386    3.365203    2.318925
    111          7           0       12.586975    6.353040    3.387041
    112          1           0       12.860256    6.788709    4.255848
    113          1           0       12.863083    6.845582    2.550233
    114          7           0       12.589770    4.258369    4.443930
    115          1           0       12.622029    4.707141    5.347582
    116          1           0       12.156467    3.312331    4.369924
    117          6           0       12.486509    5.000279    3.336180
    118          8           0       11.323815    2.191402    3.229563
 ---------------------------------------------------------------------

 SCF Done:  E(RB3LYP) =  -2837.91862257     A.U. after    1 cycles

 Alpha  occ. eigenvalues --  -19.26609 -19.26388 -19.26123 -19.21634 -19.19307
 Alpha  occ. eigenvalues --  -19.17921 -19.17177 -19.16482 -19.15366 -19.13416
 Alpha  occ. eigenvalues --  -19.12889 -14.57966 -14.48757 -14.45722 -14.44718
 Alpha  occ. eigenvalues --  -14.42586 -14.42559 -14.42343 -14.41754 -14.41707
 Alpha  occ. eigenvalues --  -14.39718 -14.38887 -10.42865 -10.40255 -10.39290
 Alpha  occ. eigenvalues --  -10.38283 -10.37894 -10.36066 -10.34935 -10.34316
 Alpha  occ. eigenvalues --  -10.33424 -10.32899 -10.32828 -10.31367 -10.31261
 Alpha  occ. eigenvalues --  -10.30931 -10.29758 -10.29595 -10.29369 -10.29304
 Alpha  occ. eigenvalues --  -10.29146 -10.28828 -10.26885 -10.26080 -10.26015
 Alpha  occ. eigenvalues --  -10.25555 -10.25339 -10.25222 -10.25116 -10.25094
 Alpha  occ. eigenvalues --  -10.25028 -10.25005 -10.24933 -10.24783 -10.24700
 Alpha  occ. eigenvalues --  -10.24653 -10.23595 -10.23470  -1.18950  -1.15130
 Alpha  occ. eigenvalues --   -1.13516  -1.13253  -1.11542  -1.11209  -1.10014
 Alpha  occ. eigenvalues --   -1.09238  -1.09009  -1.08182  -1.07129  -1.06474
 Alpha  occ. eigenvalues --   -1.05566  -1.01504  -0.99427  -0.99020  -0.98497
 Alpha  occ. eigenvalues --   -0.98357  -0.97714  -0.96936  -0.96153  -0.94042
 Alpha  occ. eigenvalues --   -0.91974  -0.91553  -0.90084  -0.86716  -0.85492
 Alpha  occ. eigenvalues --   -0.85118  -0.84792  -0.83998  -0.82686  -0.81781
 Alpha  occ. eigenvalues --   -0.80973  -0.79586  -0.79171  -0.78505  -0.77192
 Alpha  occ. eigenvalues --   -0.74620  -0.73759  -0.73388  -0.73242  -0.72700
 Alpha  occ. eigenvalues --   -0.72461  -0.71404  -0.70914  -0.70486  -0.70395
 Alpha  occ. eigenvalues --   -0.68821  -0.68274  -0.67227  -0.66581  -0.66301
 Alpha  occ. eigenvalues --   -0.65738  -0.65344  -0.64991  -0.64676  -0.64344
 Alpha  occ. eigenvalues --   -0.63860  -0.63314  -0.62623  -0.62202  -0.61562
 Alpha  occ. eigenvalues --   -0.61385  -0.61150  -0.60934  -0.60625  -0.59304
 Alpha  occ. eigenvalues --   -0.58258  -0.57935  -0.57548  -0.57194  -0.56585
 Alpha  occ. eigenvalues --   -0.56493  -0.55886  -0.55489  -0.54976  -0.54883
 Alpha  occ. eigenvalues --   -0.54393  -0.53906  -0.53553  -0.53448  -0.53300
 Alpha  occ. eigenvalues --   -0.52928  -0.52745  -0.52578  -0.52237  -0.51900
 Alpha  occ. eigenvalues --   -0.51799  -0.51639  -0.51388  -0.51138  -0.50631
 Alpha  occ. eigenvalues --   -0.50467  -0.50047  -0.49671  -0.49575  -0.49437
 Alpha  occ. eigenvalues --   -0.48873  -0.48817  -0.48636  -0.48541  -0.48387
 Alpha  occ. eigenvalues --   -0.48330  -0.47611  -0.47386  -0.47350  -0.47136
 Alpha  occ. eigenvalues --   -0.46907  -0.46594  -0.46223  -0.46095  -0.45989
 Alpha  occ. eigenvalues --   -0.45708  -0.45448  -0.45211  -0.45168  -0.44821
 Alpha  occ. eigenvalues --   -0.44771  -0.44523  -0.44207  -0.43615  -0.43301
 Alpha  occ. eigenvalues --   -0.42901  -0.42542  -0.42309  -0.42005  -0.41938
 Alpha  occ. eigenvalues --   -0.41763  -0.41633  -0.41397  -0.41130  -0.41090
 Alpha  occ. eigenvalues --   -0.40970  -0.40786  -0.40493  -0.40084  -0.39926
 Alpha  occ. eigenvalues --   -0.39823  -0.39490  -0.39186  -0.38879  -0.38734
 Alpha  occ. eigenvalues --   -0.38367  -0.36231  -0.35528  -0.34875  -0.33750
 Alpha  occ. eigenvalues --   -0.32935  -0.32821  -0.32666  -0.32047  -0.31483
 Alpha  occ. eigenvalues --   -0.30921  -0.30846  -0.30539  -0.30332  -0.30292
 Alpha  occ. eigenvalues --   -0.29082  -0.28770  -0.28258  -0.27622  -0.27121
 Alpha virt. eigenvalues --   -0.12637  -0.08612  -0.07744  -0.06259  -0.05974
 Alpha virt. eigenvalues --   -0.05145  -0.05112  -0.04842  -0.03666  -0.03415
 Alpha virt. eigenvalues --   -0.03234  -0.02472  -0.02093  -0.01752  -0.01298

 Mulliken charges:
               1
     1  N   -0.751898
     2  H    0.428535
     3  H    0.408276
     4  H    0.426216
     5  C   -0.127424
     6  H    0.216268
     7  C    0.640496
     8  C    0.088744
     9  H    0.170430
    10  O   -0.522819
    11  C   -0.451523
    12  H    0.165703
    13  H    0.146620
    14  H    0.208159
    15  O   -0.663481
    16  H    0.482720
    17  N   -0.581788
    18  H    0.343692
    19  C   -0.078435
    20  H    0.235953
    21  C    0.645882
    22  C   -0.112253
    23  H    0.134731
    24  O   -0.619725
    25  C   -0.258325
    26  H    0.156044
    27  H    0.131545
    28  C   -0.471054
    29  H    0.148527
    30  H    0.172607
    31  H    0.168142
    32  C   -0.469531
    33  H    0.165173
    34  H    0.161869
    35  H    0.150603
    36  N   -0.617667
    37  H    0.414947
    38  C   -0.058176
    39  H    0.190619
    40  C    0.628563
    41  C   -0.460809
    42  H    0.164568
    43  H    0.199994
    44  H    0.145961
    45  O   -0.531439
    46  N   -0.586749
    47  H    0.344383
    48  C   -0.083005
    49  H    0.183543
    50  C    0.642855
    51  C   -0.272852
    52  H    0.180449
    53  H    0.157616
    54  O   -0.546812
    55  C   -0.381648
    56  H    0.145744
    57  H    0.189277
    58  C    0.593335
    59  N   -0.771134
    60  H    0.372861
    61  H    0.336318
    62  O   -0.509641
    63  N   -0.606915
    64  H    0.346710
    65  C   -0.040667
    66  H    0.192590
    67  C    0.623403
    68  C   -0.382529
    69  H    0.164469
    70  H    0.160692
    71  O   -0.575524
    72  C    0.191234
    73  C   -0.166934
    74  H    0.138017
    75  C   -0.196812
    76  H    0.135454
    77  C   -0.183590
    78  H    0.148900
    79  C   -0.170993
    80  H    0.128762
    81  O   -0.681212
    82  H    0.420995
    83  C    0.362370
    84  N   -0.608118
    85  H    0.361980
    86  C   -0.040235
    87  H    0.180236
    88  C    0.621588
    89  C   -0.457598
    90  H    0.172202
    91  H    0.170771
    92  H    0.161720
    93  O   -0.560805
    94  N   -0.618322
    95  H    0.356402
    96  C   -0.028739
    97  H    0.167970
    98  C    0.587557
    99  C   -0.273970
   100  H    0.140492
   101  H    0.171564
   102  O   -0.564002
   103  C   -0.303229
   104  H    0.155609
   105  H    0.172173
   106  C   -0.148807
   107  H    0.157405
   108  H    0.164240
   109  N   -0.602130
   110  H    0.406305
   111  N   -0.753482
   112  H    0.361104
   113  H    0.366460
   114  N   -0.755159
   115  H    0.346572
   116  H    0.413231
   117  C    0.755318
   118  O   -0.644500
 Sum of Mulliken charges =   1.00000

 Dipole moment (field-independent basis, Debye):
    X=              5.3164    Y=             10.6081    Z=            -25.6113  Tot=             28.2264
 Quadrupole moment (field-independent basis, Debye-Ang):
   XX=            -91.8118   YY=           -244.0233   ZZ=            -78.5957
   XY=            140.2941   XZ=            104.1207   YZ=             72.4591

 Normal termination of Gaussian 16 at Sun Jul 17 00:10:05 2022.
