 Gaussian 16, Revision C.01,
 Gaussian 16:  ES64L-G16RevC.01  3-Jul-2019

 ----------------------------------------------------------------------
 # B3LYP/6-31G* empiricaldispersion=gd3bj guess=read geom=check nosymm
 integral(ultrafinegrid)
 ----------------------------------------------------------------------

 ------------------------------------------------------
 Candidate Structure: Conf:883 Charge calc in gas phase
 ------------------------------------------------------
 Structure from the checkpoint file:  "conf-883.chk"
 Charge =  1 Multiplicity = 1

                          Input orientation:
 ---------------------------------------------------------------------
 Center     Atomic      Atomic             Coordinates (Angstroms)
 Number     Number       Type             X           Y           Z
 ---------------------------------------------------------------------
      1          7           0       -3.094550   -3.077520    0.768436
      2          1           0       -3.724026   -2.626313    1.434972
      3          1           0       -2.364262   -3.638543    1.267571
      4          1           0       -3.645570   -3.638840    0.090396
      5          6           0       -2.303405   -2.111774   -0.064077
      6          1           0       -2.137928   -1.192995    0.501816
      7          6           0       -3.104367   -1.906346   -1.350169
      8          6           0       -0.951690   -2.847578   -0.323458
      9          1           0       -1.155583   -3.671950   -1.018537
     10          8           0       -3.836260   -2.822194   -1.744955
     11          6           0        0.094344   -1.920607   -0.927953
     12          1           0       -0.212924   -1.571356   -1.917535
     13          1           0        0.246135   -1.053172   -0.281245
     14          1           0        1.038252   -2.466280   -1.018990
     15          8           0       -0.561769   -3.453701    0.895604
     16          1           0       -0.276103   -2.710183    1.511665
     17          7           0       -2.889523   -0.731689   -1.941435
     18          1           0       -2.338910   -0.039938   -1.427150
     19          6           0       -3.401719   -0.313988   -3.234482
     20          1           0       -4.024814   -1.124150   -3.629414
     21          6           0       -2.160858   -0.134767   -4.148558
     22          6           0       -4.284095    0.954627   -2.983917
     23          1           0       -3.665716    1.631299   -2.376930
     24          8           0       -1.030310   -0.385906   -3.733910
     25          6           0       -5.512523    0.550794   -2.136441
     26          1           0       -5.246926   -0.262740   -1.455004
     27          1           0       -6.283440    0.147796   -2.807507
     28          6           0       -4.740930    1.725801   -4.230636
     29          1           0       -5.199902    1.055869   -4.971719
     30          1           0       -3.932980    2.299720   -4.690296
     31          1           0       -5.515391    2.444947   -3.948750
     32          6           0       -6.080459    1.709537   -1.313237
     33          1           0       -6.964884    1.392198   -0.750897
     34          1           0       -6.379023    2.556600   -1.940346
     35          1           0       -5.335695    2.072036   -0.594684
     36          7           0       -2.351283    0.333516   -5.412922
     37          1           0       -3.273974    0.662393   -5.658173
     38          6           0       -1.239613    1.019976   -6.092588
     39          1           0       -0.407895    0.315600   -6.170371
     40          6           0       -0.861126    2.215378   -5.189132
     41          6           0       -1.684074    1.488210   -7.472682
     42          1           0       -0.844197    1.942664   -8.006011
     43          1           0       -2.471569    2.242622   -7.379703
     44          1           0       -2.054420    0.644730   -8.062700
     45          8           0       -1.661152    3.123727   -4.979848
     46          7           0        0.357049    2.152621   -4.582732
     47          1           0        0.860193    1.273455   -4.628595
     48          6           0        0.568152    2.877593   -3.337182
     49          1           0        0.241209    3.911842   -3.474050
     50          6           0        2.045087    2.787700   -2.977190
     51          6           0       -0.253605    2.176979   -2.221623
     52          1           0        0.107907    1.146023   -2.177541
     53          1           0       -1.282552    2.126902   -2.577436
     54          8           0        2.727807    1.812604   -3.289492
     55          6           0       -0.260448    2.787432   -0.810985
     56          1           0        0.722347    3.142963   -0.496009
     57          1           0       -0.955984    3.633660   -0.765567
     58          6           0       -0.737401    1.705186    0.150373
     59          7           0        0.065302    1.437777    1.193962
     60          1           0        0.972304    1.885283    1.277355
     61          1           0       -0.119775    0.598357    1.752482
     62          8           0       -1.785746    1.074027   -0.062316
     63          7           0        2.524817    3.798332   -2.197580
     64          1           0        1.877931    4.512908   -1.890348
     65          6           0        3.764871    3.646024   -1.435112
     66          1           0        4.527930    3.307069   -2.139673
     67          6           0        3.515174    2.555212   -0.367368
     68          6           0        4.151145    4.988554   -0.822235
     69          1           0        3.356386    5.285688   -0.128711
     70          1           0        4.174473    5.730829   -1.630911
     71          8           0        2.885697    2.798772    0.667514
     72          6           0        5.469524    4.988960   -0.078968
     73          6           0        6.574481    4.235750   -0.493285
     74          1           0        6.511757    3.605376   -1.374450
     75          6           0        5.617326    5.807468    1.047370
     76          1           0        4.774755    6.403372    1.386850
     77          6           0        7.783384    4.275003    0.205561
     78          1           0        8.641231    3.694624   -0.118696
     79          6           0        6.816184    5.867199    1.750699
     80          1           0        6.903295    6.497053    2.632725
     81          8           0        9.064011    5.001303    2.067472
     82          1           0        9.210468    5.835888    2.542273
     83          6           0        7.897185    5.087732    1.334146
     84          7           0        3.957924    1.327194   -0.719520
     85          1           0        4.206526    1.239858   -1.700048
     86          6           0        3.394130    0.103875   -0.149831
     87          1           0        2.326576    0.073542   -0.399611
     88          6           0        3.545164    0.037636    1.375928
     89          6           0        4.094619   -1.105581   -0.773031
     90          1           0        3.649038   -2.030798   -0.397493
     91          1           0        3.985008   -1.092788   -1.862756
     92          1           0        5.156936   -1.099209   -0.513523
     93          8           0        4.632780    0.256213    1.935088
     94          7           0        2.431327   -0.361144    1.987019
     95          1           0        1.608411   -0.590846    1.427424
     96          6           0        2.200825   -0.818405    3.354960
     97          1           0        2.931791   -1.595040    3.607748
     98          6           0        0.777294   -1.482497    3.351665
     99          6           0        2.232859    0.262253    4.446628
    100          1           0        1.810498   -0.223865    5.329860
    101          1           0        1.534972    1.066202    4.172993
    102          8           0        0.430787   -2.083410    4.358894
    103          6           0        3.620912    0.842871    4.783518
    104          1           0        4.409809    0.183983    4.411563
    105          1           0        3.735145    0.908777    5.873551
    106          6           0        3.827056    2.239434    4.196033
    107          1           0        3.088430    2.936988    4.607345
    108          1           0        3.707112    2.248902    3.112845
    109          7           0        5.153772    2.784734    4.518151
    110          1           0        5.353740    2.925209    5.500269
    111          7           0        6.158276    2.448689    2.443674
    112          1           0        6.835216    2.777946    1.767113
    113          1           0        5.531883    1.674143    2.164816
    114          7           0        7.283374    3.581970    4.135261
    115          1           0        8.067515    3.754234    3.513042
    116          1           0        7.165514    4.252305    4.881575
    117          6           0        6.186723    2.928555    3.678367
    118          8           0        0.101110   -1.302358    2.255666
 ---------------------------------------------------------------------

 SCF Done:  E(RB3LYP) =  -2837.95812835     A.U. after    2 cycles

 Alpha  occ. eigenvalues --  -19.29327 -19.22725 -19.22222 -19.21460 -19.20707
 Alpha  occ. eigenvalues --  -19.20526 -19.19932 -19.19849 -19.19222 -19.16688
 Alpha  occ. eigenvalues --  -19.14645 -14.53544 -14.48787 -14.48424 -14.46962
 Alpha  occ. eigenvalues --  -14.46504 -14.45994 -14.43823 -14.43658 -14.43509
 Alpha  occ. eigenvalues --  -14.43351 -14.42664 -10.44534 -10.39183 -10.38998
 Alpha  occ. eigenvalues --  -10.37676 -10.37556 -10.37274 -10.36827 -10.36087
 Alpha  occ. eigenvalues --  -10.35828 -10.34172 -10.33469 -10.33251 -10.32748
 Alpha  occ. eigenvalues --  -10.32614 -10.32303 -10.31856 -10.31330 -10.31072
 Alpha  occ. eigenvalues --  -10.30252 -10.29987 -10.29948 -10.29911 -10.29845
 Alpha  occ. eigenvalues --  -10.29524 -10.29003 -10.27705 -10.27378 -10.27076
 Alpha  occ. eigenvalues --  -10.27006 -10.26506 -10.25771 -10.25396 -10.24736
 Alpha  occ. eigenvalues --  -10.24581 -10.24377 -10.23452  -1.16945  -1.14700
 Alpha  occ. eigenvalues --   -1.13696  -1.13239  -1.13090  -1.12192  -1.11879
 Alpha  occ. eigenvalues --   -1.11154  -1.10885  -1.10339  -1.08813  -1.06745
 Alpha  occ. eigenvalues --   -1.03463  -1.02697  -1.02551  -1.01401  -1.01334
 Alpha  occ. eigenvalues --   -1.00780  -1.00435  -1.00198  -0.99310  -0.97949
 Alpha  occ. eigenvalues --   -0.96438  -0.90202  -0.88881  -0.88206  -0.87804
 Alpha  occ. eigenvalues --   -0.86602  -0.85947  -0.85759  -0.84648  -0.83719
 Alpha  occ. eigenvalues --   -0.82278  -0.81108  -0.80465  -0.78908  -0.77276
 Alpha  occ. eigenvalues --   -0.77234  -0.76831  -0.74292  -0.73232  -0.73136
 Alpha  occ. eigenvalues --   -0.72588  -0.71498  -0.70778  -0.70693  -0.70327
 Alpha  occ. eigenvalues --   -0.69811  -0.68863  -0.68460  -0.68177  -0.67789
 Alpha  occ. eigenvalues --   -0.67757  -0.66718  -0.66464  -0.66051  -0.65942
 Alpha  occ. eigenvalues --   -0.65621  -0.65387  -0.64564  -0.63836  -0.63423
 Alpha  occ. eigenvalues --   -0.62069  -0.61850  -0.61639  -0.61197  -0.60853
 Alpha  occ. eigenvalues --   -0.60318  -0.59380  -0.59061  -0.58670  -0.58444
 Alpha  occ. eigenvalues --   -0.57756  -0.57227  -0.57194  -0.56759  -0.56588
 Alpha  occ. eigenvalues --   -0.56262  -0.56160  -0.55694  -0.55424  -0.54675
 Alpha  occ. eigenvalues --   -0.54236  -0.54066  -0.53996  -0.53699  -0.53312
 Alpha  occ. eigenvalues --   -0.53138  -0.53087  -0.52676  -0.52302  -0.52025
 Alpha  occ. eigenvalues --   -0.51937  -0.51662  -0.51427  -0.50830  -0.50464
 Alpha  occ. eigenvalues --   -0.50308  -0.50166  -0.49858  -0.49643  -0.49212
 Alpha  occ. eigenvalues --   -0.49182  -0.48894  -0.48824  -0.48446  -0.48369
 Alpha  occ. eigenvalues --   -0.48095  -0.47816  -0.47546  -0.47199  -0.47038
 Alpha  occ. eigenvalues --   -0.46949  -0.46509  -0.46153  -0.46006  -0.45891
 Alpha  occ. eigenvalues --   -0.45634  -0.45388  -0.45140  -0.45012  -0.44923
 Alpha  occ. eigenvalues --   -0.44650  -0.44487  -0.44392  -0.44250  -0.43923
 Alpha  occ. eigenvalues --   -0.43741  -0.43357  -0.43226  -0.43213  -0.42927
 Alpha  occ. eigenvalues --   -0.42831  -0.42392  -0.41627  -0.41303  -0.39876
 Alpha  occ. eigenvalues --   -0.39671  -0.39560  -0.39351  -0.39000  -0.38290
 Alpha  occ. eigenvalues --   -0.37232  -0.36957  -0.36592  -0.36247  -0.36170
 Alpha  occ. eigenvalues --   -0.35377  -0.35213  -0.34691  -0.34499  -0.34194
 Alpha  occ. eigenvalues --   -0.34063  -0.33856  -0.33723  -0.33519  -0.33311
 Alpha  occ. eigenvalues --   -0.33182  -0.31544  -0.31420  -0.31327  -0.28475
 Alpha virt. eigenvalues --   -0.11733  -0.10401  -0.09277  -0.08952  -0.08016
 Alpha virt. eigenvalues --   -0.07283  -0.06841  -0.06728  -0.06054  -0.05368
 Alpha virt. eigenvalues --   -0.05306  -0.04133  -0.03322  -0.01970  -0.01939

 Mulliken charges:
               1
     1  N   -0.744731
     2  H    0.406038
     3  H    0.419996
     4  H    0.408552
     5  C   -0.170386
     6  H    0.235637
     7  C    0.629580
     8  C    0.141982
     9  H    0.163767
    10  O   -0.551974
    11  C   -0.533751
    12  H    0.213606
    13  H    0.164971
    14  H    0.164254
    15  O   -0.677705
    16  H    0.459771
    17  N   -0.601861
    18  H    0.416187
    19  C   -0.119227
    20  H    0.201332
    21  C    0.626313
    22  C   -0.068866
    23  H    0.150418
    24  O   -0.523977
    25  C   -0.256792
    26  H    0.138431
    27  H    0.144499
    28  C   -0.529353
    29  H    0.143809
    30  H    0.195974
    31  H    0.170032
    32  C   -0.457624
    33  H    0.154249
    34  H    0.153461
    35  H    0.152676
    36  N   -0.590490
    37  H    0.347778
    38  C   -0.035907
    39  H    0.168859
    40  C    0.611841
    41  C   -0.482891
    42  H    0.174724
    43  H    0.179913
    44  H    0.172354
    45  O   -0.528148
    46  N   -0.574283
    47  H    0.357120
    48  C   -0.077490
    49  H    0.182671
    50  C    0.637839
    51  C   -0.294827
    52  H    0.182875
    53  H    0.190226
    54  O   -0.544999
    55  C   -0.390801
    56  H    0.151307
    57  H    0.180874
    58  C    0.614640
    59  N   -0.797346
    60  H    0.378225
    61  H    0.386838
    62  O   -0.563683
    63  N   -0.608546
    64  H    0.345496
    65  C   -0.055578
    66  H    0.178606
    67  C    0.639981
    68  C   -0.381748
    69  H    0.171198
    70  H    0.187417
    71  O   -0.559132
    72  C    0.182540
    73  C   -0.184541
    74  H    0.150682
    75  C   -0.181655
    76  H    0.151537
    77  C   -0.209023
    78  H    0.172939
    79  C   -0.182044
    80  H    0.136706
    81  O   -0.649819
    82  H    0.424388
    83  C    0.316645
    84  N   -0.583220
    85  H    0.364767
    86  C   -0.057881
    87  H    0.165501
    88  C    0.667247
    89  C   -0.485545
    90  H    0.182123
    91  H    0.175385
    92  H    0.183257
    93  O   -0.595805
    94  N   -0.639113
    95  H    0.387285
    96  C   -0.052946
    97  H    0.176281
    98  C    0.594441
    99  C   -0.282846
   100  H    0.193472
   101  H    0.134997
   102  O   -0.512316
   103  C   -0.261537
   104  H    0.176730
   105  H    0.137029
   106  C   -0.179188
   107  H    0.169704
   108  H    0.207106
   109  N   -0.603473
   110  H    0.350048
   111  N   -0.798839
   112  H    0.369109
   113  H    0.447133
   114  N   -0.780030
   115  H    0.388634
   116  H    0.352999
   117  C    0.789717
   118  O   -0.682778
 Sum of Mulliken charges =   1.00000

 Dipole moment (field-independent basis, Debye):
    X=             14.8745    Y=             15.2443    Z=              2.8073  Tot=             21.4830
 Quadrupole moment (field-independent basis, Debye-Ang):
   XX=           -168.6857   YY=           -260.7260   ZZ=           -277.0214
   XY=            110.5760   XZ=             66.1851   YZ=             46.3624

 Normal termination of Gaussian 16 at Sun Jul 17 00:11:34 2022.
