 Gaussian 16, Revision C.01,
 Gaussian 16:  ES64L-G16RevC.01  3-Jul-2019

 ----------------------------------------------------------------------
 # B3LYP/6-31G* empiricaldispersion=gd3bj guess=read geom=check nosymm
 integral(ultrafinegrid)
 ----------------------------------------------------------------------

 ------------------------------------------------------
 Candidate Structure: Conf:242 Charge calc in gas phase
 ------------------------------------------------------
 Structure from the checkpoint file:  "conf-242.chk"
 Charge =  1 Multiplicity = 1

                          Input orientation:
 ---------------------------------------------------------------------
 Center     Atomic      Atomic             Coordinates (Angstroms)
 Number     Number       Type             X           Y           Z
 ---------------------------------------------------------------------
      1          7           0       -6.641135   -3.258055   -6.697478
      2          1           0       -7.153005   -3.388130   -5.782958
      3          1           0       -6.636472   -4.106842   -7.265360
      4          1           0       -7.088410   -2.473883   -7.205611
      5          6           0       -5.286105   -2.770179   -6.267770
      6          1           0       -4.572266   -3.595228   -6.335923
      7          6           0       -5.507445   -2.393776   -4.778376
      8          6           0       -4.890311   -1.591670   -7.194274
      9          1           0       -4.089117   -1.022429   -6.711069
     10          8           0       -6.588557   -2.700329   -4.257774
     11          6           0       -4.431809   -2.057598   -8.568808
     12          1           0       -3.550538   -2.701619   -8.488323
     13          1           0       -5.223646   -2.609270   -9.088686
     14          1           0       -4.177989   -1.190331   -9.182217
     15          8           0       -6.052512   -0.780754   -7.371909
     16          1           0       -6.102678   -0.110727   -6.670787
     17          7           0       -4.509817   -1.755882   -4.180485
     18          1           0       -3.610872   -1.595036   -4.632389
     19          6           0       -4.478365   -1.424408   -2.753611
     20          1           0       -5.456752   -1.025044   -2.477089
     21          6           0       -3.388154   -0.350645   -2.650941
     22          6           0       -4.157736   -2.685334   -1.888670
     23          1           0       -5.035261   -3.335491   -2.003952
     24          8           0       -2.411733   -0.403638   -3.412338
     25          6           0       -4.029071   -2.343455   -0.392424
     26          1           0       -3.214984   -1.624602   -0.244328
     27          1           0       -3.707218   -3.255015    0.122039
     28          6           0       -2.925516   -3.436278   -2.412743
     29          1           0       -2.060259   -2.775141   -2.508795
     30          1           0       -3.115303   -3.878813   -3.397619
     31          1           0       -2.649245   -4.237829   -1.723908
     32          6           0       -5.315750   -1.824012    0.256369
     33          1           0       -5.171721   -1.665296    1.329255
     34          1           0       -6.137002   -2.538765    0.130473
     35          1           0       -5.659698   -0.868679   -0.163787
     36          7           0       -3.556201    0.604200   -1.720474
     37          1           0       -4.334021    0.528471   -1.076395
     38          6           0       -2.514619    1.591749   -1.395962
     39          1           0       -1.934748    1.725224   -2.313161
     40          6           0       -1.603003    0.997930   -0.300878
     41          6           0       -3.138269    2.905117   -0.947983
     42          1           0       -2.351695    3.629195   -0.723441
     43          1           0       -3.716704    2.767000   -0.029903
     44          1           0       -3.783915    3.308986   -1.733003
     45          8           0       -1.618116    1.416872    0.851593
     46          7           0       -0.837806   -0.049230   -0.701619
     47          1           0       -0.838301   -0.318863   -1.678982
     48          6           0       -0.093084   -0.863248    0.263135
     49          1           0       -0.602602   -0.715450    1.221797
     50          6           0        1.353871   -0.348855    0.419516
     51          6           0       -0.155168   -2.332199   -0.138662
     52          1           0        0.461356   -2.497271   -1.029690
     53          1           0       -1.187613   -2.572907   -0.392279
     54          8           0        2.329805   -1.063384    0.179009
     55          6           0        0.280529   -3.290782    0.969411
     56          1           0        1.369087   -3.298946    1.066371
     57          1           0       -0.125663   -2.951885    1.933467
     58          6           0       -0.286205   -4.689031    0.732338
     59          7           0        0.510179   -5.713489    1.136219
     60          1           0        1.406144   -5.558819    1.572731
     61          1           0        0.154135   -6.657483    1.078804
     62          8           0       -1.393668   -4.880836    0.234912
     63          7           0        1.443351    0.930647    0.834281
     64          1           0        0.614139    1.495554    1.015254
     65          6           0        2.716123    1.605935    0.978492
     66          1           0        3.385174    0.989664    1.588590
     67          6           0        2.423323    2.953254    1.647643
     68          6           0        3.390028    1.849961   -0.405467
     69          1           0        2.879779    2.687020   -0.893928
     70          1           0        3.214150    0.952796   -1.003844
     71          8           0        1.324860    3.493101    1.496989
     72          6           0        4.874438    2.096111   -0.309500
     73          6           0        5.421846    3.384098   -0.320658
     74          1           0        4.766121    4.246396   -0.397324
     75          6           0        5.745377    1.006653   -0.182008
     76          1           0        5.333324    0.001006   -0.158492
     77          6           0        6.797336    3.587543   -0.232630
     78          1           0        7.205310    4.591179   -0.242045
     79          6           0        7.123599    1.191901   -0.093595
     80          1           0        7.788077    0.334563   -0.005525
     81          8           0        9.015477    2.714765   -0.073343
     82          1           0        9.470958    1.863946    0.030396
     83          6           0        7.641773    2.485040   -0.129347
     84          7           0        3.449892    3.500412    2.317107
     85          1           0        4.351416    3.040061    2.412348
     86          6           0        3.432780    4.862222    2.827137
     87          1           0        2.941868    5.502764    2.086533
     88          6           0        4.912983    5.257369    2.988867
     89          6           0        2.681321    4.968961    4.161331
     90          1           0        2.673846    6.005052    4.513848
     91          1           0        1.650241    4.632400    4.026019
     92          1           0        3.168164    4.345016    4.917674
     93          8           0        5.758296    4.365339    3.149094
     94          7           0        5.136617    6.575659    2.964209
     95          1           0        4.403046    7.212541    2.642614
     96          6           0        6.408477    7.290530    2.948118
     97          1           0        6.556226    7.784884    3.919129
     98          6           0        6.220819    8.425397    1.829312
     99          6           0        7.645513    6.530356    2.541962
    100          1           0        8.307624    7.371365    2.351160
    101          1           0        7.423474    6.062513    1.578605
    102          8           0        7.260366    8.777928    1.190289
    103          6           0        8.496014    5.569846    3.354192
    104          1           0        8.055504    4.572933    3.408806
    105          1           0        8.657738    5.925382    4.379546
    106          6           0        9.857527    5.564663    2.630398
    107          1           0       10.549092    4.824849    3.046286
    108          1           0       10.331778    6.547437    2.702865
    109          7           0        9.735068    5.244582    1.195813
    110          1           0        9.601216    4.259476    0.976861
    111          7           0        9.413936    7.384481    0.202684
    112          1           0        9.564179    7.870208   -0.673769
    113          1           0        8.641261    7.844283    0.767751
    114          7           0        9.800172    5.491768   -1.086670
    115          1           0        9.290329    5.900393   -1.858269
    116          1           0        9.890639    4.482377   -1.123878
    117          6           0        9.618154    6.060490    0.142568
    118          8           0        5.053179    8.826713    1.690200
 ---------------------------------------------------------------------

 SCF Done:  E(RB3LYP) =  -2837.86169286     A.U. after    2 cycles

 Alpha  occ. eigenvalues --  -19.31273 -19.27472 -19.27189 -19.23239 -19.19322
 Alpha  occ. eigenvalues --  -19.17635 -19.17012 -19.15468 -19.14128 -19.09556
 Alpha  occ. eigenvalues --  -19.08679 -14.59852 -14.50450 -14.47376 -14.44440
 Alpha  occ. eigenvalues --  -14.44342 -14.43620 -14.42159 -14.41740 -14.40456
 Alpha  occ. eigenvalues --  -14.39461 -14.37465 -10.44351 -10.41238 -10.40716
 Alpha  occ. eigenvalues --  -10.40236 -10.40143 -10.36324 -10.35335 -10.34963
 Alpha  occ. eigenvalues --  -10.33897 -10.32681 -10.32226 -10.31873 -10.31799
 Alpha  occ. eigenvalues --  -10.31216 -10.29646 -10.29109 -10.28325 -10.28187
 Alpha  occ. eigenvalues --  -10.27294 -10.26409 -10.26378 -10.26023 -10.25668
 Alpha  occ. eigenvalues --  -10.25638 -10.25560 -10.25355 -10.25175 -10.25127
 Alpha  occ. eigenvalues --  -10.25117 -10.25066 -10.25004 -10.24305 -10.23483
 Alpha  occ. eigenvalues --  -10.21887 -10.20983 -10.20345  -1.20393  -1.18446
 Alpha  occ. eigenvalues --   -1.15207  -1.14204  -1.13810  -1.11380  -1.09305
 Alpha  occ. eigenvalues --   -1.08745  -1.08533  -1.07471  -1.07097  -1.05723
 Alpha  occ. eigenvalues --   -1.03560  -1.02357  -0.99959  -0.98333  -0.97196
 Alpha  occ. eigenvalues --   -0.96718  -0.96124  -0.96044  -0.94642  -0.94145
 Alpha  occ. eigenvalues --   -0.93244  -0.91767  -0.91107  -0.87114  -0.86953
 Alpha  occ. eigenvalues --   -0.85550  -0.84568  -0.83825  -0.82902  -0.81212
 Alpha  occ. eigenvalues --   -0.80864  -0.80383  -0.79651  -0.77799  -0.76973
 Alpha  occ. eigenvalues --   -0.76556  -0.75036  -0.74344  -0.73403  -0.72795
 Alpha  occ. eigenvalues --   -0.72313  -0.72001  -0.71058  -0.70544  -0.69830
 Alpha  occ. eigenvalues --   -0.69286  -0.68755  -0.68747  -0.67602  -0.66944
 Alpha  occ. eigenvalues --   -0.66076  -0.65761  -0.65508  -0.65345  -0.64138
 Alpha  occ. eigenvalues --   -0.63808  -0.63041  -0.62869  -0.62086  -0.61731
 Alpha  occ. eigenvalues --   -0.61428  -0.61287  -0.60783  -0.60153  -0.59618
 Alpha  occ. eigenvalues --   -0.59248  -0.58532  -0.58149  -0.57542  -0.57535
 Alpha  occ. eigenvalues --   -0.56890  -0.56309  -0.56125  -0.55986  -0.55816
 Alpha  occ. eigenvalues --   -0.55052  -0.54198  -0.53776  -0.53738  -0.53370
 Alpha  occ. eigenvalues --   -0.53318  -0.52693  -0.52219  -0.52039  -0.51798
 Alpha  occ. eigenvalues --   -0.51486  -0.51248  -0.50946  -0.50877  -0.50642
 Alpha  occ. eigenvalues --   -0.50529  -0.50155  -0.49860  -0.49608  -0.49300
 Alpha  occ. eigenvalues --   -0.49149  -0.48985  -0.48781  -0.48575  -0.48411
 Alpha  occ. eigenvalues --   -0.48213  -0.47866  -0.47624  -0.47121  -0.46988
 Alpha  occ. eigenvalues --   -0.46762  -0.46594  -0.46265  -0.45590  -0.45392
 Alpha  occ. eigenvalues --   -0.45236  -0.45010  -0.44629  -0.44564  -0.44494
 Alpha  occ. eigenvalues --   -0.44249  -0.43811  -0.43562  -0.43185  -0.43129
 Alpha  occ. eigenvalues --   -0.42878  -0.42832  -0.42478  -0.41971  -0.41736
 Alpha  occ. eigenvalues --   -0.41541  -0.41325  -0.40962  -0.40790  -0.40503
 Alpha  occ. eigenvalues --   -0.40426  -0.40273  -0.39850  -0.39695  -0.39329
 Alpha  occ. eigenvalues --   -0.39083  -0.38258  -0.38019  -0.37813  -0.37583
 Alpha  occ. eigenvalues --   -0.36752  -0.36679  -0.36027  -0.34862  -0.34395
 Alpha  occ. eigenvalues --   -0.33147  -0.33146  -0.32463  -0.31680  -0.31560
 Alpha  occ. eigenvalues --   -0.30882  -0.30231  -0.29762  -0.29211  -0.28527
 Alpha  occ. eigenvalues --   -0.28212  -0.27545  -0.24723  -0.23638  -0.22896
 Alpha virt. eigenvalues --   -0.13576  -0.10444  -0.09592  -0.07226  -0.06641
 Alpha virt. eigenvalues --   -0.06185  -0.06021  -0.05696  -0.05453  -0.03649
 Alpha virt. eigenvalues --   -0.03301  -0.03084  -0.02712  -0.02590  -0.02008

 Mulliken charges:
               1
     1  N   -0.755558
     2  H    0.433646
     3  H    0.414071
     4  H    0.425211
     5  C   -0.121137
     6  H    0.227701
     7  C    0.641060
     8  C    0.075376
     9  H    0.187222
    10  O   -0.535154
    11  C   -0.451002
    12  H    0.177572
    13  H    0.154617
    14  H    0.210875
    15  O   -0.617601
    16  H    0.432445
    17  N   -0.613824
    18  H    0.371934
    19  C   -0.053771
    20  H    0.184091
    21  C    0.624831
    22  C   -0.089310
    23  H    0.157130
    24  O   -0.565974
    25  C   -0.296084
    26  H    0.151169
    27  H    0.193091
    28  C   -0.487971
    29  H    0.161920
    30  H    0.107635
    31  H    0.221860
    32  C   -0.464178
    33  H    0.177212
    34  H    0.163628
    35  H    0.118898
    36  N   -0.592144
    37  H    0.355744
    38  C   -0.082901
    39  H    0.193785
    40  C    0.624307
    41  C   -0.455477
    42  H    0.199862
    43  H    0.174775
    44  H    0.152734
    45  O   -0.509982
    46  N   -0.619992
    47  H    0.353659
    48  C   -0.068352
    49  H    0.187717
    50  C    0.635737
    51  C   -0.295847
    52  H    0.156974
    53  H    0.184611
    54  O   -0.552233
    55  C   -0.377063
    56  H    0.182820
    57  H    0.174020
    58  C    0.602295
    59  N   -0.741058
    60  H    0.347133
    61  H    0.346900
    62  O   -0.525075
    63  N   -0.637848
    64  H    0.387330
    65  C   -0.008624
    66  H    0.166608
    67  C    0.602855
    68  C   -0.365907
    69  H    0.158172
    70  H    0.178694
    71  O   -0.549448
    72  C    0.150662
    73  C   -0.189591
    74  H    0.154260
    75  C   -0.192686
    76  H    0.162366
    77  C   -0.144500
    78  H    0.138579
    79  C   -0.180630
    80  H    0.131787
    81  O   -0.693422
    82  H    0.425751
    83  C    0.340414
    84  N   -0.614209
    85  H    0.357027
    86  C   -0.036793
    87  H    0.171469
    88  C    0.609277
    89  C   -0.444194
    90  H    0.160404
    91  H    0.178493
    92  H    0.156022
    93  O   -0.570324
    94  N   -0.615149
    95  H    0.353931
    96  C   -0.065362
    97  H    0.149644
    98  C    0.601119
    99  C   -0.274086
   100  H    0.149742
   101  H    0.129159
   102  O   -0.610608
   103  C   -0.257569
   104  H    0.179568
   105  H    0.145434
   106  C   -0.176647
   107  H    0.159494
   108  H    0.188018
   109  N   -0.590477
   110  H    0.385480
   111  N   -0.772694
   112  H    0.346485
   113  H    0.444899
   114  N   -0.755484
   115  H    0.354635
   116  H    0.368384
   117  C    0.716631
   118  O   -0.571117
 Sum of Mulliken charges =   1.00000

 Dipole moment (field-independent basis, Debye):
    X=            -10.6129    Y=            -18.2593    Z=            -27.7381  Tot=             34.8632
 Quadrupole moment (field-independent basis, Debye-Ang):
   XX=            -46.1427   YY=           -379.6437   ZZ=           -157.3300
   XY=             56.2627   XZ=            134.6866   YZ=             36.0410

 Normal termination of Gaussian 16 at Sun Jul 17 00:10:36 2022.
