 Gaussian 16, Revision C.01,
 Gaussian 16:  ES64L-G16RevC.01  3-Jul-2019

 ----------------------------------------------------------------------
 # B3LYP/6-31G* empiricaldispersion=gd3bj guess=read geom=check nosymm
 integral(ultrafinegrid)
 ----------------------------------------------------------------------

 ------------------------------------------------------
 Candidate Structure: Conf:474 Charge calc in gas phase
 ------------------------------------------------------
 Structure from the checkpoint file:  "conf-474.chk"
 Charge =  1 Multiplicity = 1

                          Input orientation:
 ---------------------------------------------------------------------
 Center     Atomic      Atomic             Coordinates (Angstroms)
 Number     Number       Type             X           Y           Z
 ---------------------------------------------------------------------
      1          7           0       -6.599310   -0.981779   -8.324683
      2          1           0       -7.615854   -1.051604   -8.418922
      3          1           0       -6.142070   -1.294436   -9.197721
      4          1           0       -6.353320    0.001043   -8.056700
      5          6           0       -6.050790   -1.812091   -7.195708
      6          1           0       -6.725970   -2.651322   -7.017572
      7          6           0       -5.955367   -0.825002   -6.012715
      8          6           0       -4.657017   -2.323037   -7.633950
      9          1           0       -3.956547   -1.475200   -7.591754
     10          8           0       -5.925136    0.380669   -6.286499
     11          6           0       -4.153518   -3.469378   -6.767489
     12          1           0       -3.999847   -3.166282   -5.727200
     13          1           0       -4.854075   -4.310221   -6.799797
     14          1           0       -3.188000   -3.817927   -7.148532
     15          8           0       -4.860211   -2.717778   -8.995139
     16          1           0       -4.012994   -2.986645   -9.384855
     17          7           0       -5.884194   -1.367726   -4.801192
     18          1           0       -5.782056   -2.376011   -4.693305
     19          6           0       -5.475455   -0.651360   -3.590638
     20          1           0       -5.121546    0.338360   -3.888341
     21          6           0       -4.321951   -1.509862   -3.035088
     22          6           0       -6.651238   -0.525646   -2.586841
     23          1           0       -6.962259   -1.552964   -2.351058
     24          8           0       -4.311655   -2.727353   -3.257728
     25          6           0       -7.864101    0.191423   -3.214874
     26          1           0       -8.691524    0.111940   -2.499101
     27          1           0       -8.184268   -0.363580   -4.105655
     28          6           0       -6.203125    0.145255   -1.280399
     29          1           0       -5.734720    1.119653   -1.461304
     30          1           0       -5.490974   -0.471438   -0.726407
     31          1           0       -7.070161    0.314873   -0.634476
     32          6           0       -7.649905    1.664182   -3.579719
     33          1           0       -8.575132    2.089431   -3.982096
     34          1           0       -6.876197    1.787760   -4.344038
     35          1           0       -7.372184    2.263027   -2.706504
     36          7           0       -3.384467   -0.863233   -2.333936
     37          1           0       -3.438734    0.136561   -2.162559
     38          6           0       -2.241917   -1.516026   -1.711339
     39          1           0       -2.598018   -2.370066   -1.124157
     40          6           0       -1.617809   -0.471493   -0.776071
     41          6           0       -1.218285   -1.996969   -2.755331
     42          1           0       -0.322871   -2.399696   -2.272234
     43          1           0       -0.923682   -1.152954   -3.382809
     44          1           0       -1.672657   -2.777948   -3.368740
     45          8           0       -1.913962    0.726660   -0.872671
     46          7           0       -0.739800   -0.966869    0.120334
     47          1           0       -0.364908   -1.895904   -0.064427
     48          6           0        0.232848   -0.110983    0.788092
     49          1           0        0.205647    0.859960    0.287041
     50          6           0        1.613294   -0.743477    0.513329
     51          6           0       -0.066524    0.112403    2.278451
     52          1           0       -1.109321    0.435986    2.366019
     53          1           0        0.547425    0.941196    2.641639
     54          8           0        1.702274   -1.792482   -0.125126
     55          6           0        0.186235   -1.116342    3.164233
     56          1           0       -0.477161   -1.941155    2.882674
     57          1           0        1.219025   -1.463332    3.026510
     58          6           0        0.038506   -0.758819    4.634216
     59          7           0       -0.765808   -1.544337    5.379352
     60          1           0       -1.205931   -2.371787    5.006199
     61          1           0       -0.831819   -1.370059    6.373787
     62          8           0        0.629022    0.212195    5.124252
     63          7           0        2.668807   -0.059608    1.000907
     64          1           0        2.503303    0.788735    1.531168
     65          6           0        4.020442   -0.270048    0.510873
     66          1           0        4.018324   -1.256801    0.039374
     67          6           0        4.973405   -0.282992    1.719069
     68          6           0        4.386218    0.819664   -0.553041
     69          1           0        5.248501    0.470059   -1.133757
     70          1           0        4.685613    1.730122   -0.022435
     71          8           0        4.551925   -0.519758    2.854549
     72          6           0        3.210476    1.088184   -1.457329
     73          6           0        2.884385    0.218300   -2.503199
     74          1           0        3.572305   -0.579406   -2.770828
     75          6           0        2.305869    2.109581   -1.143368
     76          1           0        2.553148    2.817528   -0.355651
     77          6           0        1.660882    0.307529   -3.162510
     78          1           0        1.398168   -0.394822   -3.946378
     79          6           0        1.075168    2.208121   -1.788236
     80          1           0        0.368017    2.987277   -1.517284
     81          8           0       -0.514815    1.264829   -3.350371
     82          1           0       -1.152984    1.511845   -2.655566
     83          6           0        0.731187    1.271732   -2.768544
     84          7           0        6.272333   -0.007377    1.472925
     85          1           0        6.502570    0.345132    0.553720
     86          6           0        7.106096    0.522454    2.547083
     87          1           0        7.087857   -0.186228    3.378995
     88          6           0        6.525463    1.871983    3.037527
     89          6           0        8.541624    0.716380    2.043266
     90          1           0        9.164869    1.182292    2.812801
     91          1           0        8.976307   -0.245419    1.755322
     92          1           0        8.549830    1.380620    1.169334
     93          8           0        5.588002    2.428825    2.412581
     94          7           0        7.125130    2.377557    4.109709
     95          1           0        8.006046    1.908438    4.432515
     96          6           0        7.444881    3.804123    4.290517
     97          1           0        7.359976    4.303529    3.317994
     98          6           0        9.002298    3.793940    4.683756
     99          6           0        6.648634    4.597698    5.331947
    100          1           0        7.370802    5.329279    5.706299
    101          1           0        6.382505    3.944268    6.173347
    102          8           0        9.484184    4.904895    4.924623
    103          6           0        5.410693    5.371651    4.830630
    104          1           0        5.510951    5.595147    3.760477
    105          1           0        5.360950    6.342901    5.336936
    106          6           0        4.058813    4.708109    5.079794
    107          1           0        3.246409    5.396550    4.804067
    108          1           0        3.962674    4.485368    6.151932
    109          7           0        3.916201    3.464043    4.326678
    110          1           0        4.614366    3.224221    3.592900
    111          7           0        1.907811    2.871672    5.352200
    112          1           0        1.252854    2.129334    5.571531
    113          1           0        1.901276    3.712177    5.906754
    114          7           0        2.872056    1.452928    3.806130
    115          1           0        2.206902    0.775182    4.178395
    116          1           0        3.751291    1.030136    3.503733
    117          6           0        2.926031    2.608451    4.510816
    118          8           0        9.522601    2.637681    4.693095
 ---------------------------------------------------------------------

 SCF Done:  E(RB3LYP) =  -2837.88983159     A.U. after    3 cycles

 Alpha  occ. eigenvalues --  -19.31070 -19.27400 -19.23959 -19.22922 -19.22699
 Alpha  occ. eigenvalues --  -19.22020 -19.20212 -19.18405 -19.17169 -19.07296
 Alpha  occ. eigenvalues --  -19.06016 -14.60233 -14.50387 -14.46809 -14.46054
 Alpha  occ. eigenvalues --  -14.45512 -14.44869 -14.43916 -14.43265 -14.42184
 Alpha  occ. eigenvalues --  -14.42032 -14.37093 -10.44461 -10.41384 -10.40547
 Alpha  occ. eigenvalues --  -10.40098 -10.39968 -10.39536 -10.39318 -10.37176
 Alpha  occ. eigenvalues --  -10.35570 -10.35053 -10.33585 -10.32688 -10.32037
 Alpha  occ. eigenvalues --  -10.31479 -10.31253 -10.30793 -10.30065 -10.29082
 Alpha  occ. eigenvalues --  -10.29038 -10.28543 -10.28109 -10.27752 -10.27272
 Alpha  occ. eigenvalues --  -10.26695 -10.26520 -10.26006 -10.25950 -10.25929
 Alpha  occ. eigenvalues --  -10.25810 -10.25694 -10.25469 -10.24912 -10.23133
 Alpha  occ. eigenvalues --  -10.22509 -10.21910 -10.20109  -1.20260  -1.18407
 Alpha  occ. eigenvalues --   -1.15116  -1.14232  -1.13955  -1.13554  -1.12191
 Alpha  occ. eigenvalues --   -1.11893  -1.10541  -1.09042  -1.07508  -1.07133
 Alpha  occ. eigenvalues --   -1.03463  -1.02461  -1.00876  -1.00745  -1.00314
 Alpha  occ. eigenvalues --   -0.98800  -0.98366  -0.96724  -0.94663  -0.94513
 Alpha  occ. eigenvalues --   -0.92300  -0.91706  -0.91417  -0.89845  -0.87196
 Alpha  occ. eigenvalues --   -0.86145  -0.85981  -0.83755  -0.83580  -0.82181
 Alpha  occ. eigenvalues --   -0.81728  -0.81580  -0.81003  -0.79001  -0.77985
 Alpha  occ. eigenvalues --   -0.76834  -0.75941  -0.74979  -0.73995  -0.73697
 Alpha  occ. eigenvalues --   -0.73150  -0.72412  -0.72146  -0.71827  -0.70065
 Alpha  occ. eigenvalues --   -0.69554  -0.69007  -0.68748  -0.68263  -0.68078
 Alpha  occ. eigenvalues --   -0.67490  -0.66572  -0.66506  -0.66163  -0.65896
 Alpha  occ. eigenvalues --   -0.65594  -0.65253  -0.64282  -0.63718  -0.63442
 Alpha  occ. eigenvalues --   -0.62487  -0.61247  -0.60957  -0.60601  -0.60195
 Alpha  occ. eigenvalues --   -0.59665  -0.59338  -0.59029  -0.58540  -0.58302
 Alpha  occ. eigenvalues --   -0.57977  -0.57264  -0.56895  -0.56593  -0.56329
 Alpha  occ. eigenvalues --   -0.55871  -0.55523  -0.55407  -0.55037  -0.54605
 Alpha  occ. eigenvalues --   -0.54401  -0.54002  -0.53818  -0.53659  -0.53324
 Alpha  occ. eigenvalues --   -0.53063  -0.52819  -0.52538  -0.52387  -0.52012
 Alpha  occ. eigenvalues --   -0.51681  -0.51109  -0.50852  -0.50656  -0.50576
 Alpha  occ. eigenvalues --   -0.50114  -0.50032  -0.49814  -0.49516  -0.49101
 Alpha  occ. eigenvalues --   -0.49037  -0.48981  -0.48714  -0.48205  -0.48191
 Alpha  occ. eigenvalues --   -0.48129  -0.47705  -0.47537  -0.47366  -0.47204
 Alpha  occ. eigenvalues --   -0.47116  -0.46569  -0.46291  -0.46101  -0.45826
 Alpha  occ. eigenvalues --   -0.45299  -0.44905  -0.44517  -0.44227  -0.43760
 Alpha  occ. eigenvalues --   -0.43613  -0.43419  -0.42974  -0.42857  -0.42494
 Alpha  occ. eigenvalues --   -0.42431  -0.42369  -0.42254  -0.41891  -0.41653
 Alpha  occ. eigenvalues --   -0.41576  -0.40782  -0.40326  -0.39834  -0.39788
 Alpha  occ. eigenvalues --   -0.38487  -0.38280  -0.37634  -0.37282  -0.37153
 Alpha  occ. eigenvalues --   -0.36758  -0.36362  -0.36255  -0.36174  -0.36013
 Alpha  occ. eigenvalues --   -0.35862  -0.35740  -0.34340  -0.34263  -0.33699
 Alpha  occ. eigenvalues --   -0.33373  -0.33022  -0.32192  -0.31601  -0.30973
 Alpha  occ. eigenvalues --   -0.29004  -0.28883  -0.22245  -0.22159  -0.20133
 Alpha virt. eigenvalues --   -0.13405  -0.10765  -0.09250  -0.08373  -0.07974
 Alpha virt. eigenvalues --   -0.07211  -0.06970  -0.06712  -0.05610  -0.05232
 Alpha virt. eigenvalues --   -0.05158  -0.04372  -0.03125  -0.02956  -0.02189

 Mulliken charges:
               1
     1  N   -0.747032
     2  H    0.417269
     3  H    0.432164
     4  H    0.426047
     5  C   -0.126750
     6  H    0.215982
     7  C    0.641713
     8  C    0.126932
     9  H    0.174192
    10  O   -0.529734
    11  C   -0.498469
    12  H    0.203372
    13  H    0.180574
    14  H    0.182980
    15  O   -0.648374
    16  H    0.435468
    17  N   -0.586257
    18  H    0.369340
    19  C   -0.089526
    20  H    0.191067
    21  C    0.638683
    22  C   -0.072971
    23  H    0.145243
    24  O   -0.555692
    25  C   -0.257580
    26  H    0.156582
    27  H    0.120956
    28  C   -0.477694
    29  H    0.156430
    30  H    0.161794
    31  H    0.171540
    32  C   -0.473305
    33  H    0.159043
    34  H    0.166535
    35  H    0.158653
    36  N   -0.611504
    37  H    0.360818
    38  C   -0.040175
    39  H    0.184800
    40  C    0.620647
    41  C   -0.485509
    42  H    0.181209
    43  H    0.192471
    44  H    0.176678
    45  O   -0.565339
    46  N   -0.595040
    47  H    0.361477
    48  C   -0.091182
    49  H    0.208981
    50  C    0.626090
    51  C   -0.277878
    52  H    0.170366
    53  H    0.170595
    54  O   -0.543395
    55  C   -0.383719
    56  H    0.151998
    57  H    0.214927
    58  C    0.630751
    59  N   -0.729175
    60  H    0.357162
    61  H    0.361906
    62  O   -0.549974
    63  N   -0.595366
    64  H    0.358555
    65  C   -0.062548
    66  H    0.212144
    67  C    0.640701
    68  C   -0.415822
    69  H    0.157409
    70  H    0.195290
    71  O   -0.562316
    72  C    0.168931
    73  C   -0.168718
    74  H    0.137205
    75  C   -0.204592
    76  H    0.140022
    77  C   -0.160098
    78  H    0.136628
    79  C   -0.190845
    80  H    0.139300
    81  O   -0.683853
    82  H    0.424706
    83  C    0.346437
    84  N   -0.577779
    85  H    0.341543
    86  C   -0.063983
    87  H    0.196411
    88  C    0.600999
    89  C   -0.499887
    90  H    0.237588
    91  H    0.163208
    92  H    0.145741
    93  O   -0.612367
    94  N   -0.582077
    95  H    0.369344
    96  C   -0.093141
    97  H    0.145404
    98  C    0.585234
    99  C   -0.271457
   100  H    0.199978
   101  H    0.129376
   102  O   -0.557847
   103  C   -0.303050
   104  H    0.156661
   105  H    0.156537
   106  C   -0.151250
   107  H    0.153867
   108  H    0.159025
   109  N   -0.619592
   110  H    0.432404
   111  N   -0.788009
   112  H    0.399725
   113  H    0.367157
   114  N   -0.856731
   115  H    0.386115
   116  H    0.414896
   117  C    0.763080
   118  O   -0.607455
 Sum of Mulliken charges =   1.00000

 Dipole moment (field-independent basis, Debye):
    X=            -40.3259    Y=            -11.7807    Z=            -26.9388  Tot=             49.9065
 Quadrupole moment (field-independent basis, Debye-Ang):
   XX=           -361.0415   YY=           -341.4428   ZZ=            -81.5270
   XY=            -36.0856   XZ=             73.4015   YZ=             29.6595

 Normal termination of Gaussian 16 at Sun Jul 17 00:11:33 2022.
