 Gaussian 16, Revision C.01,
 Gaussian 16:  ES64L-G16RevC.01  3-Jul-2019

 ----------------------------------------------------------------------
 # B3LYP/6-31G* empiricaldispersion=gd3bj guess=read geom=check nosymm
 integral(ultrafinegrid)
 ----------------------------------------------------------------------

 ------------------------------------------------------
 Candidate Structure: Conf:966 Charge calc in gas phase
 ------------------------------------------------------
 Structure from the checkpoint file:  "conf-966.chk"
 Charge =  1 Multiplicity = 1

                          Input orientation:
 ---------------------------------------------------------------------
 Center     Atomic      Atomic             Coordinates (Angstroms)
 Number     Number       Type             X           Y           Z
 ---------------------------------------------------------------------
      1          7           0       -8.954164   -2.247585   -6.215001
      2          1           0       -9.015815   -1.228920   -5.937095
      3          1           0       -9.847313   -2.733725   -6.122745
      4          1           0       -8.605035   -2.293419   -7.188941
      5          6           0       -7.848739   -2.768948   -5.340479
      6          1           0       -8.285393   -3.332734   -4.512298
      7          6           0       -7.191215   -1.468339   -4.802571
      8          6           0       -6.927984   -3.656412   -6.216057
      9          1           0       -5.967669   -3.777402   -5.703687
     10          8           0       -7.766371   -0.393585   -5.031640
     11          6           0       -7.532159   -5.024041   -6.500851
     12          1           0       -7.703574   -5.575376   -5.571064
     13          1           0       -8.483691   -4.937250   -7.038279
     14          1           0       -6.850293   -5.600617   -7.129726
     15          8           0       -6.754026   -2.985618   -7.465761
     16          1           0       -5.996054   -2.380765   -7.414778
     17          7           0       -6.056696   -1.624222   -4.140405
     18          1           0       -5.604823   -2.531043   -3.994125
     19          6           0       -5.268336   -0.546588   -3.544443
     20          1           0       -5.194768    0.269005   -4.268499
     21          6           0       -3.890845   -1.201005   -3.318641
     22          6           0       -5.928739   -0.020163   -2.237590
     23          1           0       -6.954716    0.235372   -2.533708
     24          8           0       -3.783529   -2.433899   -3.374054
     25          6           0       -5.282267    1.268444   -1.693861
     26          1           0       -4.288625    1.055988   -1.282720
     27          1           0       -5.891854    1.585123   -0.838903
     28          6           0       -5.980701   -1.106173   -1.157497
     29          1           0       -4.975591   -1.378264   -0.816687
     30          1           0       -6.470471   -2.018612   -1.514249
     31          1           0       -6.539495   -0.746003   -0.288367
     32          6           0       -5.196068    2.426853   -2.692553
     33          1           0       -4.865577    3.339590   -2.188884
     34          1           0       -6.169506    2.627017   -3.155855
     35          1           0       -4.478074    2.238833   -3.500412
     36          7           0       -2.881599   -0.367790   -3.053222
     37          1           0       -3.026199    0.632092   -2.922145
     38          6           0       -1.572673   -0.808783   -2.595219
     39          1           0       -1.709169   -1.671703   -1.933602
     40          6           0       -1.016277    0.380985   -1.786506
     41          6           0       -0.655857   -1.205289   -3.760031
     42          1           0        0.317929   -1.544991   -3.394261
     43          1           0       -0.497047   -0.353221   -4.428385
     44          1           0       -1.116390   -2.021024   -4.323309
     45          8           0       -1.603756    1.467961   -1.790178
     46          7           0        0.120942    0.140607   -1.120974
     47          1           0        0.585506   -0.763433   -1.143768
     48          6           0        0.814896    1.132193   -0.311051
     49          1           0        0.798327    2.089357   -0.842694
     50          6           0        2.265734    0.615276   -0.218374
     51          6           0        0.088360    1.313624    1.043951
     52          1           0       -0.050836    0.323415    1.490877
     53          1           0       -0.898299    1.718263    0.801451
     54          8           0        2.518689   -0.580165   -0.360188
     55          6           0        0.787444    2.214201    2.072866
     56          1           0        0.119495    2.364196    2.927646
     57          1           0        1.690580    1.740075    2.458706
     58          6           0        1.130027    3.589137    1.526431
     59          7           0        2.449284    3.914059    1.631825
     60          1           0        2.922709    3.523140    2.449737
     61          1           0        2.707976    4.860756    1.381011
     62          8           0        0.301466    4.319943    0.963379
     63          7           0        3.192927    1.584983   -0.061780
     64          1           0        2.877231    2.507231    0.228327
     65          6           0        4.599854    1.343309    0.172520
     66          1           0        4.787986    0.290995   -0.065100
     67          6           0        4.886182    1.533251    1.680428
     68          6           0        5.430310    2.244447   -0.781547
     69          1           0        5.239179    1.884640   -1.797455
     70          1           0        6.502080    2.097734   -0.607700
     71          8           0        3.985498    1.417515    2.510703
     72          6           0        5.066708    3.711083   -0.686067
     73          6           0        3.981125    4.212842   -1.420519
     74          1           0        3.448594    3.552094   -2.098093
     75          6           0        5.747013    4.591639    0.162843
     76          1           0        6.579375    4.250131    0.769732
     77          6           0        3.558755    5.533467   -1.292727
     78          1           0        2.713122    5.911983   -1.857340
     79          6           0        5.355697    5.924953    0.277235
     80          1           0        5.902701    6.590866    0.936976
     81          8           0        3.776481    7.681753   -0.300082
     82          1           0        4.487076    8.245462    0.045443
     83          6           0        4.251356    6.389277   -0.436024
     84          7           0        6.160555    1.797839    2.047384
     85          1           0        6.881415    1.925271    1.353660
     86          6           0        6.523199    1.979111    3.455955
     87          1           0        5.941772    1.246855    4.021290
     88          6           0        6.158633    3.411630    3.939529
     89          6           0        8.015964    1.734609    3.638320
     90          1           0        8.278330    1.788039    4.698371
     91          1           0        8.293809    0.745440    3.260814
     92          1           0        8.590509    2.508107    3.120231
     93          8           0        6.940123    4.344036    3.742578
     94          7           0        4.966498    3.477686    4.571955
     95          1           0        4.326871    2.697851    4.434540
     96          6           0        4.344547    4.581430    5.307180
     97          1           0        4.515411    4.413521    6.380406
     98          6           0        2.803588    4.489462    5.092924
     99          6           0        4.892788    5.982357    4.993429
    100          1           0        5.947325    6.011900    5.267888
    101          1           0        4.361843    6.663112    5.667335
    102          8           0        2.113979    5.414727    5.622987
    103          6           0        4.742268    6.429397    3.523683
    104          1           0        4.416708    5.586660    2.905276
    105          1           0        5.727486    6.709994    3.140634
    106          6           0        3.787121    7.611162    3.301657
    107          1           0        3.799602    7.922436    2.254343
    108          1           0        4.111993    8.475822    3.889954
    109          7           0        2.409818    7.313383    3.698247
    110          1           0        2.334845    6.947702    4.659404
    111          7           0        1.481773    6.903210    1.564214
    112          1           0        0.932566    6.229470    1.027327
    113          1           0        2.187904    7.440790    1.074423
    114          7           0        0.507252    6.046139    3.486529
    115          1           0       -0.119058    5.533007    2.878995
    116          1           0        0.762605    5.626217    4.399955
    117          6           0        1.487436    6.748618    2.901387
    118          8           0        2.370310    3.536610    4.407316
 ---------------------------------------------------------------------

 SCF Done:  E(RB3LYP) =  -2837.93977134     A.U. after    1 cycles

 Alpha  occ. eigenvalues --  -19.30676 -19.26707 -19.26302 -19.21868 -19.19519
 Alpha  occ. eigenvalues --  -19.18607 -19.18264 -19.17911 -19.15227 -19.13037
 Alpha  occ. eigenvalues --  -19.13024 -14.59205 -14.49323 -14.45007 -14.43210
 Alpha  occ. eigenvalues --  -14.42698 -14.42634 -14.41912 -14.41775 -14.40789
 Alpha  occ. eigenvalues --  -14.40533 -14.39099 -10.43545 -10.40539 -10.40047
 Alpha  occ. eigenvalues --  -10.38725 -10.38652 -10.36528 -10.35277 -10.35201
 Alpha  occ. eigenvalues --  -10.35113 -10.33995 -10.32551 -10.32308 -10.31804
 Alpha  occ. eigenvalues --  -10.31251 -10.30884 -10.30210 -10.29909 -10.28857
 Alpha  occ. eigenvalues --  -10.28811 -10.28271 -10.26848 -10.26469 -10.26223
 Alpha  occ. eigenvalues --  -10.26171 -10.26151 -10.26128 -10.26114 -10.26111
 Alpha  occ. eigenvalues --  -10.25952 -10.25952 -10.25196 -10.24991 -10.23759
 Alpha  occ. eigenvalues --  -10.23676 -10.23057 -10.22496  -1.19656  -1.17752
 Alpha  occ. eigenvalues --   -1.13934  -1.13749  -1.13085  -1.11491  -1.10497
 Alpha  occ. eigenvalues --   -1.09739  -1.09686  -1.07599  -1.06881  -1.06130
 Alpha  occ. eigenvalues --   -1.06112  -1.01924  -0.99954  -0.99350  -0.98737
 Alpha  occ. eigenvalues --   -0.98015  -0.96976  -0.96151  -0.95277  -0.94961
 Alpha  occ. eigenvalues --   -0.93487  -0.92693  -0.90677  -0.87145  -0.86430
 Alpha  occ. eigenvalues --   -0.85855  -0.84390  -0.84255  -0.82320  -0.82313
 Alpha  occ. eigenvalues --   -0.82023  -0.80281  -0.80056  -0.78519  -0.77887
 Alpha  occ. eigenvalues --   -0.75951  -0.74446  -0.74414  -0.73422  -0.73125
 Alpha  occ. eigenvalues --   -0.72703  -0.72205  -0.70735  -0.70255  -0.69651
 Alpha  occ. eigenvalues --   -0.69583  -0.68679  -0.68164  -0.67700  -0.66798
 Alpha  occ. eigenvalues --   -0.66606  -0.65854  -0.65314  -0.65254  -0.65074
 Alpha  occ. eigenvalues --   -0.64441  -0.63996  -0.62395  -0.62368  -0.61810
 Alpha  occ. eigenvalues --   -0.61733  -0.60919  -0.60344  -0.60149  -0.59037
 Alpha  occ. eigenvalues --   -0.58514  -0.58386  -0.57930  -0.57301  -0.56785
 Alpha  occ. eigenvalues --   -0.56184  -0.56125  -0.55715  -0.55398  -0.55144
 Alpha  occ. eigenvalues --   -0.54741  -0.54263  -0.53943  -0.53581  -0.53331
 Alpha  occ. eigenvalues --   -0.53271  -0.53171  -0.52763  -0.52720  -0.52364
 Alpha  occ. eigenvalues --   -0.52262  -0.51577  -0.51523  -0.51318  -0.51043
 Alpha  occ. eigenvalues --   -0.50847  -0.50700  -0.50392  -0.50190  -0.49965
 Alpha  occ. eigenvalues --   -0.49927  -0.49329  -0.49169  -0.49068  -0.48871
 Alpha  occ. eigenvalues --   -0.48615  -0.48491  -0.48244  -0.47847  -0.47742
 Alpha  occ. eigenvalues --   -0.47592  -0.46687  -0.46483  -0.46340  -0.46176
 Alpha  occ. eigenvalues --   -0.46054  -0.45548  -0.45293  -0.45138  -0.44799
 Alpha  occ. eigenvalues --   -0.44616  -0.44567  -0.44231  -0.43922  -0.43859
 Alpha  occ. eigenvalues --   -0.43604  -0.43548  -0.43266  -0.42568  -0.42219
 Alpha  occ. eigenvalues --   -0.41969  -0.41915  -0.41835  -0.41441  -0.41257
 Alpha  occ. eigenvalues --   -0.41235  -0.40856  -0.40657  -0.40530  -0.40425
 Alpha  occ. eigenvalues --   -0.40210  -0.40029  -0.39889  -0.38661  -0.38354
 Alpha  occ. eigenvalues --   -0.37837  -0.36021  -0.35141  -0.34821  -0.33898
 Alpha  occ. eigenvalues --   -0.33582  -0.33178  -0.33039  -0.32587  -0.32199
 Alpha  occ. eigenvalues --   -0.31880  -0.31768  -0.31704  -0.31255  -0.29829
 Alpha  occ. eigenvalues --   -0.29671  -0.28723  -0.28151  -0.27221  -0.26929
 Alpha virt. eigenvalues --   -0.12812  -0.09776  -0.07763  -0.07547  -0.06762
 Alpha virt. eigenvalues --   -0.06634  -0.05655  -0.04917  -0.04748  -0.04472
 Alpha virt. eigenvalues --   -0.03906  -0.03554  -0.02377  -0.01944  -0.01863

 Mulliken charges:
               1
     1  N   -0.756177
     2  H    0.432218
     3  H    0.412306
     4  H    0.423773
     5  C   -0.117776
     6  H    0.225238
     7  C    0.638189
     8  C    0.071700
     9  H    0.192409
    10  O   -0.541636
    11  C   -0.450894
    12  H    0.177473
    13  H    0.152769
    14  H    0.209645
    15  O   -0.618951
    16  H    0.431828
    17  N   -0.618921
    18  H    0.376961
    19  C   -0.068687
    20  H    0.190051
    21  C    0.626781
    22  C   -0.084089
    23  H    0.156723
    24  O   -0.563930
    25  C   -0.284526
    26  H    0.163548
    27  H    0.156149
    28  C   -0.461175
    29  H    0.166238
    30  H    0.131939
    31  H    0.168303
    32  C   -0.462722
    33  H    0.177388
    34  H    0.154093
    35  H    0.139689
    36  N   -0.624988
    37  H    0.386522
    38  C   -0.053321
    39  H    0.187233
    40  C    0.629391
    41  C   -0.448455
    42  H    0.168959
    43  H    0.163355
    44  H    0.177974
    45  O   -0.547647
    46  N   -0.627143
    47  H    0.360830
    48  C   -0.062893
    49  H    0.186423
    50  C    0.614865
    51  C   -0.264096
    52  H    0.155487
    53  H    0.183262
    54  O   -0.538805
    55  C   -0.378710
    56  H    0.188317
    57  H    0.224376
    58  C    0.570498
    59  N   -0.798767
    60  H    0.412033
    61  H    0.349281
    62  O   -0.559529
    63  N   -0.618849
    64  H    0.401926
    65  C   -0.083906
    66  H    0.210139
    67  C    0.629736
    68  C   -0.377319
    69  H    0.173491
    70  H    0.149814
    71  O   -0.522774
    72  C    0.164566
    73  C   -0.190871
    74  H    0.144193
    75  C   -0.195310
    76  H    0.154180
    77  C   -0.158585
    78  H    0.155612
    79  C   -0.184135
    80  H    0.147557
    81  O   -0.661317
    82  H    0.424547
    83  C    0.317289
    84  N   -0.603338
    85  H    0.335951
    86  C   -0.041537
    87  H    0.175876
    88  C    0.624486
    89  C   -0.477303
    90  H    0.175827
    91  H    0.153323
    92  H    0.173782
    93  O   -0.555339
    94  N   -0.626440
    95  H    0.374956
    96  C   -0.041976
    97  H    0.169614
    98  C    0.597292
    99  C   -0.285563
   100  H    0.178103
   101  H    0.153343
   102  O   -0.625537
   103  C   -0.261971
   104  H    0.142682
   105  H    0.160980
   106  C   -0.184646
   107  H    0.115453
   108  H    0.176232
   109  N   -0.592801
   110  H    0.395745
   111  N   -0.811662
   112  H    0.383301
   113  H    0.393837
   114  N   -0.762023
   115  H    0.357436
   116  H    0.400158
   117  C    0.737469
   118  O   -0.586076
 Sum of Mulliken charges =   1.00000

 Dipole moment (field-independent basis, Debye):
    X=            -22.9292    Y=             -3.6709    Z=            -24.4353  Tot=             33.7092
 Quadrupole moment (field-independent basis, Debye-Ang):
   XX=            -33.4171   YY=           -256.7565   ZZ=           -230.3058
   XY=            124.9326   XZ=            174.6064   YZ=             53.3343

 Normal termination of Gaussian 16 at Sun Jul 17 00:10:15 2022.
