 Gaussian 16, Revision C.01,
 Gaussian 16:  ES64L-G16RevC.01  3-Jul-2019

 ----------------------------------------------------------------------
 # B3LYP/6-31G* empiricaldispersion=gd3bj guess=read geom=check nosymm
 integral(ultrafinegrid)
 ----------------------------------------------------------------------

 ------------------------------------------------------
 Candidate Structure: Conf:662 Charge calc in gas phase
 ------------------------------------------------------
 Structure from the checkpoint file:  "conf-662.chk"
 Charge =  1 Multiplicity = 1

                          Input orientation:
 ---------------------------------------------------------------------
 Center     Atomic      Atomic             Coordinates (Angstroms)
 Number     Number       Type             X           Y           Z
 ---------------------------------------------------------------------
      1          7           0       -5.904160   -6.563936    0.142901
      2          1           0       -5.820535   -6.573402    1.162433
      3          1           0       -5.784187   -7.519931   -0.230115
      4          1           0       -6.821221   -6.123318   -0.116526
      5          6           0       -4.888540   -5.675409   -0.523632
      6          1           0       -4.013803   -5.593045    0.124266
      7          6           0       -5.639260   -4.340832   -0.725967
      8          6           0       -4.505356   -6.337058   -1.867851
      9          1           0       -5.347814   -6.203769   -2.563688
     10          8           0       -6.876192   -4.379480   -0.706152
     11          6           0       -3.230097   -5.759637   -2.465240
     12          1           0       -3.337790   -4.703200   -2.730146
     13          1           0       -2.392989   -5.872948   -1.768620
     14          1           0       -2.981262   -6.299108   -3.385279
     15          8           0       -4.373337   -7.723992   -1.530450
     16          1           0       -4.165553   -8.230392   -2.331629
     17          7           0       -4.876222   -3.274514   -0.928402
     18          1           0       -3.874110   -3.387688   -1.076443
     19          6           0       -5.355391   -1.986049   -1.426206
     20          1           0       -6.345104   -2.145344   -1.865925
     21          6           0       -4.342024   -1.606268   -2.526391
     22          6           0       -5.450252   -0.924304   -0.299752
     23          1           0       -5.741078    0.016368   -0.790461
     24          8           0       -3.315423   -2.283200   -2.678764
     25          6           0       -4.084668   -0.706525    0.373748
     26          1           0       -3.329199   -0.537257   -0.400163
     27          1           0       -3.793718   -1.631077    0.892010
     28          6           0       -6.554723   -1.299732    0.693602
     29          1           0       -6.285539   -2.203780    1.252004
     30          1           0       -7.507316   -1.489945    0.188122
     31          1           0       -6.707719   -0.496388    1.418385
     32          6           0       -4.041137    0.461525    1.361232
     33          1           0       -3.023399    0.595146    1.742216
     34          1           0       -4.704599    0.296958    2.217231
     35          1           0       -4.348856    1.395414    0.874006
     36          7           0       -4.637913   -0.532982   -3.272702
     37          1           0       -5.449033    0.024986   -3.037892
     38          6           0       -3.737707   -0.007482   -4.314909
     39          1           0       -3.190752   -0.871327   -4.701687
     40          6           0       -2.720281    0.967981   -3.663951
     41          6           0       -4.550016    0.649529   -5.420038
     42          1           0       -3.889011    0.904288   -6.250097
     43          1           0       -5.017109    1.572650   -5.063099
     44          1           0       -5.321466   -0.036892   -5.782546
     45          8           0       -2.761042    2.180808   -3.880162
     46          7           0       -1.864435    0.349786   -2.828294
     47          1           0       -1.789546   -0.664578   -2.871306
     48          6           0       -0.762071    0.983616   -2.118860
     49          1           0       -0.686246    2.022329   -2.446881
     50          6           0        0.497242    0.185934   -2.493236
     51          6           0       -0.999582    0.893835   -0.595107
     52          1           0       -1.104092   -0.169399   -0.348422
     53          1           0       -1.957892    1.368815   -0.370167
     54          8           0        0.415593   -1.009801   -2.787427
     55          6           0        0.119288    1.513293    0.258239
     56          1           0        1.072287    1.457987   -0.262574
     57          1           0       -0.067746    2.578154    0.432346
     58          6           0        0.266552    0.806840    1.593077
     59          7           0        1.559901    0.519839    1.925980
     60          1           0        2.277326    0.474501    1.206612
     61          1           0        1.699072   -0.039294    2.757220
     62          8           0       -0.684503    0.530986    2.324062
     63          7           0        1.635981    0.889254   -2.413732
     64          1           0        1.631524    1.900581   -2.219622
     65          6           0        2.916918    0.367128   -2.820968
     66          1           0        2.762316   -0.695997   -3.031848
     67          6           0        3.843025    0.465659   -1.593737
     68          6           0        3.393048    1.091844   -4.124097
     69          1           0        4.144932    0.474111   -4.630850
     70          1           0        3.853538    2.048295   -3.854501
     71          8           0        3.445685    0.159900   -0.469916
     72          6           0        2.193097    1.368105   -5.001630
     73          6           0        1.619284    0.375762   -5.801453
     74          1           0        2.146152   -0.562778   -5.957313
     75          6           0        1.484655    2.562867   -4.810946
     76          1           0        1.894002    3.329667   -4.159564
     77          6           0        0.341905    0.534210   -6.340669
     78          1           0       -0.122915   -0.254330   -6.924114
     79          6           0        0.208261    2.728633   -5.333900
     80          1           0       -0.353988    3.635883   -5.132486
     81          8           0       -1.681351    1.788780   -6.504523
     82          1           0       -2.160498    2.337930   -5.854274
     83          6           0       -0.383799    1.694652   -6.065630
     84          7           0        5.108527    0.927613   -1.780887
     85          1           0        5.396248    1.238658   -2.697443
     86          6           0        5.946990    1.243946   -0.628464
     87          1           0        6.082559    0.339300   -0.030071
     88          6           0        5.264584    2.249001    0.330650
     89          6           0        7.302793    1.774438   -1.093854
     90          1           0        7.919298    2.008155   -0.221901
     91          1           0        7.829376    1.030927   -1.701740
     92          1           0        7.182917    2.691318   -1.683063
     93          8           0        5.513150    2.203449    1.537143
     94          7           0        4.472231    3.166374   -0.267656
     95          1           0        4.212813    3.001959   -1.242787
     96          6           0        3.332511    3.811358    0.378387
     97          1           0        2.938844    3.136610    1.151472
     98          6           0        2.200128    3.970935   -0.699311
     99          6           0        3.656673    5.158058    1.024861
    100          1           0        2.698562    5.642929    1.239954
    101          1           0        4.191467    5.781600    0.295519
    102          8           0        1.187037    4.583130   -0.341856
    103          6           0        4.488857    5.000829    2.296801
    104          1           0        5.394687    4.425897    2.076023
    105          1           0        3.924132    4.410365    3.029605
    106          6           0        4.859111    6.341161    2.917762
    107          1           0        3.963200    6.888895    3.233801
    108          1           0        5.416971    6.958314    2.201600
    109          7           0        5.703216    6.098972    4.107823
    110          1           0        6.076461    5.160763    4.196787
    111          7           0        5.739508    8.295641    4.837042
    112          1           0        5.713810    8.934058    5.618854
    113          1           0        5.306726    8.600456    3.977217
    114          7           0        6.648098    6.631442    6.163858
    115          1           0        7.178350    7.305706    6.697087
    116          1           0        6.828079    5.656509    6.357150
    117          6           0        6.030067    6.997467    5.022705
    118          8           0        2.448833    3.411363   -1.821325
 ---------------------------------------------------------------------

 SCF Done:  E(RB3LYP) =  -2837.87346161     A.U. after    2 cycles

 Alpha  occ. eigenvalues --  -19.28902 -19.24967 -19.20718 -19.18629 -19.15920
 Alpha  occ. eigenvalues --  -19.15459 -19.14101 -19.13398 -19.12700 -19.10554
 Alpha  occ. eigenvalues --  -19.09122 -14.58038 -14.51595 -14.51544 -14.51120
 Alpha  occ. eigenvalues --  -14.47754 -14.44674 -14.40419 -14.39340 -14.36657
 Alpha  occ. eigenvalues --  -14.36605 -14.36386 -10.47689 -10.41953 -10.39017
 Alpha  occ. eigenvalues --  -10.38236 -10.37587 -10.33206 -10.33099 -10.32587
 Alpha  occ. eigenvalues --  -10.32576 -10.31057 -10.30291 -10.30083 -10.29181
 Alpha  occ. eigenvalues --  -10.28665 -10.27919 -10.27143 -10.27017 -10.26091
 Alpha  occ. eigenvalues --  -10.26087 -10.25523 -10.25136 -10.24342 -10.23809
 Alpha  occ. eigenvalues --  -10.23713 -10.23275 -10.22932 -10.22473 -10.22373
 Alpha  occ. eigenvalues --  -10.21521 -10.21045 -10.20799 -10.20735 -10.20256
 Alpha  occ. eigenvalues --  -10.19969 -10.19872 -10.19709  -1.17915  -1.16295
 Alpha  occ. eigenvalues --   -1.16115  -1.12725  -1.11754  -1.07758  -1.07665
 Alpha  occ. eigenvalues --   -1.06510  -1.05518  -1.05244  -1.05156  -1.04653
 Alpha  occ. eigenvalues --   -1.04582  -1.04125  -1.03111  -1.00823  -0.96865
 Alpha  occ. eigenvalues --   -0.96064  -0.95237  -0.94626  -0.93055  -0.92123
 Alpha  occ. eigenvalues --   -0.91204  -0.88819  -0.87812  -0.86866  -0.84035
 Alpha  occ. eigenvalues --   -0.83587  -0.82589  -0.81590  -0.80635  -0.80185
 Alpha  occ. eigenvalues --   -0.79619  -0.77742  -0.77694  -0.76215  -0.75790
 Alpha  occ. eigenvalues --   -0.75662  -0.74330  -0.74137  -0.72729  -0.72370
 Alpha  occ. eigenvalues --   -0.71168  -0.70171  -0.70050  -0.69819  -0.69395
 Alpha  occ. eigenvalues --   -0.68880  -0.68112  -0.67423  -0.65729  -0.65444
 Alpha  occ. eigenvalues --   -0.65090  -0.64652  -0.64079  -0.63631  -0.63435
 Alpha  occ. eigenvalues --   -0.63149  -0.62383  -0.61919  -0.61122  -0.60593
 Alpha  occ. eigenvalues --   -0.60503  -0.60090  -0.59129  -0.59033  -0.58586
 Alpha  occ. eigenvalues --   -0.57715  -0.57319  -0.57192  -0.56672  -0.56350
 Alpha  occ. eigenvalues --   -0.55567  -0.55204  -0.54723  -0.54526  -0.54310
 Alpha  occ. eigenvalues --   -0.53926  -0.53532  -0.52596  -0.52444  -0.51573
 Alpha  occ. eigenvalues --   -0.51176  -0.50904  -0.50699  -0.50503  -0.50404
 Alpha  occ. eigenvalues --   -0.49988  -0.49699  -0.49665  -0.49260  -0.48579
 Alpha  occ. eigenvalues --   -0.48152  -0.48098  -0.47998  -0.47490  -0.46846
 Alpha  occ. eigenvalues --   -0.46785  -0.46359  -0.46195  -0.46121  -0.45780
 Alpha  occ. eigenvalues --   -0.45640  -0.45598  -0.45236  -0.44990  -0.44530
 Alpha  occ. eigenvalues --   -0.44334  -0.43918  -0.43761  -0.43608  -0.43432
 Alpha  occ. eigenvalues --   -0.43318  -0.42867  -0.42812  -0.42760  -0.42465
 Alpha  occ. eigenvalues --   -0.42403  -0.42276  -0.41954  -0.41761  -0.41194
 Alpha  occ. eigenvalues --   -0.41022  -0.40715  -0.40521  -0.40188  -0.40061
 Alpha  occ. eigenvalues --   -0.39863  -0.39655  -0.39543  -0.39117  -0.39020
 Alpha  occ. eigenvalues --   -0.38829  -0.38751  -0.38643  -0.38080  -0.37931
 Alpha  occ. eigenvalues --   -0.37440  -0.37119  -0.36737  -0.36630  -0.36479
 Alpha  occ. eigenvalues --   -0.35523  -0.35067  -0.34986  -0.34332  -0.33311
 Alpha  occ. eigenvalues --   -0.31262  -0.29711  -0.29410  -0.29323  -0.28507
 Alpha  occ. eigenvalues --   -0.28090  -0.27700  -0.27305  -0.27145  -0.26377
 Alpha  occ. eigenvalues --   -0.25804  -0.25528  -0.25228  -0.23413  -0.23113
 Alpha virt. eigenvalues --   -0.11579  -0.10949  -0.08657  -0.07713  -0.06701
 Alpha virt. eigenvalues --   -0.04594  -0.03684  -0.02931  -0.02779  -0.02527
 Alpha virt. eigenvalues --   -0.02372  -0.02167  -0.01579  -0.00952  -0.00870

 Mulliken charges:
               1
     1  N   -0.748139
     2  H    0.414835
     3  H    0.429244
     4  H    0.423352
     5  C   -0.127541
     6  H    0.217476
     7  C    0.641116
     8  C    0.127599
     9  H    0.168935
    10  O   -0.538797
    11  C   -0.502230
    12  H    0.216289
    13  H    0.181265
    14  H    0.178228
    15  O   -0.651391
    16  H    0.432551
    17  N   -0.577594
    18  H    0.376600
    19  C   -0.096110
    20  H    0.189574
    21  C    0.648270
    22  C   -0.074830
    23  H    0.133680
    24  O   -0.557387
    25  C   -0.284367
    26  H    0.167423
    27  H    0.124140
    28  C   -0.449845
    29  H    0.134091
    30  H    0.153705
    31  H    0.174096
    32  C   -0.483096
    33  H    0.222819
    34  H    0.137183
    35  H    0.140814
    36  N   -0.591903
    37  H    0.345715
    38  C   -0.070557
    39  H    0.196598
    40  C    0.638916
    41  C   -0.487843
    42  H    0.207796
    43  H    0.167714
    44  H    0.145979
    45  O   -0.553495
    46  N   -0.604186
    47  H    0.372673
    48  C   -0.089980
    49  H    0.204043
    50  C    0.641086
    51  C   -0.258268
    52  H    0.145179
    53  H    0.161641
    54  O   -0.568613
    55  C   -0.401438
    56  H    0.173039
    57  H    0.212214
    58  C    0.572877
    59  N   -0.773349
    60  H    0.400233
    61  H    0.319412
    62  O   -0.529001
    63  N   -0.623415
    64  H    0.419761
    65  C   -0.043616
    66  H    0.195607
    67  C    0.621261
    68  C   -0.400569
    69  H    0.140206
    70  H    0.157510
    71  O   -0.536490
    72  C    0.150720
    73  C   -0.171222
    74  H    0.117388
    75  C   -0.204881
    76  H    0.177615
    77  C   -0.162189
    78  H    0.123090
    79  C   -0.189308
    80  H    0.140891
    81  O   -0.690877
    82  H    0.431791
    83  C    0.349312
    84  N   -0.633036
    85  H    0.342427
    86  C   -0.000058
    87  H    0.181264
    88  C    0.600696
    89  C   -0.486585
    90  H    0.172982
    91  H    0.162507
    92  H    0.155622
    93  O   -0.566889
    94  N   -0.606395
    95  H    0.352319
    96  C   -0.073043
    97  H    0.162992
    98  C    0.605542
    99  C   -0.260865
   100  H    0.171986
   101  H    0.132203
   102  O   -0.562753
   103  C   -0.320255
   104  H    0.188707
   105  H    0.161801
   106  C   -0.149084
   107  H    0.180306
   108  H    0.180576
   109  N   -0.600722
   110  H    0.375601
   111  N   -0.755873
   112  H    0.382556
   113  H    0.396603
   114  N   -0.761912
   115  H    0.381353
   116  H    0.384040
   117  C    0.826937
   118  O   -0.642569
 Sum of Mulliken charges =   1.00000

 Dipole moment (field-independent basis, Debye):
    X=              1.7512    Y=             -2.7458    Z=             16.7764  Tot=             17.0896
 Quadrupole moment (field-independent basis, Debye-Ang):
   XX=            -75.5255   YY=            -13.0774   ZZ=           -244.1935
   XY=            275.6593   XZ=            126.6871   YZ=            161.8187

 Normal termination of Gaussian 16 at Sun Jul 17 00:10:54 2022.
