 Gaussian 16, Revision C.01,
 Gaussian 16:  ES64L-G16RevC.01  3-Jul-2019

 ----------------------------------------------------------------------
 # B3LYP/6-31G* empiricaldispersion=gd3bj guess=read geom=check nosymm
 integral(ultrafinegrid)
 ----------------------------------------------------------------------

 ------------------------------------------------------
 Candidate Structure: Conf:746 Charge calc in gas phase
 ------------------------------------------------------
 Structure from the checkpoint file:  "conf-746.chk"
 Charge =  1 Multiplicity = 1

                          Input orientation:
 ---------------------------------------------------------------------
 Center     Atomic      Atomic             Coordinates (Angstroms)
 Number     Number       Type             X           Y           Z
 ---------------------------------------------------------------------
      1          7           0       -2.859033   -4.278159    3.037367
      2          1           0       -2.586009   -3.644212    3.791908
      3          1           0       -2.648452   -5.253332    3.302651
      4          1           0       -3.867627   -4.116999    2.805693
      5          6           0       -2.144842   -3.986985    1.743014
      6          1           0       -1.176681   -3.524674    1.942975
      7          6           0       -3.107129   -3.054690    0.987133
      8          6           0       -1.970385   -5.336823    1.017571
      9          1           0       -2.964244   -5.675865    0.684829
     10          8           0       -4.309364   -3.090853    1.292276
     11          6           0       -1.022011   -5.248178   -0.168299
     12          1           0       -1.433299   -4.604766   -0.951765
     13          1           0       -0.058619   -4.837506    0.141939
     14          1           0       -0.876186   -6.247449   -0.593374
     15          8           0       -1.492553   -6.210139    2.052625
     16          1           0       -1.381261   -7.101547    1.686881
     17          7           0       -2.537874   -2.322630    0.041676
     18          1           0       -1.515555   -2.345026   -0.023072
     19          6           0       -3.262256   -1.431754   -0.854763
     20          1           0       -4.296331   -1.787685   -0.897400
     21          6           0       -2.616430   -1.637214   -2.239906
     22          6           0       -3.250499    0.007628   -0.248697
     23          1           0       -3.677378   -0.153710    0.750942
     24          8           0       -1.824839   -2.560752   -2.433571
     25          6           0       -4.156323    1.051710   -0.932049
     26          1           0       -3.662974    1.460798   -1.825975
     27          1           0       -4.202556    1.910910   -0.253356
     28          6           0       -1.828092    0.551833   -0.082379
     29          1           0       -1.371129    0.783617   -1.049925
     30          1           0       -1.185615   -0.152665    0.450724
     31          1           0       -1.852707    1.483871    0.486330
     32          6           0       -5.575439    0.575419   -1.255445
     33          1           0       -6.194640    1.407448   -1.604742
     34          1           0       -6.058278    0.150874   -0.367631
     35          1           0       -5.593188   -0.193301   -2.037911
     36          7           0       -2.960404   -0.764612   -3.223761
     37          1           0       -3.457341    0.070923   -2.947748
     38          6           0       -2.094647   -0.601482   -4.407259
     39          1           0       -1.948637   -1.588937   -4.850866
     40          6           0       -0.777590   -0.047224   -3.831607
     41          6           0       -2.740097    0.354626   -5.398551
     42          1           0       -2.126882    0.431066   -6.300933
     43          1           0       -2.817853    1.354408   -4.960462
     44          1           0       -3.735142    0.000112   -5.681966
     45          8           0       -0.726084    1.114947   -3.422424
     46          7           0        0.218583   -0.948231   -3.653490
     47          1           0       -0.035072   -1.908452   -3.850774
     48          6           0        1.153935   -0.794395   -2.528305
     49          1           0        0.607022   -0.270149   -1.735086
     50          6           0        2.379596    0.092613   -2.845140
     51          6           0        1.577475   -2.174849   -2.024173
     52          1           0        2.299017   -2.606038   -2.723894
     53          1           0        0.691192   -2.815752   -1.983962
     54          8           0        3.515800   -0.356836   -2.932078
     55          6           0        2.213563   -2.117283   -0.627011
     56          1           0        2.539793   -3.124816   -0.346640
     57          1           0        3.094188   -1.472102   -0.648360
     58          6           0        1.221553   -1.660167    0.432551
     59          7           0        1.498721   -0.498217    1.027646
     60          1           0        2.227917    0.112111    0.671539
     61          1           0        0.890984   -0.090930    1.728412
     62          8           0        0.212797   -2.345683    0.714659
     63          7           0        2.090039    1.420700   -2.911258
     64          1           0        1.115471    1.680373   -2.776220
     65          6           0        3.101960    2.399302   -2.602909
     66          1           0        3.921530    2.324090   -3.326803
     67          6           0        3.695387    2.104716   -1.205326
     68          6           0        2.491889    3.826750   -2.675098
     69          1           0        2.283612    4.039967   -3.728271
     70          1           0        3.251182    4.546236   -2.347716
     71          8           0        3.160135    1.323328   -0.412930
     72          6           0        1.224439    3.971611   -1.861628
     73          6           0       -0.030274    3.963997   -2.483139
     74          1           0       -0.091966    3.905732   -3.565748
     75          6           0        1.265439    4.026295   -0.463244
     76          1           0        2.221054    4.049394    0.048724
     77          6           0       -1.208665    3.993187   -1.742291
     78          1           0       -2.177641    3.977023   -2.229263
     79          6           0        0.097324    4.040192    0.292103
     80          1           0        0.151581    4.033464    1.377184
     81          8           0       -2.327329    4.003146    0.344810
     82          1           0       -2.133792    4.084982    1.291924
     83          6           0       -1.144116    4.022063   -0.349461
     84          7           0        4.819733    2.774691   -0.878172
     85          1           0        5.247464    3.379588   -1.567200
     86          6           0        5.609338    2.464163    0.321644
     87          1           0        5.478090    1.389765    0.500335
     88          6           0        5.096724    3.188723    1.590725
     89          6           0        7.077896    2.779033    0.067390
     90          1           0        7.667032    2.544113    0.954727
     91          1           0        7.450485    2.192981   -0.778048
     92          1           0        7.218936    3.845359   -0.139500
     93          8           0        5.867917    3.779390    2.341950
     94          7           0        3.760834    3.087039    1.814597
     95          1           0        3.217035    2.431131    1.256340
     96          6           0        3.167210    3.519429    3.067515
     97          1           0        3.912288    3.404910    3.859141
     98          6           0        1.989022    2.607306    3.403688
     99          6           0        2.679465    4.990146    3.047875
    100          1           0        1.976991    5.141687    3.874340
    101          1           0        2.120899    5.154854    2.120669
    102          8           0        1.550934    2.697878    4.647072
    103          6           0        3.806672    6.018164    3.166505
    104          1           0        3.382412    7.022428    3.033334
    105          1           0        4.544478    5.870805    2.373057
    106          6           0        4.542991    5.957149    4.508492
    107          1           0        5.386530    6.656479    4.489777
    108          1           0        4.961090    4.964476    4.677966
    109          7           0        3.713022    6.296954    5.661096
    110          1           0        3.504928    7.273470    5.813672
    111          7           0        3.063060    4.149028    6.314026
    112          1           0        2.864010    3.637501    7.173058
    113          1           0        2.153526    3.307226    5.206750
    114          7           0        2.802025    6.031229    7.748700
    115          1           0        2.411284    5.422628    8.454742
    116          1           0        3.412656    6.746760    8.123498
    117          6           0        3.198054    5.421676    6.567412
    118          8           0        1.459968    1.883499    2.572973
 ---------------------------------------------------------------------

 SCF Done:  E(RB3LYP) =  -2837.94718676     A.U. after    2 cycles

 Alpha  occ. eigenvalues --  -19.27397 -19.24492 -19.23266 -19.23150 -19.21243
 Alpha  occ. eigenvalues --  -19.20435 -19.20142 -19.19576 -19.19379 -19.17948
 Alpha  occ. eigenvalues --  -19.17692 -14.56701 -14.45936 -14.44986 -14.44638
 Alpha  occ. eigenvalues --  -14.43855 -14.42932 -14.42821 -14.41824 -14.41512
 Alpha  occ. eigenvalues --  -14.40934 -14.37349 -10.40057 -10.38153 -10.37675
 Alpha  occ. eigenvalues --  -10.37183 -10.36970 -10.36646 -10.36461 -10.36429
 Alpha  occ. eigenvalues --  -10.36419 -10.34969 -10.34532 -10.32438 -10.31895
 Alpha  occ. eigenvalues --  -10.31074 -10.30809 -10.30663 -10.30166 -10.29410
 Alpha  occ. eigenvalues --  -10.28181 -10.27723 -10.26947 -10.26828 -10.26100
 Alpha  occ. eigenvalues --  -10.25944 -10.25909 -10.25872 -10.25413 -10.25321
 Alpha  occ. eigenvalues --  -10.25168 -10.25097 -10.25042 -10.25020 -10.24635
 Alpha  occ. eigenvalues --  -10.24558 -10.24509 -10.23920  -1.16182  -1.15012
 Alpha  occ. eigenvalues --   -1.14471  -1.13367  -1.12512  -1.12309  -1.11744
 Alpha  occ. eigenvalues --   -1.10376  -1.10264  -1.09752  -1.09320  -1.06887
 Alpha  occ. eigenvalues --   -1.05955  -1.03332  -1.01544  -1.00837  -1.00485
 Alpha  occ. eigenvalues --   -0.98748  -0.98353  -0.97290  -0.96619  -0.92382
 Alpha  occ. eigenvalues --   -0.91664  -0.90844  -0.88770  -0.87270  -0.86517
 Alpha  occ. eigenvalues --   -0.85647  -0.85088  -0.83659  -0.82895  -0.80972
 Alpha  occ. eigenvalues --   -0.80793  -0.80284  -0.80142  -0.78872  -0.78213
 Alpha  occ. eigenvalues --   -0.74673  -0.74384  -0.73085  -0.72863  -0.71671
 Alpha  occ. eigenvalues --   -0.71278  -0.70968  -0.70292  -0.69222  -0.68675
 Alpha  occ. eigenvalues --   -0.68574  -0.68366  -0.68231  -0.67104  -0.66264
 Alpha  occ. eigenvalues --   -0.65865  -0.65580  -0.65458  -0.65189  -0.64316
 Alpha  occ. eigenvalues --   -0.64147  -0.63847  -0.63579  -0.62309  -0.61760
 Alpha  occ. eigenvalues --   -0.61609  -0.60613  -0.60573  -0.60063  -0.59892
 Alpha  occ. eigenvalues --   -0.59337  -0.58827  -0.58331  -0.57455  -0.56914
 Alpha  occ. eigenvalues --   -0.56796  -0.56219  -0.55725  -0.55682  -0.55199
 Alpha  occ. eigenvalues --   -0.55107  -0.54711  -0.54440  -0.54191  -0.53897
 Alpha  occ. eigenvalues --   -0.53871  -0.53441  -0.52984  -0.52010  -0.51688
 Alpha  occ. eigenvalues --   -0.51480  -0.51406  -0.51155  -0.50901  -0.50827
 Alpha  occ. eigenvalues --   -0.50509  -0.50136  -0.49960  -0.49687  -0.49555
 Alpha  occ. eigenvalues --   -0.49481  -0.48975  -0.48619  -0.48457  -0.48411
 Alpha  occ. eigenvalues --   -0.48223  -0.47779  -0.47631  -0.47580  -0.47397
 Alpha  occ. eigenvalues --   -0.47278  -0.46957  -0.46665  -0.46468  -0.46223
 Alpha  occ. eigenvalues --   -0.46037  -0.46011  -0.45902  -0.45550  -0.45451
 Alpha  occ. eigenvalues --   -0.44962  -0.44789  -0.44628  -0.44405  -0.44261
 Alpha  occ. eigenvalues --   -0.43929  -0.43432  -0.43242  -0.43052  -0.42972
 Alpha  occ. eigenvalues --   -0.42365  -0.42313  -0.42034  -0.41599  -0.41308
 Alpha  occ. eigenvalues --   -0.41163  -0.40933  -0.40877  -0.40764  -0.40180
 Alpha  occ. eigenvalues --   -0.40045  -0.39851  -0.39580  -0.38863  -0.37927
 Alpha  occ. eigenvalues --   -0.36798  -0.36743  -0.35662  -0.35635  -0.35543
 Alpha  occ. eigenvalues --   -0.35336  -0.34823  -0.34364  -0.34035  -0.33698
 Alpha  occ. eigenvalues --   -0.33436  -0.33144  -0.33015  -0.31667  -0.31461
 Alpha  occ. eigenvalues --   -0.31141  -0.30702  -0.30572  -0.30354  -0.28192
 Alpha virt. eigenvalues --   -0.09225  -0.08127  -0.07215  -0.07105  -0.06397
 Alpha virt. eigenvalues --   -0.06008  -0.05673  -0.05239  -0.04833  -0.04682
 Alpha virt. eigenvalues --   -0.03964  -0.03435  -0.03351  -0.01096  -0.00751

 Mulliken charges:
               1
     1  N   -0.749334
     2  H    0.410668
     3  H    0.423622
     4  H    0.416141
     5  C   -0.137421
     6  H    0.250318
     7  C    0.620862
     8  C    0.125392
     9  H    0.157364
    10  O   -0.557152
    11  C   -0.495645
    12  H    0.207035
    13  H    0.194066
    14  H    0.155839
    15  O   -0.652873
    16  H    0.425966
    17  N   -0.596525
    18  H    0.418381
    19  C   -0.096697
    20  H    0.207910
    21  C    0.611042
    22  C   -0.079327
    23  H    0.145827
    24  O   -0.529011
    25  C   -0.301987
    26  H    0.149111
    27  H    0.175171
    28  C   -0.512342
    29  H    0.185217
    30  H    0.146200
    31  H    0.167368
    32  C   -0.467366
    33  H    0.167093
    34  H    0.162014
    35  H    0.143431
    36  N   -0.599952
    37  H    0.358600
    38  C   -0.043975
    39  H    0.174847
    40  C    0.604866
    41  C   -0.477942
    42  H    0.178349
    43  H    0.176398
    44  H    0.171507
    45  O   -0.536992
    46  N   -0.573988
    47  H    0.354615
    48  C   -0.080492
    49  H    0.180879
    50  C    0.649422
    51  C   -0.321185
    52  H    0.180850
    53  H    0.172586
    54  O   -0.527513
    55  C   -0.360361
    56  H    0.168988
    57  H    0.190057
    58  C    0.605750
    59  N   -0.757417
    60  H    0.415408
    61  H    0.364445
    62  O   -0.599803
    63  N   -0.627114
    64  H    0.397117
    65  C   -0.042492
    66  H    0.179715
    67  C    0.656510
    68  C   -0.384669
    69  H    0.174894
    70  H    0.155911
    71  O   -0.569096
    72  C    0.131849
    73  C   -0.179365
    74  H    0.142591
    75  C   -0.190624
    76  H    0.146361
    77  C   -0.147081
    78  H    0.141259
    79  C   -0.188854
    80  H    0.131837
    81  O   -0.651618
    82  H    0.412346
    83  C    0.348666
    84  N   -0.596792
    85  H    0.343288
    86  C   -0.062255
    87  H    0.191007
    88  C    0.617744
    89  C   -0.469580
    90  H    0.192520
    91  H    0.160607
    92  H    0.161150
    93  O   -0.525303
    94  N   -0.646294
    95  H    0.394828
    96  C   -0.070630
    97  H    0.200235
    98  C    0.597561
    99  C   -0.282605
   100  H    0.152893
   101  H    0.158445
   102  O   -0.613538
   103  C   -0.261322
   104  H    0.131999
   105  H    0.170453
   106  C   -0.147644
   107  H    0.158355
   108  H    0.203704
   109  N   -0.590556
   110  H    0.333239
   111  N   -0.744893
   112  H    0.294331
   113  H    0.475974
   114  N   -0.757321
   115  H    0.338347
   116  H    0.339586
   117  C    0.669056
   118  O   -0.513037
 Sum of Mulliken charges =   1.00000

 Dipole moment (field-independent basis, Debye):
    X=             -2.5335    Y=             -1.2600    Z=             10.8605  Tot=             11.2231
 Quadrupole moment (field-independent basis, Debye-Ang):
   XX=           -292.0412   YY=           -195.4865   ZZ=           -217.4889
   XY=             69.9192   XZ=             13.6891   YZ=             23.8217

 Normal termination of Gaussian 16 at Sun Jul 17 00:11:34 2022.
