 Gaussian 16, Revision C.01,
 Gaussian 16:  ES64L-G16RevC.01  3-Jul-2019

 ----------------------------------------------------------------------
 # B3LYP/6-31G* empiricaldispersion=gd3bj guess=read geom=check nosymm
 integral(ultrafinegrid)
 ----------------------------------------------------------------------

 ------------------------------------------------------
 Candidate Structure: Conf:156 Charge calc in gas phase
 ------------------------------------------------------
 Structure from the checkpoint file:  "conf-156.chk"
 Charge =  1 Multiplicity = 1

                          Input orientation:
 ---------------------------------------------------------------------
 Center     Atomic      Atomic             Coordinates (Angstroms)
 Number     Number       Type             X           Y           Z
 ---------------------------------------------------------------------
      1          7           0       -4.789037    1.237463   -6.355861
      2          1           0       -5.278789    1.407987   -5.443438
      3          1           0       -5.242107    1.714861   -7.135832
      4          1           0       -3.786782    1.526523   -6.252886
      5          6           0       -4.720797   -0.255071   -6.471187
      6          1           0       -5.421272   -0.599303   -7.235455
      7          6           0       -5.157868   -0.749042   -5.072058
      8          6           0       -3.236797   -0.609465   -6.841197
      9          1           0       -3.018477   -1.614712   -6.461993
     10          8           0       -5.513532    0.083518   -4.234410
     11          6           0       -3.000881   -0.556394   -8.343798
     12          1           0       -3.630653   -1.282346   -8.868199
     13          1           0       -3.212026    0.443001   -8.742127
     14          1           0       -1.953324   -0.782703   -8.554717
     15          8           0       -2.396285    0.345708   -6.218064
     16          1           0       -2.225213    0.063802   -5.281480
     17          7           0       -5.103003   -2.071687   -4.879174
     18          1           0       -4.715078   -2.674325   -5.598962
     19          6           0       -5.075770   -2.687072   -3.545968
     20          1           0       -5.158180   -1.874847   -2.819271
     21          6           0       -3.693128   -3.356444   -3.493675
     22          6           0       -6.215589   -3.701863   -3.332814
     23          1           0       -6.127500   -4.452912   -4.130597
     24          8           0       -3.321398   -4.059061   -4.429082
     25          6           0       -7.579884   -3.002695   -3.455788
     26          1           0       -7.595369   -2.421138   -4.385862
     27          1           0       -7.682977   -2.276550   -2.637465
     28          6           0       -6.031428   -4.404885   -1.981316
     29          1           0       -6.062386   -3.683981   -1.154367
     30          1           0       -5.080126   -4.944796   -1.927938
     31          1           0       -6.825395   -5.135903   -1.812635
     32          6           0       -8.770639   -3.964818   -3.452015
     33          1           0       -9.705657   -3.420579   -3.618601
     34          1           0       -8.867247   -4.495644   -2.499950
     35          1           0       -8.674604   -4.715166   -4.245772
     36          7           0       -2.911372   -3.003822   -2.437216
     37          1           0       -3.346006   -2.648333   -1.581083
     38          6           0       -1.628747   -3.653747   -2.142737
     39          1           0       -1.768576   -4.741973   -2.178784
     40          6           0       -1.315292   -3.231301   -0.688992
     41          6           0       -0.533533   -3.248246   -3.139053
     42          1           0        0.336012   -3.905342   -3.042407
     43          1           0       -0.198993   -2.221503   -2.970847
     44          1           0       -0.910446   -3.363833   -4.157076
     45          8           0       -2.181064   -2.676763   -0.009600
     46          7           0       -0.069078   -3.514722   -0.246879
     47          1           0        0.618906   -3.716343   -0.962967
     48          6           0        0.500556   -2.774185    0.876951
     49          1           0       -0.328954   -2.487615    1.527308
     50          6           0        1.172339   -1.521082    0.280986
     51          6           0        1.511614   -3.643104    1.642401
     52          1           0        2.340991   -3.905181    0.973704
     53          1           0        1.028710   -4.581694    1.926449
     54          8           0        1.580485   -1.522585   -0.878581
     55          6           0        2.057562   -2.961051    2.896488
     56          1           0        2.613583   -2.049697    2.659941
     57          1           0        1.226006   -2.653241    3.548375
     58          6           0        2.950151   -3.897258    3.708657
     59          7           0        3.799905   -3.250377    4.556995
     60          1           0        3.806042   -2.244690    4.645432
     61          1           0        4.373155   -3.800636    5.180675
     62          8           0        2.899341   -5.114457    3.611041
     63          7           0        1.278885   -0.458646    1.113843
     64          1           0        1.121763   -0.574724    2.109114
     65          6           0        2.050721    0.715453    0.768730
     66          1           0        2.702075    0.447321   -0.068580
     67          6           0        2.896867    1.078655    2.002324
     68          6           0        1.131008    1.892638    0.326024
     69          1           0        1.755769    2.720148   -0.027194
     70          1           0        0.581361    2.252510    1.203301
     71          8           0        2.725838    0.498959    3.081622
     72          6           0        0.172265    1.439843   -0.745847
     73          6           0        0.530861    1.459481   -2.097748
     74          1           0        1.477648    1.901650   -2.395871
     75          6           0       -1.049755    0.858522   -0.389633
     76          1           0       -1.349686    0.835999    0.653217
     77          6           0       -0.281358    0.874552   -3.068435
     78          1           0        0.019742    0.853316   -4.111500
     79          6           0       -1.876520    0.276136   -1.345413
     80          1           0       -2.813336   -0.185294   -1.053607
     81          8           0       -2.253480   -0.376637   -3.638967
     82          1           0       -2.518168   -1.246981   -3.271768
     83          6           0       -1.470102    0.265966   -2.677179
     84          7           0        3.793615    2.055441    1.808845
     85          1           0        3.872881    2.564756    0.930423
     86          6           0        4.643743    2.598150    2.853897
     87          1           0        4.031397    2.793727    3.742695
     88          6           0        5.178552    3.930891    2.290287
     89          6           0        5.779998    1.634747    3.227236
     90          1           0        6.396646    2.047090    4.031522
     91          1           0        5.354255    0.686677    3.564745
     92          1           0        6.421526    1.450016    2.360044
     93          8           0        4.950526    4.251475    1.117556
     94          7           0        5.904131    4.663008    3.144253
     95          1           0        6.058562    4.390119    4.111628
     96          6           0        6.584362    5.905096    2.797636
     97          1           0        7.011953    5.818602    1.796209
     98          6           0        7.691323    6.099030    3.857264
     99          6           0        5.569549    7.070290    2.851641
    100          1           0        5.205141    7.129846    3.885338
    101          1           0        4.716519    6.778221    2.229745
    102          8           0        8.740210    6.704164    3.456274
    103          6           0        6.033092    8.454626    2.369571
    104          1           0        5.149472    9.108860    2.351034
    105          1           0        6.379203    8.389977    1.330752
    106          6           0        7.149288    9.152223    3.162501
    107          1           0        7.243759   10.192003    2.826290
    108          1           0        8.090827    8.637901    2.995459
    109          7           0        6.874753    9.151606    4.607791
    110          1           0        5.925247    9.367247    4.879978
    111          7           0        8.951245    8.410453    5.370666
    112          1           0        9.524118    8.258826    6.190879
    113          1           0        9.057234    7.674193    4.577388
    114          7           0        7.341941    9.159069    6.877811
    115          1           0        7.686373    8.551750    7.608862
    116          1           0        6.416340    9.530399    7.038977
    117          6           0        7.730137    8.873770    5.601465
    118          8           0        7.421870    5.731936    5.018151
 ---------------------------------------------------------------------

 SCF Done:  E(RB3LYP) =  -2837.90941302     A.U. after    1 cycles

 Alpha  occ. eigenvalues --  -19.27197 -19.27061 -19.26070 -19.22772 -19.20831
 Alpha  occ. eigenvalues --  -19.18282 -19.18195 -19.16568 -19.15407 -19.13230
 Alpha  occ. eigenvalues --  -19.12610 -14.57537 -14.49246 -14.46591 -14.45291
 Alpha  occ. eigenvalues --  -14.45166 -14.43714 -14.42367 -14.41714 -14.41158
 Alpha  occ. eigenvalues --  -14.39972 -14.39945 -10.42947 -10.40355 -10.39595
 Alpha  occ. eigenvalues --  -10.39195 -10.38125 -10.37550 -10.35225 -10.35179
 Alpha  occ. eigenvalues --  -10.34001 -10.33539 -10.33304 -10.32743 -10.32428
 Alpha  occ. eigenvalues --  -10.30685 -10.30090 -10.30001 -10.29644 -10.28927
 Alpha  occ. eigenvalues --  -10.28643 -10.28162 -10.26432 -10.26432 -10.26360
 Alpha  occ. eigenvalues --  -10.26349 -10.26300 -10.26262 -10.26192 -10.26071
 Alpha  occ. eigenvalues --  -10.26046 -10.25821 -10.25071 -10.24765 -10.24759
 Alpha  occ. eigenvalues --  -10.24755 -10.23532 -10.23343  -1.18694  -1.15716
 Alpha  occ. eigenvalues --   -1.14887  -1.14031  -1.12675  -1.11376  -1.10555
 Alpha  occ. eigenvalues --   -1.09693  -1.09111  -1.08289  -1.07281  -1.06365
 Alpha  occ. eigenvalues --   -1.05925  -1.02827  -1.00689  -0.99323  -0.98936
 Alpha  occ. eigenvalues --   -0.98531  -0.98142  -0.96348  -0.95992  -0.94652
 Alpha  occ. eigenvalues --   -0.92799  -0.92270  -0.90114  -0.87653  -0.86233
 Alpha  occ. eigenvalues --   -0.85287  -0.85025  -0.84575  -0.82944  -0.82196
 Alpha  occ. eigenvalues --   -0.82124  -0.80152  -0.79300  -0.78675  -0.77902
 Alpha  occ. eigenvalues --   -0.75237  -0.73931  -0.73383  -0.73266  -0.73047
 Alpha  occ. eigenvalues --   -0.72416  -0.71649  -0.71032  -0.70730  -0.70365
 Alpha  occ. eigenvalues --   -0.69479  -0.68828  -0.68021  -0.66881  -0.66746
 Alpha  occ. eigenvalues --   -0.66572  -0.65789  -0.65530  -0.65257  -0.64986
 Alpha  occ. eigenvalues --   -0.64325  -0.63908  -0.62795  -0.62438  -0.62307
 Alpha  occ. eigenvalues --   -0.61901  -0.61697  -0.61605  -0.60188  -0.59163
 Alpha  occ. eigenvalues --   -0.58733  -0.58153  -0.58056  -0.57813  -0.57458
 Alpha  occ. eigenvalues --   -0.56879  -0.56262  -0.56018  -0.55671  -0.55078
 Alpha  occ. eigenvalues --   -0.54985  -0.54714  -0.53967  -0.53886  -0.53805
 Alpha  occ. eigenvalues --   -0.53435  -0.53079  -0.52744  -0.52499  -0.52160
 Alpha  occ. eigenvalues --   -0.52062  -0.52008  -0.51643  -0.51124  -0.50938
 Alpha  occ. eigenvalues --   -0.50918  -0.50704  -0.50096  -0.49938  -0.49768
 Alpha  occ. eigenvalues --   -0.49692  -0.49437  -0.49273  -0.48900  -0.48644
 Alpha  occ. eigenvalues --   -0.48634  -0.48462  -0.47817  -0.47591  -0.47393
 Alpha  occ. eigenvalues --   -0.47239  -0.47111  -0.46976  -0.46644  -0.46260
 Alpha  occ. eigenvalues --   -0.46093  -0.45849  -0.45436  -0.45278  -0.44989
 Alpha  occ. eigenvalues --   -0.44851  -0.44422  -0.44236  -0.43780  -0.43623
 Alpha  occ. eigenvalues --   -0.43132  -0.43074  -0.42852  -0.42361  -0.42307
 Alpha  occ. eigenvalues --   -0.42190  -0.41948  -0.41710  -0.41614  -0.41399
 Alpha  occ. eigenvalues --   -0.41142  -0.41075  -0.40903  -0.40790  -0.40200
 Alpha  occ. eigenvalues --   -0.40076  -0.39860  -0.39783  -0.39127  -0.39037
 Alpha  occ. eigenvalues --   -0.37769  -0.37058  -0.35686  -0.35684  -0.35064
 Alpha  occ. eigenvalues --   -0.34335  -0.33351  -0.32988  -0.32585  -0.32104
 Alpha  occ. eigenvalues --   -0.31692  -0.31507  -0.30959  -0.30747  -0.30345
 Alpha  occ. eigenvalues --   -0.30073  -0.29253  -0.28628  -0.27428  -0.26761
 Alpha virt. eigenvalues --   -0.12310  -0.09094  -0.08434  -0.07571  -0.07054
 Alpha virt. eigenvalues --   -0.06598  -0.05410  -0.04410  -0.04203  -0.03876
 Alpha virt. eigenvalues --   -0.03550  -0.02463  -0.02131  -0.01463  -0.01295

 Mulliken charges:
               1
     1  N   -0.755572
     2  H    0.428239
     3  H    0.407080
     4  H    0.424570
     5  C   -0.131525
     6  H    0.217814
     7  C    0.640192
     8  C    0.082375
     9  H    0.177881
    10  O   -0.522671
    11  C   -0.447077
    12  H    0.167005
    13  H    0.150842
    14  H    0.204049
    15  O   -0.665388
    16  H    0.477409
    17  N   -0.593647
    18  H    0.360517
    19  C   -0.069305
    20  H    0.185396
    21  C    0.596919
    22  C   -0.075687
    23  H    0.148177
    24  O   -0.521159
    25  C   -0.255790
    26  H    0.131833
    27  H    0.145484
    28  C   -0.479348
    29  H    0.154784
    30  H    0.161434
    31  H    0.179721
    32  C   -0.453332
    33  H    0.159738
    34  H    0.160744
    35  H    0.150812
    36  N   -0.670651
    37  H    0.380876
    38  C   -0.039350
    39  H    0.200816
    40  C    0.629045
    41  C   -0.504189
    42  H    0.170494
    43  H    0.201700
    44  H    0.181717
    45  O   -0.540363
    46  N   -0.580254
    47  H    0.350936
    48  C   -0.099931
    49  H    0.185966
    50  C    0.627761
    51  C   -0.258265
    52  H    0.158507
    53  H    0.191200
    54  O   -0.539798
    55  C   -0.409606
    56  H    0.179365
    57  H    0.167358
    58  C    0.607156
    59  N   -0.754641
    60  H    0.348832
    61  H    0.346383
    62  O   -0.503873
    63  N   -0.600675
    64  H    0.354387
    65  C   -0.063072
    66  H    0.196377
    67  C    0.632967
    68  C   -0.368269
    69  H    0.164811
    70  H    0.159196
    71  O   -0.561591
    72  C    0.183956
    73  C   -0.169054
    74  H    0.142370
    75  C   -0.180926
    76  H    0.141123
    77  C   -0.163743
    78  H    0.143158
    79  C   -0.167649
    80  H    0.139308
    81  O   -0.767852
    82  H    0.466082
    83  C    0.328034
    84  N   -0.618051
    85  H    0.362228
    86  C   -0.038476
    87  H    0.174659
    88  C    0.622323
    89  C   -0.449061
    90  H    0.163537
    91  H    0.171780
    92  H    0.164502
    93  O   -0.560837
    94  N   -0.616838
    95  H    0.350164
    96  C   -0.011586
    97  H    0.166095
    98  C    0.584202
    99  C   -0.263110
   100  H    0.125034
   101  H    0.164041
   102  O   -0.622432
   103  C   -0.296728
   104  H    0.134903
   105  H    0.168355
   106  C   -0.154377
   107  H    0.162412
   108  H    0.232056
   109  N   -0.593098
   110  H    0.335912
   111  N   -0.748624
   112  H    0.340403
   113  H    0.430341
   114  N   -0.758192
   115  H    0.366322
   116  H    0.349954
   117  C    0.772188
   118  O   -0.588644
 Sum of Mulliken charges =   1.00000

 Dipole moment (field-independent basis, Debye):
    X=            -12.0692    Y=             12.6816    Z=            -11.9361  Tot=             21.1887
 Quadrupole moment (field-independent basis, Debye-Ang):
   XX=           -225.7119   YY=           -205.4573   ZZ=           -113.8926
   XY=             81.4428   XZ=            171.6643   YZ=             95.3592

 Normal termination of Gaussian 16 at Sun Jul 17 00:10:04 2022.
