 Gaussian 16, Revision C.01,
 Gaussian 16:  ES64L-G16RevC.01  3-Jul-2019

 ----------------------------------------------------------------------
 # B3LYP/6-31G* empiricaldispersion=gd3bj guess=read geom=check nosymm
 integral(ultrafinegrid)
 ----------------------------------------------------------------------

 ------------------------------------------------------
 Candidate Structure: Conf:772 Charge calc in gas phase
 ------------------------------------------------------
 Structure from the checkpoint file:  "conf-772.chk"
 Charge =  1 Multiplicity = 1

                          Input orientation:
 ---------------------------------------------------------------------
 Center     Atomic      Atomic             Coordinates (Angstroms)
 Number     Number       Type             X           Y           Z
 ---------------------------------------------------------------------
      1          7           0       -6.187221   -6.281373   -2.054912
      2          1           0       -5.821977   -6.861736   -1.295831
      3          1           0       -6.700594   -6.869956   -2.730363
      4          1           0       -6.765854   -5.506353   -1.639236
      5          6           0       -5.110993   -5.541044   -2.800431
      6          1           0       -4.169191   -6.081837   -2.689306
      7          6           0       -5.103960   -4.141798   -2.142600
      8          6           0       -5.527079   -5.480020   -4.287839
      9          1           0       -6.338912   -4.743149   -4.383858
     10          8           0       -6.108515   -3.818660   -1.492261
     11          6           0       -4.367121   -5.110796   -5.203390
     12          1           0       -3.979818   -4.109690   -4.992317
     13          1           0       -3.555398   -5.838847   -5.105573
     14          1           0       -4.705030   -5.114777   -6.244846
     15          8           0       -6.031773   -6.793823   -4.553302
     16          1           0       -6.384144   -6.827005   -5.456848
     17          7           0       -4.035593   -3.398552   -2.375340
     18          1           0       -3.264398   -3.717776   -2.962899
     19          6           0       -3.880002   -1.997164   -1.992580
     20          1           0       -4.864327   -1.523691   -2.020041
     21          6           0       -2.956906   -1.424784   -3.083914
     22          6           0       -3.275985   -1.878596   -0.559154
     23          1           0       -3.977959   -2.435336    0.077693
     24          8           0       -2.270489   -2.193366   -3.768904
     25          6           0       -3.232846   -0.433926   -0.030151
     26          1           0       -2.532109    0.166211   -0.617740
     27          1           0       -2.790273   -0.474890    0.969952
     28          6           0       -1.899239   -2.549987   -0.472850
     29          1           0       -1.204526   -2.136242   -1.211839
     30          1           0       -1.963089   -3.629326   -0.652402
     31          1           0       -1.462365   -2.379915    0.514325
     32          6           0       -4.590248    0.271825    0.028944
     33          1           0       -4.491482    1.247889    0.512888
     34          1           0       -5.320666   -0.315945    0.597884
     35          1           0       -5.024920    0.456113   -0.962782
     36          7           0       -2.940864   -0.087223   -3.204122
     37          1           0       -3.464856    0.484294   -2.548213
     38          6           0       -1.866572    0.646225   -3.878403
     39          1           0       -1.108429   -0.086090   -4.164455
     40          6           0       -1.345207    1.617350   -2.805287
     41          6           0       -2.377166    1.402577   -5.106575
     42          1           0       -1.556425    1.942243   -5.590483
     43          1           0       -3.140674    2.128433   -4.810995
     44          1           0       -2.808781    0.702175   -5.827143
     45          8           0       -2.156328    2.238032   -2.112771
     46          7           0       -0.012476    1.691599   -2.656078
     47          1           0        0.632702    1.180332   -3.251937
     48          6           0        0.623372    2.425042   -1.574111
     49          1           0        0.340331    3.483832   -1.635255
     50          6           0        2.138706    2.294316   -1.813165
     51          6           0        0.214460    1.879648   -0.188716
     52          1           0       -0.850376    2.074892   -0.044943
     53          1           0        0.739210    2.448276    0.587068
     54          8           0        2.589016    1.674646   -2.772586
     55          6           0        0.512669    0.379039   -0.025368
     56          1           0       -0.236005   -0.210947   -0.553367
     57          1           0        1.496024    0.146075   -0.444680
     58          6           0        0.493224   -0.031713    1.445486
     59          7           0        1.593997    0.371297    2.129463
     60          1           0        2.420837    0.674026    1.625752
     61          1           0        1.746587    0.063002    3.084414
     62          8           0       -0.455642   -0.621155    1.964143
     63          7           0        2.927639    2.912091   -0.897006
     64          1           0        2.494763    3.234270   -0.042575
     65          6           0        4.353200    2.650324   -0.832115
     66          1           0        4.798346    2.910544   -1.797239
     67          6           0        4.613963    1.156579   -0.550601
     68          6           0        4.962011    3.540391    0.282798
     69          1           0        4.516667    3.236506    1.237224
     70          1           0        4.655233    4.571816    0.071659
     71          8           0        3.742218    0.432498   -0.050596
     72          6           0        6.464180    3.433643    0.365880
     73          6           0        7.055204    2.569724    1.298491
     74          1           0        6.404118    2.029938    1.978463
     75          6           0        7.292802    4.093712   -0.546621
     76          1           0        6.860498    4.769413   -1.281389
     77          6           0        8.427268    2.353068    1.316927
     78          1           0        8.877213    1.645921    2.004680
     79          6           0        8.674414    3.897423   -0.533289
     80          1           0        9.307278    4.422839   -1.245470
     81          8           0       10.585032    2.779894    0.458695
     82          1           0       11.036458    3.299149   -0.224887
     83          6           0        9.245020    3.023314    0.398727
     84          7           0        5.849871    0.718960   -0.850565
     85          1           0        6.540063    1.407153   -1.124749
     86          6           0        6.355098   -0.628559   -0.551165
     87          1           0        5.538669   -1.320052   -0.785422
     88          6           0        6.709155   -0.792814    0.959178
     89          6           0        7.569076   -0.912357   -1.423664
     90          1           0        7.939253   -1.921861   -1.234365
     91          1           0        7.308880   -0.816768   -2.482157
     92          1           0        8.381874   -0.220781   -1.180289
     93          8           0        7.861437   -0.995136    1.328013
     94          7           0        5.617640   -0.694144    1.753587
     95          1           0        4.747697   -0.495200    1.265110
     96          6           0        5.522215   -0.684558    3.210800
     97          1           0        5.269636   -1.688952    3.571377
     98          6           0        4.340573    0.238438    3.589463
     99          6           0        6.807392   -0.221782    3.931076
    100          1           0        7.124134    0.738041    3.509196
    101          1           0        7.606988   -0.921214    3.689618
    102          8           0        3.510206   -0.175126    4.418548
    103          6           0        6.631061   -0.098498    5.465612
    104          1           0        7.444236   -0.627917    5.975044
    105          1           0        5.693803   -0.568711    5.784275
    106          6           0        6.661786    1.351569    5.973082
    107          1           0        7.586245    1.844657    5.656628
    108          1           0        6.663395    1.382286    7.066897
    109          7           0        5.555424    2.170745    5.462616
    110          1           0        5.508755    2.227865    4.442033
    111          7           0        4.155159    2.101288    7.338637
    112          1           0        3.224288    1.936503    7.690276
    113          1           0        4.915977    1.795031    7.923949
    114          7           0        3.325092    2.665714    5.231002
    115          1           0        2.394291    2.621326    5.623236
    116          1           0        3.420862    2.311940    4.251874
    117          6           0        4.340159    2.274873    6.014750
    118          8           0        4.344701    1.409443    3.050395
 ---------------------------------------------------------------------

 SCF Done:  E(RB3LYP) =  -2837.91921465     A.U. after    3 cycles

 Alpha  occ. eigenvalues --  -19.29631 -19.25217 -19.22706 -19.20780 -19.18820
 Alpha  occ. eigenvalues --  -19.18380 -19.18335 -19.15379 -19.15116 -19.14518
 Alpha  occ. eigenvalues --  -19.14361 -14.58421 -14.48049 -14.46409 -14.44564
 Alpha  occ. eigenvalues --  -14.44359 -14.42977 -14.42762 -14.42756 -14.42333
 Alpha  occ. eigenvalues --  -14.38966 -14.37435 -10.42244 -10.41268 -10.39553
 Alpha  occ. eigenvalues --  -10.39033 -10.37714 -10.35621 -10.35529 -10.35095
 Alpha  occ. eigenvalues --  -10.32506 -10.32385 -10.32268 -10.32020 -10.30754
 Alpha  occ. eigenvalues --  -10.30548 -10.30089 -10.30078 -10.30009 -10.30002
 Alpha  occ. eigenvalues --  -10.28302 -10.26887 -10.26674 -10.25576 -10.25031
 Alpha  occ. eigenvalues --  -10.25017 -10.24854 -10.24646 -10.24357 -10.24307
 Alpha  occ. eigenvalues --  -10.23606 -10.23552 -10.23531 -10.23529 -10.23349
 Alpha  occ. eigenvalues --  -10.23309 -10.23036 -10.22529  -1.18347  -1.16677
 Alpha  occ. eigenvalues --   -1.12830  -1.12122  -1.11262  -1.10850  -1.10336
 Alpha  occ. eigenvalues --   -1.10244  -1.09735  -1.07970  -1.06751  -1.05823
 Alpha  occ. eigenvalues --   -1.04885  -1.00974  -0.99880  -0.99672  -0.99283
 Alpha  occ. eigenvalues --   -0.98893  -0.98759  -0.97721  -0.95699  -0.92862
 Alpha  occ. eigenvalues --   -0.92699  -0.90802  -0.88893  -0.86540  -0.85567
 Alpha  occ. eigenvalues --   -0.84837  -0.84466  -0.83648  -0.82042  -0.81028
 Alpha  occ. eigenvalues --   -0.79952  -0.79609  -0.79060  -0.78323  -0.76990
 Alpha  occ. eigenvalues --   -0.76333  -0.73995  -0.73189  -0.72839  -0.72000
 Alpha  occ. eigenvalues --   -0.71681  -0.71491  -0.70786  -0.69803  -0.69036
 Alpha  occ. eigenvalues --   -0.68569  -0.67527  -0.67388  -0.66895  -0.66400
 Alpha  occ. eigenvalues --   -0.66154  -0.65986  -0.64836  -0.64359  -0.64261
 Alpha  occ. eigenvalues --   -0.64000  -0.63153  -0.62957  -0.62177  -0.61473
 Alpha  occ. eigenvalues --   -0.61037  -0.60246  -0.59561  -0.59177  -0.58591
 Alpha  occ. eigenvalues --   -0.58331  -0.57986  -0.57380  -0.56965  -0.56603
 Alpha  occ. eigenvalues --   -0.55902  -0.55682  -0.55453  -0.55218  -0.54922
 Alpha  occ. eigenvalues --   -0.54552  -0.54380  -0.53881  -0.53484  -0.53121
 Alpha  occ. eigenvalues --   -0.52764  -0.52627  -0.52123  -0.52041  -0.51702
 Alpha  occ. eigenvalues --   -0.51353  -0.51310  -0.51029  -0.50723  -0.50181
 Alpha  occ. eigenvalues --   -0.49921  -0.49737  -0.49478  -0.49383  -0.49084
 Alpha  occ. eigenvalues --   -0.48911  -0.48710  -0.48379  -0.48316  -0.47692
 Alpha  occ. eigenvalues --   -0.47553  -0.47454  -0.47263  -0.47120  -0.46597
 Alpha  occ. eigenvalues --   -0.46488  -0.46413  -0.45710  -0.45562  -0.45419
 Alpha  occ. eigenvalues --   -0.45176  -0.44912  -0.44470  -0.44303  -0.43795
 Alpha  occ. eigenvalues --   -0.43515  -0.43427  -0.43210  -0.43042  -0.42849
 Alpha  occ. eigenvalues --   -0.42687  -0.42388  -0.42354  -0.42061  -0.41962
 Alpha  occ. eigenvalues --   -0.41840  -0.41359  -0.40904  -0.40776  -0.40676
 Alpha  occ. eigenvalues --   -0.40393  -0.40172  -0.39991  -0.39916  -0.39493
 Alpha  occ. eigenvalues --   -0.39335  -0.38926  -0.38606  -0.38530  -0.37739
 Alpha  occ. eigenvalues --   -0.36825  -0.36690  -0.34774  -0.34533  -0.33957
 Alpha  occ. eigenvalues --   -0.33812  -0.33443  -0.32563  -0.32328  -0.31770
 Alpha  occ. eigenvalues --   -0.31393  -0.30968  -0.30472  -0.29996  -0.29545
 Alpha  occ. eigenvalues --   -0.28989  -0.28524  -0.27953  -0.27172  -0.26887
 Alpha virt. eigenvalues --   -0.11131  -0.09155  -0.06964  -0.06356  -0.05683
 Alpha virt. eigenvalues --   -0.05360  -0.05274  -0.04721  -0.04231  -0.03810
 Alpha virt. eigenvalues --   -0.03406  -0.02584  -0.01591  -0.01440  -0.01246

 Mulliken charges:
               1
     1  N   -0.748962
     2  H    0.415094
     3  H    0.428025
     4  H    0.424705
     5  C   -0.124617
     6  H    0.214539
     7  C    0.645988
     8  C    0.126874
     9  H    0.170556
    10  O   -0.542364
    11  C   -0.489397
    12  H    0.197722
    13  H    0.181754
    14  H    0.180293
    15  O   -0.648258
    16  H    0.432448
    17  N   -0.597278
    18  H    0.375616
    19  C   -0.082827
    20  H    0.189374
    21  C    0.627617
    22  C   -0.079516
    23  H    0.145407
    24  O   -0.557192
    25  C   -0.304405
    26  H    0.153727
    27  H    0.198366
    28  C   -0.484353
    29  H    0.159336
    30  H    0.117113
    31  H    0.213081
    32  C   -0.460459
    33  H    0.171306
    34  H    0.150841
    35  H    0.126788
    36  N   -0.603711
    37  H    0.372482
    38  C   -0.061450
    39  H    0.182643
    40  C    0.634236
    41  C   -0.444352
    42  H    0.166599
    43  H    0.174179
    44  H    0.165804
    45  O   -0.548320
    46  N   -0.620486
    47  H    0.362511
    48  C   -0.040430
    49  H    0.185268
    50  C    0.634503
    51  C   -0.303970
    52  H    0.197801
    53  H    0.143087
    54  O   -0.535762
    55  C   -0.388624
    56  H    0.157755
    57  H    0.199097
    58  C    0.575182
    59  N   -0.788458
    60  H    0.374926
    61  H    0.357659
    62  O   -0.526673
    63  N   -0.614320
    64  H    0.343074
    65  C   -0.043767
    66  H    0.181103
    67  C    0.664601
    68  C   -0.402254
    69  H    0.190066
    70  H    0.163462
    71  O   -0.568504
    72  C    0.116909
    73  C   -0.216317
    74  H    0.182016
    75  C   -0.200711
    76  H    0.133241
    77  C   -0.168436
    78  H    0.164242
    79  C   -0.195600
    80  H    0.129805
    81  O   -0.631919
    82  H    0.411679
    83  C    0.347399
    84  N   -0.584068
    85  H    0.352443
    86  C   -0.069074
    87  H    0.180496
    88  C    0.628641
    89  C   -0.464163
    90  H    0.177711
    91  H    0.151695
    92  H    0.172103
    93  O   -0.534002
    94  N   -0.658420
    95  H    0.381970
    96  C    0.046181
    97  H    0.157002
    98  C    0.563433
    99  C   -0.317523
   100  H    0.149877
   101  H    0.198275
   102  O   -0.580399
   103  C   -0.279038
   104  H    0.156625
   105  H    0.176772
   106  C   -0.181947
   107  H    0.187376
   108  H    0.144941
   109  N   -0.581965
   110  H    0.384311
   111  N   -0.759197
   112  H    0.368426
   113  H    0.370982
   114  N   -0.742689
   115  H    0.341460
   116  H    0.396622
   117  C    0.772500
   118  O   -0.641564
 Sum of Mulliken charges =   1.00000

 Dipole moment (field-independent basis, Debye):
    X=            -10.3910    Y=            -12.6529    Z=             -3.5203  Tot=             16.7470
 Quadrupole moment (field-independent basis, Debye-Ang):
   XX=           -162.2759   YY=           -186.0417   ZZ=           -196.4725
   XY=            171.1196   XZ=            103.0251   YZ=             82.0318

 Normal termination of Gaussian 16 at Sun Jul 17 00:11:33 2022.
