 Gaussian 16, Revision C.01,
 Gaussian 16:  ES64L-G16RevC.01  3-Jul-2019

 ----------------------------------------------------------------------
 # B3LYP/6-31G* empiricaldispersion=gd3bj guess=read geom=check nosymm
 integral(ultrafinegrid)
 ----------------------------------------------------------------------

 -----------------------------------------------------
 Candidate Structure: Conf:34 Charge calc in gas phase
 -----------------------------------------------------
 Structure from the checkpoint file:  "conf-34.chk"
 Charge =  1 Multiplicity = 1

                          Input orientation:
 ---------------------------------------------------------------------
 Center     Atomic      Atomic             Coordinates (Angstroms)
 Number     Number       Type             X           Y           Z
 ---------------------------------------------------------------------
      1          7           0       -4.677078   -4.242717   -5.343195
      2          1           0       -5.272782   -3.533389   -5.834582
      3          1           0       -5.139310   -5.145619   -5.230713
      4          1           0       -3.796767   -4.329909   -5.890600
      5          6           0       -4.261467   -3.568379   -4.063889
      6          1           0       -4.870749   -3.936695   -3.235413
      7          6           0       -4.537637   -2.075515   -4.361536
      8          6           0       -2.747650   -3.862723   -3.880674
      9          1           0       -2.362921   -3.200457   -3.102215
     10          8           0       -5.110086   -1.781874   -5.417691
     11          6           0       -2.476779   -5.307622   -3.487657
     12          1           0       -2.946694   -5.542674   -2.527471
     13          1           0       -2.841722   -6.015368   -4.241841
     14          1           0       -1.398743   -5.459274   -3.395893
     15          8           0       -2.129790   -3.607511   -5.135350
     16          1           0       -2.004905   -2.634894   -5.211566
     17          7           0       -4.086124   -1.195142   -3.466915
     18          1           0       -3.542728   -1.520473   -2.660611
     19          6           0       -3.879204    0.194462   -3.850429
     20          1           0       -4.771166    0.554499   -4.373768
     21          6           0       -2.673850    0.209741   -4.829021
     22          6           0       -3.656802    1.029768   -2.553140
     23          1           0       -2.771161    0.608866   -2.059992
     24          8           0       -1.984956   -0.806755   -5.012736
     25          6           0       -4.858784    0.847196   -1.596924
     26          1           0       -5.238597   -0.176572   -1.661550
     27          1           0       -5.674649    1.501528   -1.932162
     28          6           0       -3.409287    2.525315   -2.802412
     29          1           0       -4.166775    2.943912   -3.479168
     30          1           0       -2.414067    2.750247   -3.191739
     31          1           0       -3.500923    3.073354   -1.861198
     32          6           0       -4.507584    1.142940   -0.136617
     33          1           0       -5.391358    1.043609    0.501093
     34          1           0       -4.116178    2.155824    0.004036
     35          1           0       -3.753520    0.435404    0.228464
     36          7           0       -2.367562    1.381298   -5.419836
     37          1           0       -2.920914    2.192507   -5.175015
     38          6           0       -1.005629    1.671355   -5.926161
     39          1           0       -0.675713    0.789868   -6.479883
     40          6           0       -0.166660    1.858717   -4.641720
     41          6           0       -1.014487    2.908278   -6.807392
     42          1           0       -0.011687    3.087411   -7.204277
     43          1           0       -1.300184    3.790696   -6.227646
     44          1           0       -1.704304    2.777304   -7.645511
     45          8           0       -0.037178    2.959970   -4.108105
     46          7           0        0.245081    0.702298   -4.057780
     47          1           0       -0.019896   -0.152593   -4.533376
     48          6           0        0.314999    0.609587   -2.592653
     49          1           0       -0.337936    1.403598   -2.204680
     50          6           0        1.714801    0.896748   -2.021609
     51          6           0       -0.215866   -0.751078   -2.140367
     52          1           0        0.547198   -1.515828   -2.315422
     53          1           0       -1.087703   -0.996894   -2.748631
     54          8           0        2.304836    0.057420   -1.334776
     55          6           0       -0.627085   -0.763160   -0.665743
     56          1           0        0.251559   -0.865784   -0.024651
     57          1           0       -1.098153    0.194542   -0.399536
     58          6           0       -1.670516   -1.830041   -0.370902
     59          7           0       -1.564656   -2.441780    0.823773
     60          1           0       -0.821292   -2.225452    1.472231
     61          1           0       -2.270750   -3.109703    1.103419
     62          8           0       -2.593272   -2.106427   -1.155537
     63          7           0        2.179839    2.134356   -2.281982
     64          1           0        1.569980    2.777845   -2.784111
     65          6           0        3.382499    2.653352   -1.622606
     66          1           0        4.089246    1.822090   -1.554283
     67          6           0        2.976110    3.100253   -0.200028
     68          6           0        4.005016    3.803915   -2.421091
     69          1           0        3.355660    4.680107   -2.327278
     70          1           0        4.031273    3.508560   -3.475914
     71          8           0        2.731777    4.274214    0.075070
     72          6           0        5.403695    4.126800   -1.939947
     73          6           0        5.621957    4.947830   -0.825345
     74          1           0        4.786994    5.382001   -0.288997
     75          6           0        6.516150    3.562570   -2.573795
     76          1           0        6.375420    2.922672   -3.441756
     77          6           0        6.907583    5.199274   -0.356291
     78          1           0        7.025789    5.820128    0.522450
     79          6           0        7.811324    3.806421   -2.116967
     80          1           0        8.664794    3.361789   -2.625214
     81          8           0        9.265894    4.889826   -0.504428
     82          1           0        9.923374    4.403891   -1.026230
     83          6           0        8.000582    4.625832   -1.004480
     84          7           0        2.846137    2.083893    0.681711
     85          1           0        3.021954    1.138978    0.357581
     86          6           0        2.383120    2.293342    2.053251
     87          1           0        1.783080    3.207868    2.036999
     88          6           0        3.608226    2.513585    2.971054
     89          6           0        1.551170    1.105228    2.517749
     90          1           0        1.178465    1.278987    3.530320
     91          1           0        0.699761    0.953152    1.844041
     92          1           0        2.165102    0.200068    2.550042
     93          8           0        3.990371    1.639454    3.748370
     94          7           0        4.209361    3.709630    2.806903
     95          1           0        3.887909    4.366030    2.099190
     96          6           0        5.448901    4.071564    3.485103
     97          1           0        5.368141    3.788380    4.537297
     98          6           0        5.608660    5.603574    3.366432
     99          6           0        6.624590    3.292609    2.835321
    100          1           0        6.701815    3.605050    1.787585
    101          1           0        6.309201    2.245091    2.834861
    102          8           0        6.105498    6.194242    4.386561
    103          6           0        8.006752    3.364345    3.519788
    104          1           0        8.513706    2.401907    3.382412
    105          1           0        7.889525    3.486587    4.604876
    106          6           0        8.978233    4.433667    2.996221
    107          1           0        9.051488    4.358175    1.906737
    108          1           0        9.979420    4.258036    3.409855
    109          7           0        8.520404    5.764992    3.383643
    110          1           0        7.792982    5.784397    4.116884
    111          7           0        9.273315    7.000324    1.536528
    112          1           0        9.060061    7.780461    0.930443
    113          1           0        9.539797    6.162771    1.026804
    114          7           0        7.775781    7.906888    3.101218
    115          1           0        7.566960    8.644032    2.441856
    116          1           0        6.969769    7.586307    3.686307
    117          6           0        8.510239    6.873714    2.648792
    118          8           0        5.316348    6.125650    2.271778
 ---------------------------------------------------------------------

 SCF Done:  E(RB3LYP) =  -2837.93341405     A.U. after    2 cycles

 Alpha  occ. eigenvalues --  -19.27187 -19.26083 -19.25329 -19.25067 -19.23822
 Alpha  occ. eigenvalues --  -19.22695 -19.20011 -19.16967 -19.13827 -19.11636
 Alpha  occ. eigenvalues --  -19.11245 -14.58131 -14.48693 -14.48305 -14.47403
 Alpha  occ. eigenvalues --  -14.46077 -14.43503 -14.42568 -14.41129 -14.41071
 Alpha  occ. eigenvalues --  -14.39974 -14.37477 -10.42709 -10.41858 -10.41048
 Alpha  occ. eigenvalues --  -10.39205 -10.39131 -10.37899 -10.37298 -10.36828
 Alpha  occ. eigenvalues --  -10.35591 -10.34538 -10.33946 -10.33084 -10.30944
 Alpha  occ. eigenvalues --  -10.30916 -10.30406 -10.29956 -10.29919 -10.29555
 Alpha  occ. eigenvalues --  -10.29186 -10.28979 -10.27889 -10.27862 -10.27661
 Alpha  occ. eigenvalues --  -10.27594 -10.27529 -10.26428 -10.24742 -10.24442
 Alpha  occ. eigenvalues --  -10.24363 -10.24149 -10.23900 -10.23457 -10.23183
 Alpha  occ. eigenvalues --  -10.23001 -10.22847 -10.21334  -1.18895  -1.16828
 Alpha  occ. eigenvalues --   -1.15294  -1.15019  -1.14357  -1.12357  -1.11839
 Alpha  occ. eigenvalues --   -1.11674  -1.08875  -1.07016  -1.05878  -1.05651
 Alpha  occ. eigenvalues --   -1.05018  -1.04490  -1.02900  -1.02129  -1.00056
 Alpha  occ. eigenvalues --   -0.97603  -0.96815  -0.95705  -0.94435  -0.93859
 Alpha  occ. eigenvalues --   -0.92971  -0.90736  -0.90566  -0.90215  -0.88095
 Alpha  occ. eigenvalues --   -0.85611  -0.85289  -0.83196  -0.83173  -0.82471
 Alpha  occ. eigenvalues --   -0.81871  -0.80856  -0.79710  -0.78369  -0.77177
 Alpha  occ. eigenvalues --   -0.76117  -0.74192  -0.73849  -0.73608  -0.73348
 Alpha  occ. eigenvalues --   -0.72247  -0.72029  -0.71673  -0.71024  -0.70293
 Alpha  occ. eigenvalues --   -0.69842  -0.68535  -0.67987  -0.67970  -0.67836
 Alpha  occ. eigenvalues --   -0.67196  -0.66420  -0.65820  -0.64860  -0.64354
 Alpha  occ. eigenvalues --   -0.64229  -0.64017  -0.63728  -0.62624  -0.62409
 Alpha  occ. eigenvalues --   -0.62151  -0.61404  -0.60922  -0.60173  -0.60035
 Alpha  occ. eigenvalues --   -0.59946  -0.59759  -0.59310  -0.58963  -0.58320
 Alpha  occ. eigenvalues --   -0.58255  -0.57332  -0.56534  -0.56148  -0.55538
 Alpha  occ. eigenvalues --   -0.55386  -0.55124  -0.55050  -0.54982  -0.54339
 Alpha  occ. eigenvalues --   -0.54018  -0.53320  -0.52959  -0.52854  -0.52441
 Alpha  occ. eigenvalues --   -0.52392  -0.52193  -0.51659  -0.51522  -0.51478
 Alpha  occ. eigenvalues --   -0.51234  -0.51058  -0.50772  -0.50612  -0.50204
 Alpha  occ. eigenvalues --   -0.49449  -0.49304  -0.49093  -0.48786  -0.48673
 Alpha  occ. eigenvalues --   -0.48379  -0.47894  -0.47839  -0.47795  -0.47428
 Alpha  occ. eigenvalues --   -0.47155  -0.47073  -0.46881  -0.46713  -0.46591
 Alpha  occ. eigenvalues --   -0.46465  -0.46319  -0.46191  -0.45882  -0.45528
 Alpha  occ. eigenvalues --   -0.45410  -0.45123  -0.45000  -0.44504  -0.44375
 Alpha  occ. eigenvalues --   -0.43943  -0.43475  -0.43403  -0.42994  -0.42727
 Alpha  occ. eigenvalues --   -0.42715  -0.42410  -0.42294  -0.41809  -0.41243
 Alpha  occ. eigenvalues --   -0.40986  -0.40316  -0.40259  -0.40173  -0.39862
 Alpha  occ. eigenvalues --   -0.39582  -0.39244  -0.38689  -0.38613  -0.38369
 Alpha  occ. eigenvalues --   -0.38345  -0.38219  -0.37717  -0.37386  -0.37252
 Alpha  occ. eigenvalues --   -0.36537  -0.35616  -0.34659  -0.33603  -0.32909
 Alpha  occ. eigenvalues --   -0.31779  -0.30904  -0.30144  -0.29946  -0.28136
 Alpha  occ. eigenvalues --   -0.27486  -0.27311  -0.27176  -0.25505  -0.25170
 Alpha virt. eigenvalues --   -0.12226  -0.11971  -0.09393  -0.08701  -0.08479
 Alpha virt. eigenvalues --   -0.07171  -0.05414  -0.04214  -0.03707  -0.03431
 Alpha virt. eigenvalues --   -0.03214  -0.03033  -0.02348  -0.02298  -0.01091

 Mulliken charges:
               1
     1  N   -0.752394
     2  H    0.427395
     3  H    0.407832
     4  H    0.421743
     5  C   -0.123959
     6  H    0.218576
     7  C    0.634434
     8  C    0.062550
     9  H    0.207425
    10  O   -0.538266
    11  C   -0.452911
    12  H    0.167897
    13  H    0.141686
    14  H    0.200625
    15  O   -0.660472
    16  H    0.461810
    17  N   -0.631957
    18  H    0.426091
    19  C   -0.083531
    20  H    0.200997
    21  C    0.659781
    22  C   -0.104785
    23  H    0.143969
    24  O   -0.582218
    25  C   -0.261226
    26  H    0.152270
    27  H    0.152506
    28  C   -0.523295
    29  H    0.152931
    30  H    0.182960
    31  H    0.185383
    32  C   -0.463315
    33  H    0.168729
    34  H    0.161521
    35  H    0.145011
    36  N   -0.581570
    37  H    0.357729
    38  C   -0.062683
    39  H    0.187747
    40  C    0.608607
    41  C   -0.469400
    42  H    0.186072
    43  H    0.184138
    44  H    0.173729
    45  O   -0.524716
    46  N   -0.587735
    47  H    0.362913
    48  C   -0.079505
    49  H    0.175854
    50  C    0.650444
    51  C   -0.310816
    52  H    0.186050
    53  H    0.156437
    54  O   -0.549645
    55  C   -0.391459
    56  H    0.202428
    57  H    0.188645
    58  C    0.622047
    59  N   -0.725664
    60  H    0.369666
    61  H    0.358140
    62  O   -0.563947
    63  N   -0.618220
    64  H    0.377140
    65  C   -0.048819
    66  H    0.179289
    67  C    0.629657
    68  C   -0.372460
    69  H    0.180647
    70  H    0.145577
    71  O   -0.535116
    72  C    0.145560
    73  C   -0.203664
    74  H    0.203355
    75  C   -0.188601
    76  H    0.125880
    77  C   -0.184306
    78  H    0.166601
    79  C   -0.189053
    80  H    0.124559
    81  O   -0.681886
    82  H    0.419382
    83  C    0.353446
    84  N   -0.603540
    85  H    0.361499
    86  C   -0.058406
    87  H    0.179551
    88  C    0.629976
    89  C   -0.460856
    90  H    0.174444
    91  H    0.114639
    92  H    0.167101
    93  O   -0.544565
    94  N   -0.626103
    95  H    0.370817
    96  C   -0.002122
    97  H    0.162775
    98  C    0.571441
    99  C   -0.288968
   100  H    0.150658
   101  H    0.167386
   102  O   -0.635106
   103  C   -0.305286
   104  H    0.149010
   105  H    0.165870
   106  C   -0.150419
   107  H    0.166178
   108  H    0.162675
   109  N   -0.590725
   110  H    0.393111
   111  N   -0.763394
   112  H    0.347064
   113  H    0.398452
   114  N   -0.745944
   115  H    0.334884
   116  H    0.399777
   117  C    0.722974
   118  O   -0.573117
 Sum of Mulliken charges =   1.00000

 Dipole moment (field-independent basis, Debye):
    X=             -9.4487    Y=            -10.3215    Z=            -22.1845  Tot=             26.2291
 Quadrupole moment (field-independent basis, Debye-Ang):
   XX=           -157.6834   YY=           -261.6658   ZZ=           -268.4769
   XY=             96.8290   XZ=             34.2799   YZ=             11.2906

 Normal termination of Gaussian 16 at Sun Jul 17 00:11:35 2022.
