 Gaussian 16, Revision C.01,
 Gaussian 16:  ES64L-G16RevC.01  3-Jul-2019

 ----------------------------------------------------------------------
 # B3LYP/6-31G* empiricaldispersion=gd3bj guess=read geom=check nosymm
 integral(ultrafinegrid)
 ----------------------------------------------------------------------

 ------------------------------------------------------
 Candidate Structure: Conf:961 Charge calc in gas phase
 ------------------------------------------------------
 Structure from the checkpoint file:  "conf-961.chk"
 Charge =  1 Multiplicity = 1

                          Input orientation:
 ---------------------------------------------------------------------
 Center     Atomic      Atomic             Coordinates (Angstroms)
 Number     Number       Type             X           Y           Z
 ---------------------------------------------------------------------
      1          7           0        0.197560   -4.285956   -3.526820
      2          1           0        0.260799   -4.981377   -4.271129
      3          1           0        1.095826   -4.121935   -3.036016
      4          1           0       -0.112162   -3.377099   -3.968898
      5          6           0       -0.765402   -4.701422   -2.450857
      6          1           0       -0.660961   -5.784907   -2.336983
      7          6           0       -2.155475   -4.379475   -3.027065
      8          6           0       -0.344609   -3.994258   -1.127042
      9          1           0       -0.915014   -3.067379   -1.023327
     10          8           0       -2.284344   -4.439973   -4.246845
     11          6           0       -0.595767   -4.917764    0.059398
     12          1           0       -1.638060   -5.246543    0.109647
     13          1           0        0.053443   -5.796252   -0.019885
     14          1           0       -0.363903   -4.400861    0.992715
     15          8           0        1.040083   -3.675091   -1.222326
     16          1           0        1.127780   -2.724878   -0.984060
     17          7           0       -3.142903   -4.004683   -2.176092
     18          1           0       -2.942220   -3.844283   -1.189751
     19          6           0       -4.242772   -3.205236   -2.732625
     20          1           0       -4.121488   -3.292830   -3.813538
     21          6           0       -3.847374   -1.749520   -2.437653
     22          6           0       -5.644979   -3.754916   -2.405361
     23          1           0       -5.609889   -4.769977   -2.822678
     24          8           0       -2.811387   -1.298274   -2.962232
     25          6           0       -6.759873   -2.995639   -3.154107
     26          1           0       -6.867608   -1.984921   -2.737365
     27          1           0       -7.704215   -3.509524   -2.936976
     28          6           0       -5.990127   -3.907930   -0.916591
     29          1           0       -6.347603   -2.963805   -0.481248
     30          1           0       -5.141033   -4.262776   -0.327009
     31          1           0       -6.812940   -4.619757   -0.800300
     32          6           0       -6.573563   -2.902200   -4.671476
     33          1           0       -7.470121   -2.488219   -5.142780
     34          1           0       -6.392002   -3.889893   -5.110992
     35          1           0       -5.734968   -2.253660   -4.948240
     36          7           0       -4.569991   -1.000541   -1.595101
     37          1           0       -5.344073   -1.420636   -1.102491
     38          6           0       -4.233913    0.391816   -1.270318
     39          1           0       -3.735637    0.794696   -2.156774
     40          6           0       -3.242072    0.467890   -0.082000
     41          6           0       -5.507146    1.170237   -0.967863
     42          1           0       -5.267310    2.211480   -0.744812
     43          1           0       -6.011634    0.760705   -0.087348
     44          1           0       -6.184040    1.134611   -1.826255
     45          8           0       -3.554213    1.010528    0.973546
     46          7           0       -2.026993   -0.105076   -0.294560
     47          1           0       -1.824922   -0.532963   -1.193504
     48          6           0       -0.993758   -0.081929    0.740654
     49          1           0       -1.155313    0.834344    1.314935
     50          6           0        0.379749   -0.072977    0.063104
     51          6           0       -1.031978   -1.291835    1.693146
     52          1           0       -0.278651   -1.119496    2.470666
     53          1           0       -0.727879   -2.183927    1.143881
     54          8           0        0.753667   -1.060349   -0.584430
     55          6           0       -2.385002   -1.541537    2.353942
     56          1           0       -2.241574   -2.214000    3.210884
     57          1           0       -2.811963   -0.612331    2.739981
     58          6           0       -3.386512   -2.247087    1.452812
     59          7           0       -4.687043   -1.967382    1.713639
     60          1           0       -4.945747   -1.293759    2.419584
     61          1           0       -5.408825   -2.549544    1.314348
     62          8           0       -3.054054   -3.059002    0.582854
     63          7           0        1.118614    1.030367    0.240051
     64          1           0        0.817900    1.771989    0.870081
     65          6           0        2.491370    1.194872   -0.206376
     66          1           0        2.972056    0.212284   -0.218176
     67          6           0        3.153838    2.129951    0.821415
     68          6           0        2.585826    1.822493   -1.630932
     69          1           0        3.644997    1.883165   -1.904089
     70          1           0        2.200396    2.846698   -1.578699
     71          8           0        2.455583    2.835283    1.555055
     72          6           0        1.803332    0.998325   -2.613920
     73          6           0        2.350306   -0.160980   -3.173225
     74          1           0        3.408922   -0.372275   -3.044816
     75          6           0        0.449873    1.267881   -2.835167
     76          1           0        0.015557    2.182373   -2.440859
     77          6           0        1.549167   -1.080466   -3.842214
     78          1           0        1.980048   -1.983032   -4.266571
     79          6           0       -0.366477    0.359599   -3.502028
     80          1           0       -1.421849    0.558790   -3.642278
     81          8           0       -0.613634   -1.839093   -4.494155
     82          1           0       -1.543310   -1.706614   -4.190694
     83          6           0        0.177245   -0.846013   -3.946815
     84          7           0        4.492580    2.131292    0.805229
     85          1           0        5.036575    1.584844    0.138351
     86          6           0        5.317353    3.033499    1.591544
     87          1           0        4.917996    4.050944    1.498478
     88          6           0        6.715367    2.964967    0.941266
     89          6           0        5.348763    2.639122    3.074949
     90          1           0        5.959767    3.339013    3.652747
     91          1           0        4.332182    2.651347    3.475276
     92          1           0        5.769837    1.635622    3.191870
     93          8           0        6.943892    2.152369    0.036128
     94          7           0        7.623152    3.809731    1.442441
     95          1           0        7.405025    4.489068    2.167480
     96          6           0        9.023667    3.854634    1.038383
     97          1           0        9.394060    2.837031    0.894801
     98          6           0        9.778235    4.561638    2.186170
     99          6           0        9.146832    4.662990   -0.273898
    100          1           0        8.801103    5.681888   -0.056844
    101          1           0        8.433739    4.228885   -0.982890
    102          8           0       10.988818    4.198386    2.357503
    103          6           0       10.516284    4.702063   -0.971333
    104          1           0       10.374986    5.192728   -1.945157
    105          1           0       10.848335    3.681162   -1.196365
    106          6           0       11.675766    5.389589   -0.233960
    107          1           0       12.527232    5.505164   -0.915656
    108          1           0       11.979197    4.782951    0.613978
    109          7           0       11.293458    6.719689    0.265083
    110          1           0       10.767376    7.299970   -0.374249
    111          7           0       12.080771    6.527752    2.453048
    112          1           0       12.256900    7.026672    3.315488
    113          1           0       11.738791    5.501825    2.560219
    114          7           0       11.321675    8.577031    1.650644
    115          1           0       11.030871    8.875729    2.571461
    116          1           0       10.937976    9.118497    0.889041
    117          6           0       11.549266    7.244094    1.471758
    118          8           0        9.168513    5.477726    2.772307
 ---------------------------------------------------------------------

 SCF Done:  E(RB3LYP) =  -2837.95344290     A.U. after    2 cycles

 Alpha  occ. eigenvalues --  -19.26476 -19.24245 -19.23394 -19.22537 -19.22176
 Alpha  occ. eigenvalues --  -19.21392 -19.20529 -19.18730 -19.16880 -19.13338
 Alpha  occ. eigenvalues --  -19.12733 -14.53621 -14.47758 -14.46251 -14.45915
 Alpha  occ. eigenvalues --  -14.45391 -14.45280 -14.44988 -14.44834 -14.42263
 Alpha  occ. eigenvalues --  -14.41298 -14.40219 -10.40478 -10.40228 -10.40119
 Alpha  occ. eigenvalues --  -10.39489 -10.38328 -10.37716 -10.36103 -10.35802
 Alpha  occ. eigenvalues --  -10.34651 -10.33828 -10.33200 -10.33003 -10.32797
 Alpha  occ. eigenvalues --  -10.32294 -10.31484 -10.30811 -10.29255 -10.29060
 Alpha  occ. eigenvalues --  -10.28472 -10.28243 -10.27803 -10.27523 -10.27205
 Alpha  occ. eigenvalues --  -10.27112 -10.26868 -10.26757 -10.26696 -10.26650
 Alpha  occ. eigenvalues --  -10.26558 -10.26493 -10.26300 -10.25994 -10.25384
 Alpha  occ. eigenvalues --  -10.24834 -10.23647 -10.23503  -1.15788  -1.14803
 Alpha  occ. eigenvalues --   -1.13946  -1.13618  -1.13326  -1.12422  -1.12218
 Alpha  occ. eigenvalues --   -1.10665  -1.09222  -1.08627  -1.07942  -1.06499
 Alpha  occ. eigenvalues --   -1.03807  -1.03037  -1.01601  -1.01046  -1.00731
 Alpha  occ. eigenvalues --   -0.99101  -0.99036  -0.98314  -0.96560  -0.96120
 Alpha  occ. eigenvalues --   -0.93234  -0.91231  -0.89127  -0.88395  -0.87043
 Alpha  occ. eigenvalues --   -0.86663  -0.85179  -0.83351  -0.82644  -0.82537
 Alpha  occ. eigenvalues --   -0.82455  -0.81445  -0.80025  -0.79711  -0.78688
 Alpha  occ. eigenvalues --   -0.75011  -0.74471  -0.73500  -0.72988  -0.72367
 Alpha  occ. eigenvalues --   -0.71739  -0.71167  -0.70680  -0.70316  -0.69927
 Alpha  occ. eigenvalues --   -0.69420  -0.68934  -0.68139  -0.67671  -0.67205
 Alpha  occ. eigenvalues --   -0.67027  -0.66869  -0.66772  -0.66480  -0.65547
 Alpha  occ. eigenvalues --   -0.64380  -0.64238  -0.63355  -0.63032  -0.62673
 Alpha  occ. eigenvalues --   -0.62310  -0.61987  -0.61528  -0.60631  -0.59758
 Alpha  occ. eigenvalues --   -0.59230  -0.58968  -0.58633  -0.57821  -0.57676
 Alpha  occ. eigenvalues --   -0.57071  -0.56719  -0.56491  -0.56334  -0.55796
 Alpha  occ. eigenvalues --   -0.55295  -0.55151  -0.54296  -0.54176  -0.54062
 Alpha  occ. eigenvalues --   -0.53656  -0.53299  -0.52926  -0.52804  -0.52512
 Alpha  occ. eigenvalues --   -0.52268  -0.52128  -0.52043  -0.51742  -0.51354
 Alpha  occ. eigenvalues --   -0.51016  -0.50714  -0.50598  -0.50458  -0.50295
 Alpha  occ. eigenvalues --   -0.50115  -0.49938  -0.49692  -0.49489  -0.48781
 Alpha  occ. eigenvalues --   -0.48749  -0.48653  -0.48243  -0.48059  -0.47961
 Alpha  occ. eigenvalues --   -0.47864  -0.47606  -0.47336  -0.47137  -0.47117
 Alpha  occ. eigenvalues --   -0.46908  -0.46808  -0.46307  -0.45790  -0.45700
 Alpha  occ. eigenvalues --   -0.45482  -0.45179  -0.45152  -0.44811  -0.44536
 Alpha  occ. eigenvalues --   -0.44424  -0.43850  -0.43605  -0.43556  -0.43029
 Alpha  occ. eigenvalues --   -0.42751  -0.42638  -0.42362  -0.42130  -0.41823
 Alpha  occ. eigenvalues --   -0.41786  -0.41533  -0.41436  -0.41414  -0.40571
 Alpha  occ. eigenvalues --   -0.40340  -0.39255  -0.38692  -0.38350  -0.38227
 Alpha  occ. eigenvalues --   -0.37926  -0.37530  -0.36489  -0.35852  -0.35783
 Alpha  occ. eigenvalues --   -0.35776  -0.35295  -0.34985  -0.33837  -0.33602
 Alpha  occ. eigenvalues --   -0.33442  -0.32914  -0.32578  -0.32269  -0.31118
 Alpha  occ. eigenvalues --   -0.30578  -0.29740  -0.28752  -0.27577  -0.26905
 Alpha virt. eigenvalues --   -0.11557  -0.08430  -0.08233  -0.07932  -0.07513
 Alpha virt. eigenvalues --   -0.07324  -0.06055  -0.05487  -0.04148  -0.04007
 Alpha virt. eigenvalues --   -0.03656  -0.02563  -0.02410  -0.01077  -0.00780

 Mulliken charges:
               1
     1  N   -0.780122
     2  H    0.402849
     3  H    0.415890
     4  H    0.461948
     5  C   -0.127293
     6  H    0.212948
     7  C    0.620422
     8  C    0.120446
     9  H    0.166786
    10  O   -0.517081
    11  C   -0.458322
    12  H    0.160910
    13  H    0.161895
    14  H    0.176782
    15  O   -0.689550
    16  H    0.466534
    17  N   -0.650671
    18  H    0.422015
    19  C   -0.089420
    20  H    0.224695
    21  C    0.632286
    22  C   -0.099135
    23  H    0.163078
    24  O   -0.582856
    25  C   -0.265129
    26  H    0.126337
    27  H    0.157307
    28  C   -0.493444
    29  H    0.118053
    30  H    0.177170
    31  H    0.177842
    32  C   -0.461375
    33  H    0.167304
    34  H    0.163010
    35  H    0.150840
    36  N   -0.584386
    37  H    0.354968
    38  C   -0.075273
    39  H    0.196978
    40  C    0.627756
    41  C   -0.458125
    42  H    0.191685
    43  H    0.159898
    44  H    0.164230
    45  O   -0.529527
    46  N   -0.645336
    47  H    0.386111
    48  C   -0.019409
    49  H    0.183036
    50  C    0.634816
    51  C   -0.288773
    52  H    0.161288
    53  H    0.184235
    54  O   -0.582253
    55  C   -0.378080
    56  H    0.191473
    57  H    0.191667
    58  C    0.621540
    59  N   -0.753266
    60  H    0.365725
    61  H    0.357222
    62  O   -0.561933
    63  N   -0.600364
    64  H    0.366281
    65  C   -0.056306
    66  H    0.179364
    67  C    0.629754
    68  C   -0.365960
    69  H    0.170373
    70  H    0.166412
    71  O   -0.548171
    72  C    0.182065
    73  C   -0.168925
    74  H    0.139336
    75  C   -0.192438
    76  H    0.135819
    77  C   -0.177607
    78  H    0.120274
    79  C   -0.181498
    80  H    0.155231
    81  O   -0.719264
    82  H    0.462268
    83  C    0.347511
    84  N   -0.620757
    85  H    0.359660
    86  C   -0.040003
    87  H    0.177262
    88  C    0.622945
    89  C   -0.451261
    90  H    0.164918
    91  H    0.182618
    92  H    0.160604
    93  O   -0.562357
    94  N   -0.616774
    95  H    0.351352
    96  C   -0.011868
    97  H    0.165519
    98  C    0.583911
    99  C   -0.263677
   100  H    0.125839
   101  H    0.164294
   102  O   -0.622684
   103  C   -0.296367
   104  H    0.135789
   105  H    0.168323
   106  C   -0.155011
   107  H    0.162994
   108  H    0.232117
   109  N   -0.593697
   110  H    0.336192
   111  N   -0.749246
   112  H    0.340778
   113  H    0.430773
   114  N   -0.758702
   115  H    0.366334
   116  H    0.350623
   117  C    0.773509
   118  O   -0.587314
 Sum of Mulliken charges =   1.00000

 Dipole moment (field-independent basis, Debye):
    X=              1.3290    Y=              0.9840    Z=             -5.5774  Tot=              5.8174
 Quadrupole moment (field-independent basis, Debye-Ang):
   XX=           -132.6165   YY=           -168.6150   ZZ=           -319.1713
   XY=            162.8249   XZ=            -10.1507   YZ=             21.1225

 Normal termination of Gaussian 16 at Sun Jul 17 00:10:55 2022.
