 Gaussian 16, Revision C.01,
 Gaussian 16:  ES64L-G16RevC.01  3-Jul-2019

 ----------------------------------------------------------------------
 # B3LYP/6-31G* empiricaldispersion=gd3bj guess=read geom=check nosymm
 integral(ultrafinegrid)
 ----------------------------------------------------------------------

 ------------------------------------------------------
 Candidate Structure: Conf:448 Charge calc in gas phase
 ------------------------------------------------------
 Structure from the checkpoint file:  "conf-448.chk"
 Charge =  1 Multiplicity = 1

                          Input orientation:
 ---------------------------------------------------------------------
 Center     Atomic      Atomic             Coordinates (Angstroms)
 Number     Number       Type             X           Y           Z
 ---------------------------------------------------------------------
      1          7           0        0.885215   -4.011727    1.015347
      2          1           0        1.622562   -3.552306    1.639357
      3          1           0        1.309054   -4.867732    0.612512
      4          1           0       -0.023886   -4.215218    1.454488
      5          6           0        0.668857   -3.087279   -0.128361
      6          1           0        1.282120   -2.204455    0.061504
      7          6           0       -0.820263   -2.721934   -0.160877
      8          6           0        1.145202   -3.792894   -1.453003
      9          1           0        0.284359   -4.303391   -1.897308
     10          8           0       -1.655758   -3.427858    0.403016
     11          6           0        1.717657   -2.771298   -2.429653
     12          1           0        0.977746   -2.014142   -2.707399
     13          1           0        2.584036   -2.275156   -1.978350
     14          1           0        2.042464   -3.275437   -3.343161
     15          8           0        2.069682   -4.817782   -1.143214
     16          1           0        2.885140   -4.387087   -0.774906
     17          7           0       -1.063229   -1.616628   -0.877102
     18          1           0       -0.286782   -1.070821   -1.241883
     19          6           0       -2.335400   -1.106672   -1.364060
     20          1           0       -2.903591   -1.929862   -1.809955
     21          6           0       -1.942770   -0.097919   -2.464377
     22          6           0       -3.175576   -0.501118   -0.196518
     23          1           0       -3.314411   -1.348009    0.487456
     24          8           0       -0.779615    0.313581   -2.569737
     25          6           0       -4.573424   -0.009780   -0.613233
     26          1           0       -4.488353    0.886039   -1.241888
     27          1           0       -5.068994    0.332703    0.302174
     28          6           0       -2.408910    0.605514    0.528510
     29          1           0       -2.178991    1.426442   -0.152342
     30          1           0       -1.468044    0.233732    0.944979
     31          1           0       -3.002199    1.031403    1.342118
     32          6           0       -5.468906   -1.063978   -1.274552
     33          1           0       -6.461369   -0.652153   -1.482541
     34          1           0       -5.596664   -1.933912   -0.620633
     35          1           0       -5.072142   -1.442585   -2.226548
     36          7           0       -2.926354    0.285072   -3.305656
     37          1           0       -3.876300    0.003315   -3.108402
     38          6           0       -2.746280    1.350507   -4.301684
     39          1           0       -1.806883    1.150037   -4.822480
     40          6           0       -2.674223    2.695001   -3.538783
     41          6           0       -3.922311    1.345069   -5.268968
     42          1           0       -3.758489    2.080936   -6.061319
     43          1           0       -4.839442    1.622613   -4.740326
     44          1           0       -4.042971    0.360008   -5.729680
     45          8           0       -3.665599    3.171969   -2.997615
     46          7           0       -1.432092    3.239637   -3.520048
     47          1           0       -0.663320    2.638469   -3.808027
     48          6           0       -0.986696    4.267973   -2.586420
     49          1           0       -1.434837    5.238570   -2.827069
     50          6           0        0.542910    4.288653   -2.718365
     51          6           0       -1.343253    3.830786   -1.140296
     52          1           0       -0.735624    2.946196   -0.924968
     53          1           0       -2.388127    3.517846   -1.159047
     54          8           0        1.127403    3.345181   -3.246592
     55          6           0       -1.193799    4.862103   -0.015538
     56          1           0       -0.181886    5.264092    0.049442
     57          1           0       -1.898491    5.686388   -0.162097
     58          6           0       -1.540339    4.169711    1.302849
     59          7           0       -0.457594    3.847956    2.066847
     60          1           0        0.484879    4.115041    1.802534
     61          1           0       -0.626766    3.402307    2.957259
     62          8           0       -2.687229    3.867294    1.603218
     63          7           0        1.249416    5.310059   -2.130113
     64          1           0        0.744446    5.977601   -1.562322
     65          6           0        2.605384    4.959104   -1.699571
     66          1           0        3.031729    4.401658   -2.531269
     67          6           0        2.465669    4.044459   -0.468202
     68          6           0        3.565984    6.115584   -1.357028
     69          1           0        3.190206    6.694607   -0.508535
     70          1           0        3.663942    6.776999   -2.223488
     71          8           0        2.004361    4.487665    0.590444
     72          6           0        4.860386    5.392789   -1.027215
     73          6           0        5.159534    5.024330    0.289588
     74          1           0        4.634345    5.501961    1.110609
     75          6           0        5.557769    4.764290   -2.069109
     76          1           0        5.362754    5.058636   -3.097372
     77          6           0        6.009913    3.947643    0.554210
     78          1           0        6.167118    3.602955    1.571597
     79          6           0        6.402063    3.687573   -1.818057
     80          1           0        6.874081    3.143674   -2.629492
     81          8           0        7.166551    1.995155   -0.293861
     82          1           0        6.458804    1.338785   -0.509485
     83          6           0        6.555993    3.237857   -0.509085
     84          7           0        2.813931    2.757839   -0.641462
     85          1           0        3.254493    2.464366   -1.503515
     86          6           0        2.660286    1.764894    0.400082
     87          1           0        2.754670    2.285569    1.359927
     88          6           0        3.818745    0.765281    0.289606
     89          6           0        1.270961    1.108829    0.317085
     90          1           0        1.173040    0.245982    0.984689
     91          1           0        0.514160    1.839662    0.610449
     92          1           0        1.061570    0.795587   -0.709071
     93          8           0        4.675918    0.853123   -0.604678
     94          7           0        3.826026   -0.200808    1.228410
     95          1           0        3.030754   -0.313229    1.849497
     96          6           0        4.658783   -1.400062    1.129894
     97          1           0        5.121717   -1.383060    0.142408
     98          6           0        3.683994   -2.600200    1.201998
     99          6           0        5.747658   -1.428001    2.216089
    100          1           0        6.473636   -2.197178    1.924644
    101          1           0        5.311279   -1.745799    3.169997
    102          8           0        3.836968   -3.521394    0.374147
    103          6           0        6.413032   -0.051492    2.366221
    104          1           0        5.739582    0.623512    2.904483
    105          1           0        6.558918    0.406598    1.387068
    106          6           0        7.747068   -0.048531    3.108645
    107          1           0        7.649966   -0.511936    4.094860
    108          1           0        8.104794    0.974342    3.259608
    109          7           0        8.817771   -0.784233    2.413233
    110          1           0        8.937899   -1.761704    2.639114
    111          7           0        9.482654    0.932234    0.983454
    112          1           0       10.224837    1.308495    0.410343
    113          1           0        8.545173    1.295596    0.740180
    114          7           0       10.798070   -0.960759    1.242212
    115          1           0       11.357641   -0.737948    0.432695
    116          1           0       11.111604   -1.718655    1.830411
    117          6           0        9.680624   -0.264145    1.532763
    118          8           0        2.766050   -2.466853    2.074239
 ---------------------------------------------------------------------

 SCF Done:  E(RB3LYP) =  -2837.94079755     A.U. after    1 cycles

 Alpha  occ. eigenvalues --  -19.26315 -19.22269 -19.21776 -19.20466 -19.20437
 Alpha  occ. eigenvalues --  -19.20233 -19.20180 -19.19049 -19.18363 -19.17355
 Alpha  occ. eigenvalues --  -19.15456 -14.52788 -14.52656 -14.51212 -14.49309
 Alpha  occ. eigenvalues --  -14.45470 -14.44601 -14.44274 -14.44161 -14.44018
 Alpha  occ. eigenvalues --  -14.41520 -14.39950 -10.48704 -10.39023 -10.37590
 Alpha  occ. eigenvalues --  -10.37124 -10.37080 -10.36998 -10.36472 -10.35826
 Alpha  occ. eigenvalues --  -10.34424 -10.33405 -10.32876 -10.32740 -10.32630
 Alpha  occ. eigenvalues --  -10.32568 -10.31392 -10.31101 -10.31088 -10.30626
 Alpha  occ. eigenvalues --  -10.30210 -10.29804 -10.28948 -10.27818 -10.27628
 Alpha  occ. eigenvalues --  -10.27486 -10.27336 -10.27255 -10.27245 -10.26469
 Alpha  occ. eigenvalues --  -10.25646 -10.25332 -10.25046 -10.24663 -10.24548
 Alpha  occ. eigenvalues --  -10.23973 -10.23729 -10.22553  -1.17188  -1.14091
 Alpha  occ. eigenvalues --   -1.13178  -1.12815  -1.12738  -1.12165  -1.11879
 Alpha  occ. eigenvalues --   -1.11686  -1.09905  -1.09166  -1.07339  -1.06551
 Alpha  occ. eigenvalues --   -1.05014  -1.04699  -1.03332  -1.01752  -1.01361
 Alpha  occ. eigenvalues --   -1.01267  -1.00589  -1.00419  -0.98547  -0.94759
 Alpha  occ. eigenvalues --   -0.94120  -0.91280  -0.88460  -0.88087  -0.86733
 Alpha  occ. eigenvalues --   -0.85804  -0.85369  -0.84406  -0.83760  -0.83192
 Alpha  occ. eigenvalues --   -0.80910  -0.80770  -0.80186  -0.78459  -0.78433
 Alpha  occ. eigenvalues --   -0.77405  -0.76563  -0.75399  -0.74376  -0.72943
 Alpha  occ. eigenvalues --   -0.71908  -0.71511  -0.70085  -0.70014  -0.69884
 Alpha  occ. eigenvalues --   -0.69656  -0.69028  -0.68532  -0.67878  -0.67334
 Alpha  occ. eigenvalues --   -0.66997  -0.66987  -0.66548  -0.66072  -0.65932
 Alpha  occ. eigenvalues --   -0.64972  -0.64150  -0.63283  -0.63143  -0.63018
 Alpha  occ. eigenvalues --   -0.62760  -0.62510  -0.61700  -0.61248  -0.60395
 Alpha  occ. eigenvalues --   -0.59427  -0.59012  -0.58694  -0.58103  -0.57969
 Alpha  occ. eigenvalues --   -0.57189  -0.57004  -0.56449  -0.56070  -0.55832
 Alpha  occ. eigenvalues --   -0.55699  -0.55445  -0.55228  -0.54739  -0.54274
 Alpha  occ. eigenvalues --   -0.54044  -0.53933  -0.53671  -0.53402  -0.53231
 Alpha  occ. eigenvalues --   -0.52684  -0.52582  -0.51920  -0.51788  -0.51612
 Alpha  occ. eigenvalues --   -0.51215  -0.50971  -0.50843  -0.50534  -0.50317
 Alpha  occ. eigenvalues --   -0.50048  -0.49683  -0.49501  -0.49290  -0.48937
 Alpha  occ. eigenvalues --   -0.48869  -0.48662  -0.48201  -0.47951  -0.47872
 Alpha  occ. eigenvalues --   -0.47349  -0.47151  -0.46745  -0.46455  -0.46314
 Alpha  occ. eigenvalues --   -0.46083  -0.45999  -0.45763  -0.45567  -0.45454
 Alpha  occ. eigenvalues --   -0.45177  -0.45038  -0.44840  -0.44760  -0.44582
 Alpha  occ. eigenvalues --   -0.44318  -0.44077  -0.43776  -0.43603  -0.43537
 Alpha  occ. eigenvalues --   -0.43087  -0.43010  -0.42952  -0.42741  -0.42197
 Alpha  occ. eigenvalues --   -0.41836  -0.41182  -0.41144  -0.40458  -0.40310
 Alpha  occ. eigenvalues --   -0.39771  -0.39591  -0.39144  -0.39120  -0.38424
 Alpha  occ. eigenvalues --   -0.37053  -0.36487  -0.36096  -0.35930  -0.35108
 Alpha  occ. eigenvalues --   -0.34458  -0.34367  -0.34202  -0.34117  -0.34107
 Alpha  occ. eigenvalues --   -0.33671  -0.33577  -0.33145  -0.32537  -0.31727
 Alpha  occ. eigenvalues --   -0.31641  -0.31512  -0.31120  -0.30117  -0.29133
 Alpha virt. eigenvalues --   -0.13121  -0.09203  -0.09084  -0.08782  -0.08093
 Alpha virt. eigenvalues --   -0.06918  -0.06725  -0.05854  -0.05597  -0.05010
 Alpha virt. eigenvalues --   -0.04067  -0.03886  -0.03863  -0.02340  -0.01735

 Mulliken charges:
               1
     1  N   -0.777357
     2  H    0.430785
     3  H    0.399311
     4  H    0.396018
     5  C   -0.125616
     6  H    0.184820
     7  C    0.613475
     8  C    0.138176
     9  H    0.166536
    10  O   -0.529164
    11  C   -0.489233
    12  H    0.164110
    13  H    0.156938
    14  H    0.181583
    15  O   -0.652226
    16  H    0.448956
    17  N   -0.629942
    18  H    0.380915
    19  C   -0.056899
    20  H    0.182340
    21  C    0.627172
    22  C   -0.084745
    23  H    0.167213
    24  O   -0.560050
    25  C   -0.295123
    26  H    0.161936
    27  H    0.163783
    28  C   -0.479717
    29  H    0.162852
    30  H    0.136299
    31  H    0.183355
    32  C   -0.471217
    33  H    0.168617
    34  H    0.165303
    35  H    0.128069
    36  N   -0.605348
    37  H    0.360384
    38  C   -0.046888
    39  H    0.170053
    40  C    0.629494
    41  C   -0.484552
    42  H    0.177230
    43  H    0.185840
    44  H    0.162058
    45  O   -0.526280
    46  N   -0.615546
    47  H    0.374230
    48  C   -0.032746
    49  H    0.177361
    50  C    0.610409
    51  C   -0.323491
    52  H    0.163596
    53  H    0.230819
    54  O   -0.525050
    55  C   -0.378868
    56  H    0.142881
    57  H    0.175648
    58  C    0.580632
    59  N   -0.777581
    60  H    0.385710
    61  H    0.332209
    62  O   -0.508234
    63  N   -0.608326
    64  H    0.344933
    65  C   -0.036280
    66  H    0.186331
    67  C    0.627267
    68  C   -0.363863
    69  H    0.172001
    70  H    0.172088
    71  O   -0.571665
    72  C    0.131817
    73  C   -0.181805
    74  H    0.158665
    75  C   -0.193849
    76  H    0.151164
    77  C   -0.150741
    78  H    0.128279
    79  C   -0.151675
    80  H    0.147650
    81  O   -0.742654
    82  H    0.464715
    83  C    0.325354
    84  N   -0.560015
    85  H    0.364063
    86  C   -0.059887
    87  H    0.188281
    88  C    0.626630
    89  C   -0.501259
    90  H    0.148373
    91  H    0.205925
    92  H    0.194987
    93  O   -0.580287
    94  N   -0.602904
    95  H    0.358194
    96  C   -0.039465
    97  H    0.176544
    98  C    0.605333
    99  C   -0.283600
   100  H    0.139598
   101  H    0.168936
   102  O   -0.591802
   103  C   -0.273515
   104  H    0.171208
   105  H    0.145633
   106  C   -0.178338
   107  H    0.189305
   108  H    0.193363
   109  N   -0.584196
   110  H    0.363572
   111  N   -0.767167
   112  H    0.369136
   113  H    0.439624
   114  N   -0.758667
   115  H    0.381848
   116  H    0.381038
   117  C    0.790878
   118  O   -0.622015
 Sum of Mulliken charges =   1.00000

 Dipole moment (field-independent basis, Debye):
    X=             34.8773    Y=             -0.2082    Z=              2.7334  Tot=             34.9849
 Quadrupole moment (field-independent basis, Debye-Ang):
   XX=              6.5506   YY=           -316.3375   ZZ=           -305.4616
   XY=              7.2288   XZ=             67.9994   YZ=            -18.2989

 Normal termination of Gaussian 16 at Sun Jul 17 00:10:23 2022.
