 Gaussian 16, Revision C.01,
 Gaussian 16:  ES64L-G16RevC.01  3-Jul-2019

 ----------------------------------------------------------------------
 # B3LYP/6-31G* empiricaldispersion=gd3bj guess=read geom=check nosymm
 integral(ultrafinegrid)
 ----------------------------------------------------------------------

 ------------------------------------------------------
 Candidate Structure: Conf:123 Charge calc in gas phase
 ------------------------------------------------------
 Structure from the checkpoint file:  "conf-123.chk"
 Charge =  1 Multiplicity = 1

                          Input orientation:
 ---------------------------------------------------------------------
 Center     Atomic      Atomic             Coordinates (Angstroms)
 Number     Number       Type             X           Y           Z
 ---------------------------------------------------------------------
      1          7           0       -8.741638   -4.706568   -7.017062
      2          1           0       -9.206057   -5.531694   -6.629732
      3          1           0       -8.835772   -4.696227   -8.047660
      4          1           0       -9.136651   -3.851676   -6.550262
      5          6           0       -7.277228   -4.635883   -6.691601
      6          1           0       -6.899654   -5.647084   -6.523497
      7          6           0       -7.213839   -3.736812   -5.438534
      8          6           0       -6.575620   -3.969345   -7.914838
      9          1           0       -6.810265   -2.899289   -7.884578
     10          8           0       -8.191114   -3.010518   -5.211971
     11          6           0       -5.069255   -4.179799   -7.916029
     12          1           0       -4.590225   -3.741512   -7.035731
     13          1           0       -4.823734   -5.249587   -7.938748
     14          1           0       -4.639152   -3.705100   -8.802167
     15          8           0       -7.205816   -4.455865   -9.101483
     16          1           0       -6.689382   -5.196706   -9.460152
     17          7           0       -6.084911   -3.786431   -4.747058
     18          1           0       -5.283171   -4.340485   -5.055330
     19          6           0       -5.707359   -2.844536   -3.695905
     20          1           0       -6.170964   -1.880856   -3.921357
     21          6           0       -4.173827   -2.751614   -3.831665
     22          6           0       -6.191390   -3.337715   -2.303110
     23          1           0       -7.265418   -3.523603   -2.442002
     24          8           0       -3.567300   -3.578548   -4.528681
     25          6           0       -6.055462   -2.284806   -1.186509
     26          1           0       -5.001455   -2.142134   -0.920695
     27          1           0       -6.526282   -2.715093   -0.294266
     28          6           0       -5.509824   -4.651268   -1.905175
     29          1           0       -4.435118   -4.509296   -1.745063
     30          1           0       -5.636012   -5.426210   -2.668690
     31          1           0       -5.935956   -5.030634   -0.971414
     32          6           0       -6.707181   -0.930598   -1.483938
     33          1           0       -6.696645   -0.297748   -0.591940
     34          1           0       -7.749521   -1.050994   -1.802106
     35          1           0       -6.185392   -0.371455   -2.270375
     36          7           0       -3.582516   -1.764967   -3.154610
     37          1           0       -4.101091   -1.148395   -2.532375
     38          6           0       -2.141072   -1.646478   -2.995825
     39          1           0       -1.717637   -2.653109   -2.912861
     40          6           0       -1.946149   -0.886811   -1.670334
     41          6           0       -1.485707   -0.914084   -4.175417
     42          1           0       -0.403986   -0.829820   -4.032018
     43          1           0       -1.900558    0.093813   -4.275603
     44          1           0       -1.671855   -1.470691   -5.097594
     45          8           0       -2.903650   -0.330251   -1.121619
     46          7           0       -0.692099   -0.891068   -1.195661
     47          1           0        0.078691   -1.240008   -1.763082
     48          6           0       -0.229550   -0.059313   -0.095486
     49          1           0       -0.884077    0.816519   -0.025383
     50          6           0        1.199012    0.370511   -0.484252
     51          6           0       -0.216396   -0.817699    1.244836
     52          1           0        0.275330   -0.193360    2.000306
     53          1           0        0.389824   -1.722726    1.139156
     54          8           0        1.794373   -0.193038   -1.407915
     55          6           0       -1.610554   -1.215191    1.734561
     56          1           0       -2.205353   -0.328509    1.982680
     57          1           0       -2.151498   -1.734442    0.936316
     58          6           0       -1.510705   -2.184983    2.909329
     59          7           0       -2.403573   -1.974777    3.922595
     60          1           0       -2.937129   -1.121823    3.993563
     61          1           0       -2.320048   -2.552999    4.747833
     62          8           0       -0.716201   -3.114322    2.916159
     63          7           0        1.729153    1.347746    0.265570
     64          1           0        1.219001    1.803392    1.018107
     65          6           0        3.092283    1.823415    0.118616
     66          1           0        3.753312    0.965545   -0.037310
     67          6           0        3.424800    2.535707    1.437293
     68          6           0        3.223474    2.785195   -1.095090
     69          1           0        2.518201    3.610215   -0.947438
     70          1           0        2.898808    2.220547   -1.975386
     71          8           0        2.515866    3.010204    2.127913
     72          6           0        4.625156    3.311801   -1.270520
     73          6           0        4.956010    4.624949   -0.913853
     74          1           0        4.174387    5.293076   -0.560991
     75          6           0        5.652752    2.470280   -1.712138
     76          1           0        5.422470    1.448155   -2.004103
     77          6           0        6.265795    5.087903   -0.983488
     78          1           0        6.519817    6.103761   -0.699863
     79          6           0        6.970862    2.915410   -1.777234
     80          1           0        7.759227    2.243893   -2.110043
     81          8           0        8.559407    4.714185   -1.434011
     82          1           0        9.169845    3.977121   -1.590851
     83          6           0        7.280039    4.224437   -1.402307
     84          7           0        4.727313    2.610042    1.745748
     85          1           0        5.450126    2.296691    1.100837
     86          6           0        5.236525    3.420727    2.838137
     87          1           0        4.686525    4.369132    2.857378
     88          6           0        6.715874    3.685964    2.507784
     89          6           0        5.076919    2.721466    4.195921
     90          1           0        5.454361    3.353837    5.005624
     91          1           0        4.018664    2.515151    4.374031
     92          1           0        5.632711    1.778593    4.202568
     93          8           0        7.299084    3.022293    1.643492
     94          7           0        7.296456    4.651551    3.234032
     95          1           0        6.796251    5.199695    3.929880
     96          6           0        8.693087    5.042925    3.106324
     97          1           0        9.315819    4.146496    3.040946
     98          6           0        9.032754    5.843332    4.386746
     99          6           0        8.858663    5.881775    1.808961
    100          1           0        8.339531    6.838726    1.956410
    101          1           0        8.310808    5.337530    1.038473
    102          8           0       10.268823    5.869432    4.727276
    103          6           0       10.287023    6.115613    1.271925
    104          1           0       10.264715    6.008738    0.182038
    105          1           0       10.968620    5.339795    1.644432
    106          6           0       10.894199    7.493474    1.568256
    107          1           0       10.210929    8.277861    1.220291
    108          1           0       11.842580    7.608250    1.028088
    109          7           0       11.118612    7.640116    3.005879
    110          1           0       11.057075    6.754464    3.555023
    111          7           0       10.601163    9.912741    3.172732
    112          1           0       10.485060   10.716260    3.772758
    113          1           0       11.051283   10.096127    2.288016
    114          7           0       10.620523    8.520721    5.061867
    115          1           0       10.219518    9.264415    5.614611
    116          1           0       10.422701    7.531784    5.339191
    117          6           0       10.778711    8.693292    3.744294
    118          8           0        8.101188    6.449908    4.941386
 ---------------------------------------------------------------------

 SCF Done:  E(RB3LYP) =  -2837.90039403     A.U. after    1 cycles

 Alpha  occ. eigenvalues --  -19.30454 -19.26072 -19.22072 -19.21635 -19.19425
 Alpha  occ. eigenvalues --  -19.17579 -19.15800 -19.15378 -19.14465 -19.12069
 Alpha  occ. eigenvalues --  -19.11452 -14.59283 -14.48807 -14.44833 -14.44613
 Alpha  occ. eigenvalues --  -14.42755 -14.41352 -14.41311 -14.41266 -14.40298
 Alpha  occ. eigenvalues --  -14.39315 -14.37957 -10.43066 -10.40212 -10.39651
 Alpha  occ. eigenvalues --  -10.39049 -10.38498 -10.36325 -10.34564 -10.33595
 Alpha  occ. eigenvalues --  -10.33305 -10.32763 -10.31475 -10.31416 -10.31074
 Alpha  occ. eigenvalues --  -10.29569 -10.29489 -10.28763 -10.28603 -10.28255
 Alpha  occ. eigenvalues --  -10.28091 -10.26620 -10.26127 -10.25790 -10.25732
 Alpha  occ. eigenvalues --  -10.25119 -10.24596 -10.24438 -10.24412 -10.23615
 Alpha  occ. eigenvalues --  -10.23215 -10.23090 -10.23028 -10.22925 -10.22908
 Alpha  occ. eigenvalues --  -10.22412 -10.21609 -10.21184  -1.19137  -1.17522
 Alpha  occ. eigenvalues --   -1.13663  -1.13001  -1.11269  -1.09940  -1.09468
 Alpha  occ. eigenvalues --   -1.08039  -1.07691  -1.07342  -1.06267  -1.05694
 Alpha  occ. eigenvalues --   -1.05009  -1.01690  -0.99657  -0.98012  -0.97757
 Alpha  occ. eigenvalues --   -0.96341  -0.96140  -0.95683  -0.94811  -0.94435
 Alpha  occ. eigenvalues --   -0.93311  -0.90323  -0.89474  -0.86693  -0.85590
 Alpha  occ. eigenvalues --   -0.84509  -0.83607  -0.83199  -0.82242  -0.80529
 Alpha  occ. eigenvalues --   -0.80054  -0.78949  -0.78744  -0.77479  -0.77206
 Alpha  occ. eigenvalues --   -0.76118  -0.74038  -0.73951  -0.72707  -0.72043
 Alpha  occ. eigenvalues --   -0.71610  -0.70862  -0.70433  -0.69592  -0.69480
 Alpha  occ. eigenvalues --   -0.68631  -0.66866  -0.66497  -0.66211  -0.65731
 Alpha  occ. eigenvalues --   -0.65291  -0.65009  -0.64480  -0.64041  -0.63894
 Alpha  occ. eigenvalues --   -0.63076  -0.62479  -0.62416  -0.61667  -0.61232
 Alpha  occ. eigenvalues --   -0.60999  -0.60261  -0.59269  -0.58957  -0.58354
 Alpha  occ. eigenvalues --   -0.58289  -0.58228  -0.57496  -0.57216  -0.56509
 Alpha  occ. eigenvalues --   -0.56309  -0.55671  -0.55081  -0.54708  -0.54384
 Alpha  occ. eigenvalues --   -0.53946  -0.53899  -0.53176  -0.53042  -0.52654
 Alpha  occ. eigenvalues --   -0.51848  -0.51747  -0.51630  -0.51367  -0.51205
 Alpha  occ. eigenvalues --   -0.50906  -0.50807  -0.50734  -0.50604  -0.50404
 Alpha  occ. eigenvalues --   -0.50179  -0.49898  -0.49394  -0.48690  -0.48616
 Alpha  occ. eigenvalues --   -0.48035  -0.47947  -0.47721  -0.47666  -0.47615
 Alpha  occ. eigenvalues --   -0.47485  -0.47379  -0.47148  -0.46371  -0.46132
 Alpha  occ. eigenvalues --   -0.46051  -0.45849  -0.45134  -0.45014  -0.44746
 Alpha  occ. eigenvalues --   -0.44716  -0.44702  -0.44283  -0.44243  -0.43930
 Alpha  occ. eigenvalues --   -0.43797  -0.43737  -0.43414  -0.43133  -0.42856
 Alpha  occ. eigenvalues --   -0.42246  -0.42180  -0.41947  -0.41794  -0.41475
 Alpha  occ. eigenvalues --   -0.41032  -0.40956  -0.40714  -0.40415  -0.40105
 Alpha  occ. eigenvalues --   -0.40002  -0.39555  -0.39461  -0.39350  -0.39079
 Alpha  occ. eigenvalues --   -0.38066  -0.38005  -0.37760  -0.37590  -0.36735
 Alpha  occ. eigenvalues --   -0.36589  -0.35759  -0.35066  -0.34936  -0.33546
 Alpha  occ. eigenvalues --   -0.32801  -0.31802  -0.31685  -0.31276  -0.31116
 Alpha  occ. eigenvalues --   -0.29994  -0.29535  -0.29191  -0.29006  -0.28555
 Alpha  occ. eigenvalues --   -0.28505  -0.27413  -0.26200  -0.25649  -0.25469
 Alpha virt. eigenvalues --   -0.12035  -0.10111  -0.07353  -0.05384  -0.05095
 Alpha virt. eigenvalues --   -0.04460  -0.04432  -0.03972  -0.03799  -0.02623
 Alpha virt. eigenvalues --   -0.02536  -0.01796  -0.01314  -0.01174  -0.00715

 Mulliken charges:
               1
     1  N   -0.746691
     2  H    0.414309
     3  H    0.426135
     4  H    0.426427
     5  C   -0.141135
     6  H    0.202953
     7  C    0.646034
     8  C    0.128623
     9  H    0.192993
    10  O   -0.538222
    11  C   -0.514135
    12  H    0.208296
    13  H    0.164357
    14  H    0.205564
    15  O   -0.629690
    16  H    0.424055
    17  N   -0.600095
    18  H    0.374241
    19  C   -0.085960
    20  H    0.195140
    21  C    0.631632
    22  C   -0.073867
    23  H    0.149353
    24  O   -0.564447
    25  C   -0.286034
    26  H    0.161962
    27  H    0.155381
    28  C   -0.463858
    29  H    0.167072
    30  H    0.136618
    31  H    0.168236
    32  C   -0.462759
    33  H    0.173229
    34  H    0.155319
    35  H    0.142019
    36  N   -0.621458
    37  H    0.385346
    38  C   -0.054473
    39  H    0.190074
    40  C    0.622292
    41  C   -0.452259
    42  H    0.176298
    43  H    0.165022
    44  H    0.175700
    45  O   -0.554101
    46  N   -0.601522
    47  H    0.363038
    48  C   -0.074182
    49  H    0.177821
    50  C    0.630529
    51  C   -0.264168
    52  H    0.157456
    53  H    0.187641
    54  O   -0.553991
    55  C   -0.353925
    56  H    0.139852
    57  H    0.182558
    58  C    0.592042
    59  N   -0.746328
    60  H    0.335976
    61  H    0.345030
    62  O   -0.504116
    63  N   -0.619170
    64  H    0.356948
    65  C   -0.036711
    66  H    0.177354
    67  C    0.615940
    68  C   -0.352337
    69  H    0.152265
    70  H    0.176017
    71  O   -0.561399
    72  C    0.151017
    73  C   -0.186976
    74  H    0.132540
    75  C   -0.209999
    76  H    0.138915
    77  C   -0.160935
    78  H    0.139394
    79  C   -0.170283
    80  H    0.126949
    81  O   -0.652662
    82  H    0.413480
    83  C    0.378819
    84  N   -0.612158
    85  H    0.370485
    86  C   -0.037679
    87  H    0.168985
    88  C    0.627264
    89  C   -0.447384
    90  H    0.159639
    91  H    0.178373
    92  H    0.160134
    93  O   -0.563216
    94  N   -0.619135
    95  H    0.351542
    96  C   -0.022429
    97  H    0.162795
    98  C    0.585585
    99  C   -0.292505
   100  H    0.132867
   101  H    0.197653
   102  O   -0.647782
   103  C   -0.307605
   104  H    0.164144
   105  H    0.162941
   106  C   -0.149996
   107  H    0.155904
   108  H    0.160332
   109  N   -0.600946
   110  H    0.405164
   111  N   -0.753247
   112  H    0.358828
   113  H    0.365001
   114  N   -0.756191
   115  H    0.343662
   116  H    0.412810
   117  C    0.751978
   118  O   -0.564186
 Sum of Mulliken charges =   1.00000

 Dipole moment (field-independent basis, Debye):
    X=            -19.8090    Y=             -5.0822    Z=            -25.8784  Tot=             32.9836
 Quadrupole moment (field-independent basis, Debye-Ang):
   XX=             27.0465   YY=           -103.2689   ZZ=           -148.4518
   XY=            295.3811   XZ=            184.9984   YZ=            162.0699

 Normal termination of Gaussian 16 at Sun Jul 17 00:10:12 2022.
