 Gaussian 16, Revision C.01,
 Gaussian 16:  ES64L-G16RevC.01  3-Jul-2019

 ----------------------------------------------------------------------
 # B3LYP/6-31G* empiricaldispersion=gd3bj guess=read geom=check nosymm
 integral(ultrafinegrid)
 ----------------------------------------------------------------------

 ------------------------------------------------------
 Candidate Structure: Conf:876 Charge calc in gas phase
 ------------------------------------------------------
 Structure from the checkpoint file:  "conf-876.chk"
 Charge =  1 Multiplicity = 1

                          Input orientation:
 ---------------------------------------------------------------------
 Center     Atomic      Atomic             Coordinates (Angstroms)
 Number     Number       Type             X           Y           Z
 ---------------------------------------------------------------------
      1          7           0       -7.435929   -6.146982   -4.070843
      2          1           0       -7.948136   -5.288414   -4.426241
      3          1           0       -8.055874   -6.788936   -3.574628
      4          1           0       -6.989274   -6.611705   -4.878356
      5          6           0       -6.338842   -5.546204   -3.234859
      6          1           0       -6.583058   -5.680197   -2.178552
      7          6           0       -6.414275   -4.036117   -3.600699
      8          6           0       -5.009577   -6.240608   -3.588348
      9          1           0       -4.189192   -5.591195   -3.255756
     10          8           0       -7.358480   -3.665688   -4.308971
     11          6           0       -4.864416   -7.617964   -2.948026
     12          1           0       -4.858231   -7.545170   -1.855543
     13          1           0       -5.675098   -8.290721   -3.250323
     14          1           0       -3.918856   -8.078669   -3.252348
     15          8           0       -5.041509   -6.303206   -5.013132
     16          1           0       -4.259985   -6.776496   -5.339749
     17          7           0       -5.472946   -3.258768   -3.082570
     18          1           0       -4.684684   -3.640364   -2.568130
     19          6           0       -5.334866   -1.825138   -3.347580
     20          1           0       -5.884625   -1.602439   -4.266333
     21          6           0       -3.823005   -1.627052   -3.527361
     22          6           0       -5.887159   -0.958020   -2.177892
     23          1           0       -5.267587   -1.182319   -1.299009
     24          8           0       -3.035433   -2.326958   -2.873884
     25          6           0       -7.338601   -1.353196   -1.847204
     26          1           0       -7.380997   -2.433694   -1.665091
     27          1           0       -7.976503   -1.160704   -2.720149
     28          6           0       -5.760005    0.533935   -2.514065
     29          1           0       -6.337849    0.777839   -3.416489
     30          1           0       -4.725189    0.854421   -2.658446
     31          1           0       -6.164948    1.138803   -1.699647
     32          6           0       -7.900479   -0.639169   -0.614126
     33          1           0       -8.884576   -1.042255   -0.354076
     34          1           0       -8.022508    0.435059   -0.779165
     35          1           0       -7.242911   -0.773956    0.252747
     36          7           0       -3.423220   -0.692099   -4.406489
     37          1           0       -4.122530   -0.060501   -4.776762
     38          6           0       -2.031008   -0.228065   -4.453392
     39          1           0       -1.398320   -1.117476   -4.511633
     40          6           0       -1.755567    0.552925   -3.153753
     41          6           0       -1.828654    0.669233   -5.671238
     42          1           0       -0.782403    0.980488   -5.736839
     43          1           0       -2.442478    1.571047   -5.577663
     44          1           0       -2.091828    0.141843   -6.593027
     45          8           0       -2.507305    1.465045   -2.811447
     46          7           0       -0.692567    0.138828   -2.440115
     47          1           0       -0.056758   -0.571305   -2.787546
     48          6           0       -0.319778    0.698190   -1.152946
     49          1           0       -0.680138    1.729994   -1.110317
     50          6           0        1.210066    0.627536   -1.074707
     51          6           0       -0.920597   -0.135415    0.001412
     52          1           0       -0.542845    0.231287    0.962044
     53          1           0       -0.545391   -1.160077   -0.115035
     54          8           0        1.830013   -0.214454   -1.727946
     55          6           0       -2.460205   -0.139329    0.020894
     56          1           0       -2.836960    0.799762    0.434021
     57          1           0       -2.847050   -0.237737   -0.993420
     58          6           0       -2.952957   -1.288888    0.886608
     59          7           0       -3.292444   -2.420986    0.174197
     60          1           0       -3.009736   -2.507325   -0.796708
     61          1           0       -3.379154   -3.268581    0.720421
     62          8           0       -3.020910   -1.232251    2.102708
     63          7           0        1.795100    1.494279   -0.225601
     64          1           0        1.254261    2.123525    0.357369
     65          6           0        3.215026    1.434611    0.061179
     66          1           0        3.498907    0.384493    0.186673
     67          6           0        3.449950    2.195607    1.364284
     68          6           0        4.080575    2.031667   -1.092952
     69          1           0        4.070075    3.123275   -1.022030
     70          1           0        3.584373    1.744786   -2.024172
     71          8           0        2.532337    2.885744    1.861646
     72          6           0        5.497278    1.507341   -1.083591
     73          6           0        6.582035    2.308367   -0.693984
     74          1           0        6.402398    3.335369   -0.390918
     75          6           0        5.745977    0.175035   -1.440465
     76          1           0        4.916177   -0.456253   -1.751010
     77          6           0        7.876021    1.795011   -0.657620
     78          1           0        8.716773    2.412305   -0.358611
     79          6           0        7.035898   -0.348228   -1.409398
     80          1           0        7.213202   -1.383602   -1.693450
     81          8           0        9.392774    0.013435   -0.962900
     82          1           0        9.421305   -0.914879   -1.242120
     83          6           0        8.107838    0.462987   -1.016948
     84          7           0        4.669173    2.077186    1.891501
     85          1           0        5.359875    1.599386    1.320713
     86          6           0        5.205343    2.982158    2.900213
     87          1           0        4.522605    2.992898    3.755641
     88          6           0        5.331614    4.422789    2.342648
     89          6           0        6.586222    2.481002    3.347199
     90          1           0        7.029780    3.175835    4.067452
     91          1           0        6.503445    1.489986    3.803988
     92          1           0        7.256909    2.413762    2.482509
     93          8           0        5.242248    4.659360    1.128237
     94          7           0        5.568619    5.333707    3.302625
     95          1           0        5.849558    4.961163    4.244030
     96          6           0        6.522325    6.445247    3.131815
     97          1           0        7.065394    6.299386    2.192122
     98          6           0        7.532007    6.295738    4.353053
     99          6           0        5.916837    7.848296    3.136156
    100          1           0        6.769772    8.529604    3.096893
    101          1           0        5.443825    8.032738    4.112278
    102          8           0        8.433373    7.137710    4.393874
    103          6           0        4.924877    8.127847    1.987397
    104          1           0        5.006504    7.327486    1.241911
    105          1           0        5.181076    9.056687    1.463395
    106          6           0        3.472127    8.284158    2.457281
    107          1           0        2.776798    8.372340    1.616702
    108          1           0        3.369499    9.192213    3.057521
    109          7           0        2.990461    7.188256    3.312458
    110          1           0        3.290542    7.216811    4.277807
    111          7           0        2.589676    5.747932    1.524713
    112          1           0        2.414829    4.770164    1.297945
    113          1           0        3.373664    6.116443    0.996515
    114          7           0        2.197730    5.032281    3.686499
    115          1           0        2.245889    4.070670    3.346513
    116          1           0        2.195013    5.195540    4.682552
    117          6           0        2.633101    5.988177    2.851451
    118          8           0        7.246988    5.336911    5.139410
 ---------------------------------------------------------------------

 SCF Done:  E(RB3LYP) =  -2837.86821858     A.U. after    2 cycles

 Alpha  occ. eigenvalues --  -19.31922 -19.27888 -19.24320 -19.22761 -19.21558
 Alpha  occ. eigenvalues --  -19.20069 -19.19981 -19.17897 -19.16827 -19.07878
 Alpha  occ. eigenvalues --  -19.06468 -14.60327 -14.50886 -14.48004 -14.45710
 Alpha  occ. eigenvalues --  -14.45014 -14.44770 -14.44078 -14.43863 -14.43796
 Alpha  occ. eigenvalues --  -14.42407 -14.37439 -10.44851 -10.42145 -10.41594
 Alpha  occ. eigenvalues --  -10.41338 -10.41047 -10.37690 -10.37469 -10.36980
 Alpha  occ. eigenvalues --  -10.35535 -10.35492 -10.33554 -10.33277 -10.33009
 Alpha  occ. eigenvalues --  -10.31779 -10.31129 -10.30143 -10.29673 -10.29481
 Alpha  occ. eigenvalues --  -10.29363 -10.27822 -10.27627 -10.27398 -10.26270
 Alpha  occ. eigenvalues --  -10.25934 -10.25601 -10.25490 -10.25411 -10.24555
 Alpha  occ. eigenvalues --  -10.24497 -10.24318 -10.23765 -10.23683 -10.23430
 Alpha  occ. eigenvalues --  -10.22885 -10.22679 -10.21326  -1.20986  -1.19140
 Alpha  occ. eigenvalues --   -1.16136  -1.14282  -1.12914  -1.12397  -1.11531
 Alpha  occ. eigenvalues --   -1.10926  -1.10250  -1.09768  -1.07757  -1.07635
 Alpha  occ. eigenvalues --   -1.04269  -1.01374  -1.00827  -1.00747  -1.00721
 Alpha  occ. eigenvalues --   -0.99815  -0.97898  -0.97072  -0.95069  -0.95020
 Alpha  occ. eigenvalues --   -0.91827  -0.91774  -0.90847  -0.88701  -0.87682
 Alpha  occ. eigenvalues --   -0.86929  -0.85790  -0.84410  -0.83819  -0.82582
 Alpha  occ. eigenvalues --   -0.81176  -0.80196  -0.79946  -0.78537  -0.78502
 Alpha  occ. eigenvalues --   -0.77699  -0.75614  -0.75181  -0.74547  -0.73294
 Alpha  occ. eigenvalues --   -0.73085  -0.72921  -0.72735  -0.71079  -0.70683
 Alpha  occ. eigenvalues --   -0.70180  -0.69174  -0.68249  -0.67844  -0.67540
 Alpha  occ. eigenvalues --   -0.67423  -0.67142  -0.66901  -0.66155  -0.65525
 Alpha  occ. eigenvalues --   -0.64714  -0.64618  -0.63832  -0.63579  -0.63411
 Alpha  occ. eigenvalues --   -0.62448  -0.61077  -0.60886  -0.60685  -0.60181
 Alpha  occ. eigenvalues --   -0.59781  -0.59565  -0.59310  -0.58602  -0.58543
 Alpha  occ. eigenvalues --   -0.58338  -0.57824  -0.57311  -0.57131  -0.56651
 Alpha  occ. eigenvalues --   -0.56265  -0.56089  -0.55364  -0.54623  -0.54496
 Alpha  occ. eigenvalues --   -0.54168  -0.53960  -0.53469  -0.53458  -0.53152
 Alpha  occ. eigenvalues --   -0.52511  -0.52488  -0.52377  -0.52097  -0.51581
 Alpha  occ. eigenvalues --   -0.51162  -0.51011  -0.50702  -0.50437  -0.50237
 Alpha  occ. eigenvalues --   -0.50067  -0.49725  -0.49627  -0.49442  -0.49290
 Alpha  occ. eigenvalues --   -0.48787  -0.48455  -0.48216  -0.47902  -0.47674
 Alpha  occ. eigenvalues --   -0.47497  -0.47354  -0.46974  -0.46505  -0.46451
 Alpha  occ. eigenvalues --   -0.46386  -0.46047  -0.45759  -0.45581  -0.45508
 Alpha  occ. eigenvalues --   -0.44942  -0.44821  -0.44749  -0.44514  -0.43693
 Alpha  occ. eigenvalues --   -0.43408  -0.43275  -0.43198  -0.42684  -0.42648
 Alpha  occ. eigenvalues --   -0.42505  -0.42434  -0.41944  -0.41748  -0.41645
 Alpha  occ. eigenvalues --   -0.41547  -0.40802  -0.40520  -0.40086  -0.39570
 Alpha  occ. eigenvalues --   -0.38624  -0.38313  -0.38307  -0.38045  -0.37749
 Alpha  occ. eigenvalues --   -0.37418  -0.36838  -0.36535  -0.35813  -0.35014
 Alpha  occ. eigenvalues --   -0.34955  -0.34641  -0.34113  -0.33970  -0.33843
 Alpha  occ. eigenvalues --   -0.33405  -0.33218  -0.31238  -0.30783  -0.30272
 Alpha  occ. eigenvalues --   -0.29502  -0.27008  -0.22853  -0.22775  -0.20456
 Alpha virt. eigenvalues --   -0.13833  -0.11181  -0.10323  -0.07417  -0.06960
 Alpha virt. eigenvalues --   -0.06805  -0.06785  -0.06493  -0.05900  -0.05404
 Alpha virt. eigenvalues --   -0.04331  -0.04263  -0.03614  -0.03451  -0.03347

 Mulliken charges:
               1
     1  N   -0.758858
     2  H    0.437372
     3  H    0.413159
     4  H    0.428352
     5  C   -0.123814
     6  H    0.228809
     7  C    0.669100
     8  C    0.103207
     9  H    0.182266
    10  O   -0.534639
    11  C   -0.476102
    12  H    0.184447
    13  H    0.159340
    14  H    0.192896
    15  O   -0.635002
    16  H    0.436558
    17  N   -0.597715
    18  H    0.361531
    19  C   -0.076492
    20  H    0.187253
    21  C    0.646897
    22  C   -0.087761
    23  H    0.161494
    24  O   -0.572267
    25  C   -0.250141
    26  H    0.111690
    27  H    0.149276
    28  C   -0.516141
    29  H    0.138914
    30  H    0.206208
    31  H    0.178591
    32  C   -0.456489
    33  H    0.155381
    34  H    0.164482
    35  H    0.160349
    36  N   -0.578908
    37  H    0.354274
    38  C   -0.051522
    39  H    0.171956
    40  C    0.636400
    41  C   -0.481880
    42  H    0.184777
    43  H    0.183194
    44  H    0.171084
    45  O   -0.537686
    46  N   -0.590297
    47  H    0.354809
    48  C   -0.072493
    49  H    0.184987
    50  C    0.633269
    51  C   -0.265185
    52  H    0.172408
    53  H    0.155575
    54  O   -0.546184
    55  C   -0.358765
    56  H    0.178400
    57  H    0.162172
    58  C    0.561701
    59  N   -0.785465
    60  H    0.369931
    61  H    0.326167
    62  O   -0.486943
    63  N   -0.624628
    64  H    0.352048
    65  C   -0.054966
    66  H    0.192339
    67  C    0.640416
    68  C   -0.349511
    69  H    0.170860
    70  H    0.181468
    71  O   -0.606614
    72  C    0.098108
    73  C   -0.226492
    74  H    0.190807
    75  C   -0.191799
    76  H    0.150643
    77  C   -0.164468
    78  H    0.162142
    79  C   -0.193542
    80  H    0.126163
    81  O   -0.630321
    82  H    0.411615
    83  C    0.355288
    84  N   -0.570598
    85  H    0.367212
    86  C   -0.065316
    87  H    0.162063
    88  C    0.597014
    89  C   -0.507233
    90  H    0.236303
    91  H    0.161098
    92  H    0.164192
    93  O   -0.575686
    94  N   -0.618011
    95  H    0.356798
    96  C   -0.093933
    97  H    0.154423
    98  C    0.592399
    99  C   -0.269356
   100  H    0.193657
   101  H    0.113140
   102  O   -0.557547
   103  C   -0.286566
   104  H    0.163131
   105  H    0.159131
   106  C   -0.184612
   107  H    0.178110
   108  H    0.181603
   109  N   -0.566426
   110  H    0.358014
   111  N   -0.749276
   112  H    0.380627
   113  H    0.384077
   114  N   -0.770840
   115  H    0.405210
   116  H    0.358536
   117  C    0.757640
   118  O   -0.616461
 Sum of Mulliken charges =   1.00000

 Dipole moment (field-independent basis, Debye):
    X=            -33.9256    Y=            -26.7324    Z=            -22.7140  Tot=             48.8006
 Quadrupole moment (field-independent basis, Debye-Ang):
   XX=           -282.1834   YY=           -158.2888   ZZ=           -298.7235
   XY=             72.7293   XZ=             29.7311   YZ=             73.3635

 Normal termination of Gaussian 16 at Sun Jul 17 00:10:37 2022.
