 Gaussian 16, Revision C.01,
 Gaussian 16:  ES64L-G16RevC.01  3-Jul-2019

 ----------------------------------------------------------------------
 # B3LYP/6-31G* empiricaldispersion=gd3bj guess=read geom=check nosymm
 integral(ultrafinegrid)
 ----------------------------------------------------------------------

 ------------------------------------------------------
 Candidate Structure: Conf:234 Charge calc in gas phase
 ------------------------------------------------------
 Structure from the checkpoint file:  "conf-234.chk"
 Charge =  1 Multiplicity = 1

                          Input orientation:
 ---------------------------------------------------------------------
 Center     Atomic      Atomic             Coordinates (Angstroms)
 Number     Number       Type             X           Y           Z
 ---------------------------------------------------------------------
      1          7           0       -8.055114   -4.083520   -5.727878
      2          1           0       -8.382218   -4.920260   -5.238523
      3          1           0       -8.277804   -4.151314   -6.736341
      4          1           0       -8.473084   -3.239734   -5.261237
      5          6           0       -6.576058   -3.855841   -5.601389
      6          1           0       -6.080878   -4.814299   -5.429591
      7          6           0       -6.446745   -2.873184   -4.418135
      8          6           0       -6.103544   -3.210567   -6.940513
      9          1           0       -6.438730   -2.167185   -6.938073
     10          8           0       -7.455606   -2.226891   -4.104881
     11          6           0       -4.595657   -3.280336   -7.127397
     12          1           0       -4.057100   -2.741686   -6.342379
     13          1           0       -4.248674   -4.321873   -7.123840
     14          1           0       -4.329332   -2.828035   -8.086584
     15          8           0       -6.825169   -3.831587   -8.005967
     16          1           0       -6.286105   -4.543744   -8.388671
     17          7           0       -5.240688   -2.771345   -3.879139
     18          1           0       -4.432960   -3.271167   -4.256132
     19          6           0       -4.832840   -1.733969   -2.934690
     20          1           0       -5.414826   -0.833625   -3.147102
     21          6           0       -3.344514   -1.509103   -3.268735
     22          6           0       -5.089322   -2.181002   -1.467272
     23          1           0       -6.149305   -2.470193   -1.455747
     24          8           0       -2.744370   -2.324413   -3.983843
     25          6           0       -4.916206   -1.053339   -0.431805
     26          1           0       -3.856076   -0.799973   -0.314632
     27          1           0       -5.225287   -1.468054    0.535213
     28          6           0       -4.240171   -3.401370   -1.095786
     29          1           0       -3.172581   -3.154520   -1.083836
     30          1           0       -4.384977   -4.230622   -1.796319
     31          1           0       -4.508368   -3.757958   -0.096657
     32          6           0       -5.729751    0.215434   -0.705999
     33          1           0       -5.665673    0.900111    0.144469
     34          1           0       -6.787660   -0.018042   -0.874785
     35          1           0       -5.371839    0.769937   -1.582488
     36          7           0       -2.779355   -0.425049   -2.730998
     37          1           0       -3.285495    0.184502   -2.092885
     38          6           0       -1.346905   -0.170114   -2.747754
     39          1           0       -0.824947   -1.131405   -2.703395
     40          6           0       -1.067180    0.642511   -1.472708
     41          6           0       -0.905112    0.596193   -4.003609
     42          1           0        0.167931    0.810133   -3.974667
     43          1           0       -1.442743    1.546872   -4.074829
     44          1           0       -1.120753   -0.003671   -4.891688
     45          8           0       -1.991675    1.188069   -0.863868
     46          7           0        0.227587    0.696563   -1.108815
     47          1           0        0.931348    0.413723   -1.785935
     48          6           0        0.735264    1.654590   -0.136559
     49          1           0        0.006207    2.471770   -0.072751
     50          6           0        2.042658    2.196901   -0.756209
     51          6           0        0.920447    1.047002    1.275704
     52          1           0        1.076215    1.870940    1.985951
     53          1           0        1.818707    0.424640    1.309280
     54          8           0        2.346825    1.928708   -1.913054
     55          6           0       -0.332460    0.260961    1.705031
     56          1           0       -1.228205    0.864222    1.546698
     57          1           0       -0.416762   -0.631231    1.075891
     58          6           0       -0.343162   -0.172636    3.161068
     59          7           0        0.531240   -1.131380    3.521523
     60          1           0        1.488905   -1.151740    3.124352
     61          1           0        0.533857   -1.374540    4.505713
     62          8           0       -1.161045    0.324402    3.966136
     63          7           0        2.790226    3.016058    0.040236
     64          1           0        2.580932    2.943291    1.028901
     65          6           0        4.218694    3.126596   -0.235132
     66          1           0        4.334656    3.363840   -1.295511
     67          6           0        4.857320    1.737634    0.048733
     68          6           0        4.799637    4.270535    0.632248
     69          1           0        4.788440    3.956565    1.682710
     70          1           0        4.098269    5.108524    0.542134
     71          8           0        4.145068    0.766406    0.297127
     72          6           0        6.190686    4.730764    0.256598
     73          6           0        7.295798    4.477706    1.085535
     74          1           0        7.169168    3.919350    2.008996
     75          6           0        6.411571    5.411651   -0.946914
     76          1           0        5.573486    5.625999   -1.606139
     77          6           0        8.577331    4.882250    0.723597
     78          1           0        9.429053    4.676001    1.362802
     79          6           0        7.687460    5.826981   -1.318772
     80          1           0        7.837046    6.356487   -2.257340
     81          8           0       10.051741    5.937143   -0.787048
     82          1           0       10.056035    6.397907   -1.640504
     83          6           0        8.777946    5.562773   -0.481697
     84          7           0        6.210499    1.675267    0.043104
     85          1           0        6.723853    2.544956   -0.040232
     86          6           0        6.919663    0.584758    0.735910
     87          1           0        6.442053   -0.351280    0.437634
     88          6           0        6.711005    0.835983    2.248743
     89          6           0        8.391900    0.598814    0.356329
     90          1           0        8.912088   -0.233438    0.838836
     91          1           0        8.509282    0.507552   -0.727553
     92          1           0        8.861297    1.525446    0.698738
     93          8           0        7.475018    1.558833    2.893731
     94          7           0        5.579043    0.292742    2.742209
     95          1           0        4.917307   -0.153672    2.109621
     96          6           0        4.980348    0.666768    4.015333
     97          1           0        5.666307    0.434917    4.835574
     98          6           0        3.679586   -0.158847    4.171460
     99          6           0        4.664181    2.189495    4.027077
    100          1           0        3.744177    2.359292    3.448827
    101          1           0        5.480355    2.670538    3.483728
    102          8           0        3.203626   -0.240528    5.340772
    103          6           0        4.587948    2.890385    5.390832
    104          1           0        4.684404    3.973839    5.224118
    105          1           0        5.459200    2.604906    5.992384
    106          6           0        3.338303    2.638204    6.238506
    107          1           0        3.400460    3.202586    7.176204
    108          1           0        3.261947    1.577575    6.465899
    109          7           0        2.124557    3.057199    5.520911
    110          1           0        2.167173    3.950050    5.047428
    111          7           0        0.916727    1.068871    5.722645
    112          1           0        0.037576    0.620544    5.457049
    113          1           0        1.772096    0.461106    5.690219
    114          7           0       -0.009640    2.889041    4.627616
    115          1           0       -0.774230    2.270057    4.357994
    116          1           0       -0.191197    3.878896    4.704761
    117          6           0        1.022992    2.324517    5.305170
    118          8           0        3.186742   -0.623272    3.111000
 ---------------------------------------------------------------------

 SCF Done:  E(RB3LYP) =  -2837.91985655     A.U. after    1 cycles

 Alpha  occ. eigenvalues --  -19.30616 -19.26253 -19.22754 -19.21884 -19.20052
 Alpha  occ. eigenvalues --  -19.18571 -19.17909 -19.17058 -19.14568 -19.14018
 Alpha  occ. eigenvalues --  -19.13658 -14.59453 -14.49020 -14.45282 -14.45163
 Alpha  occ. eigenvalues --  -14.44268 -14.43258 -14.42139 -14.41170 -14.40762
 Alpha  occ. eigenvalues --  -14.39199 -14.38025 -10.43257 -10.40389 -10.40248
 Alpha  occ. eigenvalues --  -10.39823 -10.38763 -10.36763 -10.35513 -10.34699
 Alpha  occ. eigenvalues --  -10.33897 -10.33820 -10.31800 -10.31719 -10.31492
 Alpha  occ. eigenvalues --  -10.31260 -10.30303 -10.30138 -10.29465 -10.28795
 Alpha  occ. eigenvalues --  -10.28265 -10.27252 -10.26263 -10.25999 -10.25925
 Alpha  occ. eigenvalues --  -10.25799 -10.25785 -10.25500 -10.25290 -10.24731
 Alpha  occ. eigenvalues --  -10.24698 -10.24691 -10.24670 -10.24317 -10.24008
 Alpha  occ. eigenvalues --  -10.23647 -10.23466 -10.21794  -1.19313  -1.17696
 Alpha  occ. eigenvalues --   -1.13919  -1.13193  -1.11909  -1.10915  -1.10733
 Alpha  occ. eigenvalues --   -1.09346  -1.08883  -1.08469  -1.07199  -1.06071
 Alpha  occ. eigenvalues --   -1.05900  -1.02012  -1.00233  -0.99106  -0.98856
 Alpha  occ. eigenvalues --   -0.98632  -0.97423  -0.95984  -0.95011  -0.94635
 Alpha  occ. eigenvalues --   -0.93493  -0.90846  -0.90516  -0.87149  -0.85791
 Alpha  occ. eigenvalues --   -0.85177  -0.84872  -0.84209  -0.82449  -0.81166
 Alpha  occ. eigenvalues --   -0.80264  -0.80039  -0.79559  -0.78630  -0.77660
 Alpha  occ. eigenvalues --   -0.77156  -0.74269  -0.74128  -0.73214  -0.72923
 Alpha  occ. eigenvalues --   -0.72211  -0.71403  -0.70793  -0.70403  -0.69892
 Alpha  occ. eigenvalues --   -0.68423  -0.67604  -0.67424  -0.66876  -0.66604
 Alpha  occ. eigenvalues --   -0.66028  -0.65747  -0.65199  -0.64694  -0.64549
 Alpha  occ. eigenvalues --   -0.63963  -0.63434  -0.63037  -0.62739  -0.61704
 Alpha  occ. eigenvalues --   -0.60867  -0.60428  -0.59610  -0.59320  -0.59018
 Alpha  occ. eigenvalues --   -0.58852  -0.58464  -0.58146  -0.57499  -0.57307
 Alpha  occ. eigenvalues --   -0.56842  -0.56482  -0.56239  -0.55443  -0.55106
 Alpha  occ. eigenvalues --   -0.54819  -0.54130  -0.53821  -0.53615  -0.53143
 Alpha  occ. eigenvalues --   -0.52940  -0.52786  -0.52516  -0.52278  -0.52088
 Alpha  occ. eigenvalues --   -0.51443  -0.51251  -0.51098  -0.51016  -0.50871
 Alpha  occ. eigenvalues --   -0.50708  -0.50571  -0.50075  -0.49850  -0.49544
 Alpha  occ. eigenvalues --   -0.48935  -0.48713  -0.48555  -0.48416  -0.47962
 Alpha  occ. eigenvalues --   -0.47910  -0.47829  -0.47743  -0.47447  -0.47278
 Alpha  occ. eigenvalues --   -0.46693  -0.46512  -0.46315  -0.46091  -0.45812
 Alpha  occ. eigenvalues --   -0.45543  -0.45268  -0.45151  -0.44713  -0.44559
 Alpha  occ. eigenvalues --   -0.44424  -0.44216  -0.43965  -0.43841  -0.43593
 Alpha  occ. eigenvalues --   -0.43124  -0.42929  -0.42664  -0.42367  -0.42094
 Alpha  occ. eigenvalues --   -0.42022  -0.41668  -0.41216  -0.41132  -0.40949
 Alpha  occ. eigenvalues --   -0.40907  -0.40825  -0.40299  -0.40222  -0.40111
 Alpha  occ. eigenvalues --   -0.39607  -0.38888  -0.38828  -0.38195  -0.38066
 Alpha  occ. eigenvalues --   -0.37613  -0.36024  -0.35637  -0.35265  -0.34044
 Alpha  occ. eigenvalues --   -0.33505  -0.33451  -0.33357  -0.32827  -0.32359
 Alpha  occ. eigenvalues --   -0.31962  -0.31156  -0.30612  -0.30492  -0.29741
 Alpha  occ. eigenvalues --   -0.28706  -0.28483  -0.27873  -0.27050  -0.26774
 Alpha virt. eigenvalues --   -0.12217  -0.10272  -0.07618  -0.05868  -0.05748
 Alpha virt. eigenvalues --   -0.05546  -0.05362  -0.05123  -0.04668  -0.04603
 Alpha virt. eigenvalues --   -0.03943  -0.03478  -0.02709  -0.02062  -0.01349

 Mulliken charges:
               1
     1  N   -0.746625
     2  H    0.414534
     3  H    0.426345
     4  H    0.426532
     5  C   -0.141161
     6  H    0.203037
     7  C    0.646373
     8  C    0.128745
     9  H    0.193021
    10  O   -0.537917
    11  C   -0.513788
    12  H    0.207502
    13  H    0.164627
    14  H    0.205969
    15  O   -0.629519
    16  H    0.424238
    17  N   -0.600479
    18  H    0.374197
    19  C   -0.085871
    20  H    0.194991
    21  C    0.631287
    22  C   -0.074239
    23  H    0.149874
    24  O   -0.563304
    25  C   -0.285491
    26  H    0.161479
    27  H    0.158146
    28  C   -0.463466
    29  H    0.165243
    30  H    0.136467
    31  H    0.169124
    32  C   -0.463389
    33  H    0.174866
    34  H    0.155521
    35  H    0.140087
    36  N   -0.619480
    37  H    0.384016
    38  C   -0.058255
    39  H    0.189470
    40  C    0.616509
    41  C   -0.453376
    42  H    0.182627
    43  H    0.165555
    44  H    0.174741
    45  O   -0.544882
    46  N   -0.594453
    47  H    0.363831
    48  C   -0.068961
    49  H    0.189530
    50  C    0.639906
    51  C   -0.319921
    52  H    0.130514
    53  H    0.233454
    54  O   -0.531611
    55  C   -0.346665
    56  H    0.183393
    57  H    0.167246
    58  C    0.558541
    59  N   -0.726699
    60  H    0.401092
    61  H    0.329903
    62  O   -0.573009
    63  N   -0.599640
    64  H    0.335102
    65  C   -0.083706
    66  H    0.201499
    67  C    0.623126
    68  C   -0.383121
    69  H    0.154462
    70  H    0.169377
    71  O   -0.528044
    72  C    0.118777
    73  C   -0.235895
    74  H    0.184206
    75  C   -0.178110
    76  H    0.134623
    77  C   -0.159294
    78  H    0.162579
    79  C   -0.191796
    80  H    0.130630
    81  O   -0.631848
    82  H    0.412724
    83  C    0.354966
    84  N   -0.604030
    85  H    0.359944
    86  C   -0.051047
    87  H    0.172684
    88  C    0.608022
    89  C   -0.467270
    90  H    0.167802
    91  H    0.154332
    92  H    0.175871
    93  O   -0.552033
    94  N   -0.615408
    95  H    0.388341
    96  C   -0.009004
    97  H    0.167650
    98  C    0.593783
    99  C   -0.301203
   100  H    0.111422
   101  H    0.188616
   102  O   -0.612679
   103  C   -0.288897
   104  H    0.130629
   105  H    0.175048
   106  C   -0.156074
   107  H    0.164066
   108  H    0.226149
   109  N   -0.598507
   110  H    0.334635
   111  N   -0.784393
   112  H    0.369224
   113  H    0.424858
   114  N   -0.794371
   115  H    0.396957
   116  H    0.348282
   117  C    0.749490
   118  O   -0.583478
 Sum of Mulliken charges =   1.00000

 Dipole moment (field-independent basis, Debye):
    X=            -24.1065    Y=             -5.8000    Z=            -20.0687  Tot=             31.8985
 Quadrupole moment (field-independent basis, Debye-Ang):
   XX=           -149.2544   YY=           -218.3766   ZZ=           -180.6777
   XY=            150.4726   XZ=            128.2695   YZ=            119.8480

 Normal termination of Gaussian 16 at Sun Jul 17 00:10:10 2022.
