 Gaussian 16, Revision C.01,
 Gaussian 16:  ES64L-G16RevC.01  3-Jul-2019

 ----------------------------------------------------------------------
 # B3LYP/6-31G* empiricaldispersion=gd3bj guess=read geom=check nosymm
 integral(ultrafinegrid)
 ----------------------------------------------------------------------

 ------------------------------------------------------
 Candidate Structure: Conf:962 Charge calc in gas phase
 ------------------------------------------------------
 Structure from the checkpoint file:  "conf-962.chk"
 Charge =  1 Multiplicity = 1

                          Input orientation:
 ---------------------------------------------------------------------
 Center     Atomic      Atomic             Coordinates (Angstroms)
 Number     Number       Type             X           Y           Z
 ---------------------------------------------------------------------
      1          7           0       -1.522551   -5.799443   -1.373352
      2          1           0       -2.188819   -5.811492   -2.175648
      3          1           0       -1.252205   -6.734911   -1.065459
      4          1           0       -0.686979   -5.252102   -1.661185
      5          6           0       -2.176916   -4.958768   -0.310676
      6          1           0       -2.677238   -5.612232    0.408329
      7          6           0       -3.199842   -4.121009   -1.111577
      8          6           0       -1.042160   -4.122176    0.338263
      9          1           0       -1.479941   -3.357731    0.991302
     10          8           0       -3.426699   -4.415508   -2.286258
     11          6           0       -0.085898   -4.983150    1.151853
     12          1           0       -0.646289   -5.601436    1.862349
     13          1           0        0.498857   -5.643270    0.498248
     14          1           0        0.612972   -4.364450    1.733363
     15          8           0       -0.335143   -3.509656   -0.739950
     16          1           0       -0.899760   -2.789723   -1.113139
     17          7           0       -3.763783   -3.090193   -0.463138
     18          1           0       -3.400174   -2.857802    0.452620
     19          6           0       -4.357813   -1.974769   -1.196805
     20          1           0       -5.110468   -2.377070   -1.882332
     21          6           0       -3.225020   -1.318337   -2.023825
     22          6           0       -5.039820   -1.024122   -0.172693
     23          1           0       -4.259761   -0.724739    0.546034
     24          8           0       -2.032857   -1.549862   -1.779349
     25          6           0       -6.143168   -1.792577    0.587951
     26          1           0       -5.774906   -2.784301    0.874424
     27          1           0       -6.979946   -1.968909   -0.102105
     28          6           0       -5.596243    0.252885   -0.815152
     29          1           0       -6.303148    0.008261   -1.620908
     30          1           0       -4.809746    0.906438   -1.198840
     31          1           0       -6.156202    0.824910   -0.071661
     32          6           0       -6.644003   -1.075307    1.844505
     33          1           0       -7.381616   -1.692203    2.367113
     34          1           0       -7.123133   -0.118999    1.614580
     35          1           0       -5.820445   -0.878569    2.541396
     36          7           0       -3.591098   -0.487710   -3.014414
     37          1           0       -4.566269   -0.231289   -3.088768
     38          6           0       -2.621784    0.391785   -3.668846
     39          1           0       -1.803733   -0.235873   -4.032947
     40          6           0       -2.086398    1.412840   -2.636432
     41          6           0       -3.296191    1.122731   -4.829698
     42          1           0       -2.569409    1.754734   -5.346801
     43          1           0       -4.098412    1.768034   -4.455532
     44          1           0       -3.710757    0.410681   -5.549701
     45          8           0       -2.844819    1.938066   -1.822752
     46          7           0       -0.768518    1.678030   -2.736839
     47          1           0       -0.175007    1.101166   -3.329110
     48          6           0        0.001467    2.439471   -1.761124
     49          1           0       -0.204953    3.511603   -1.867448
     50          6           0        1.477177    2.158568   -2.104905
     51          6           0       -0.276842    2.003016   -0.301376
     52          1           0       -1.254636    2.387257   -0.005245
     53          1           0        0.479427    2.444654    0.351887
     54          8           0        1.779557    1.289517   -2.919615
     55          6           0       -0.236291    0.483367   -0.175139
     56          1           0       -1.186665    0.055476   -0.499919
     57          1           0        0.525836    0.069492   -0.840660
     58          6           0        0.046637   -0.033684    1.219096
     59          7           0        0.346662   -1.334936    1.281759
     60          1           0        0.546235   -1.822159    0.416311
     61          1           0        0.765456   -1.806801    2.108499
     62          8           0       -0.065503    0.686096    2.234279
     63          7           0        2.406585    2.900922   -1.439866
     64          1           0        2.082475    3.401011   -0.620008
     65          6           0        3.747403    2.352533   -1.307268
     66          1           0        4.058131    2.022179   -2.301665
     67          6           0        3.688034    1.123785   -0.368988
     68          6           0        4.734026    3.423554   -0.795361
     69          1           0        4.698737    4.267336   -1.492428
     70          1           0        5.745864    3.008773   -0.851167
     71          8           0        2.692905    0.885143    0.311510
     72          6           0        4.457476    3.890550    0.615861
     73          6           0        3.641786    5.002785    0.862205
     74          1           0        3.226063    5.559658    0.025290
     75          6           0        5.011247    3.212864    1.710138
     76          1           0        5.608573    2.317746    1.568432
     77          6           0        3.388521    5.441204    2.162133
     78          1           0        2.780889    6.319919    2.352659
     79          6           0        4.778085    3.648663    3.010944
     80          1           0        5.219098    3.106299    3.842903
     81          8           0        3.689881    5.225485    4.509255
     82          1           0        4.354947    4.877843    5.125377
     83          6           0        3.973414    4.765429    3.230867
     84          7           0        4.790389    0.345609   -0.343168
     85          1           0        5.574092    0.563707   -0.942932
     86          6           0        4.828293   -0.900117    0.419443
     87          1           0        4.014397   -1.539155    0.056397
     88          6           0        4.640994   -0.635852    1.932363
     89          6           0        6.175805   -1.584425    0.200340
     90          1           0        6.193423   -2.547659    0.717353
     91          1           0        6.360928   -1.764226   -0.864862
     92          1           0        6.975358   -0.962195    0.613527
     93          8           0        5.416849    0.117437    2.529063
     94          7           0        3.637899   -1.341944    2.470874
     95          1           0        3.048538   -1.924132    1.877960
     96          6           0        3.302051   -1.586718    3.870672
     97          1           0        4.211313   -1.800590    4.440520
     98          6           0        2.353411   -2.838706    3.891705
     99          6           0        2.518595   -0.440802    4.533288
    100          1           0        2.217718   -0.792960    5.526576
    101          1           0        1.593523   -0.307224    3.958508
    102          8           0        2.217491   -3.428373    4.959598
    103          6           0        3.276772    0.885259    4.648224
    104          1           0        3.775997    1.121335    3.707538
    105          1           0        4.068625    0.792920    5.400837
    106          6           0        2.375488    2.056263    5.034312
    107          1           0        2.976845    2.948090    5.219879
    108          1           0        1.802476    1.841375    5.946136
    109          7           0        1.444172    2.330713    3.931940
    110          1           0        1.206896    1.549670    3.315095
    111          7           0        0.870979    4.502386    4.550322
    112          1           0        0.225899    5.272498    4.453152
    113          1           0        1.828139    4.748119    4.801912
    114          7           0       -0.422559    3.310898    3.015190
    115          1           0       -0.837989    4.153142    2.647404
    116          1           0       -0.572951    2.418583    2.527360
    117          6           0        0.648905    3.386566    3.824343
    118          8           0        1.760357   -3.058744    2.766335
 ---------------------------------------------------------------------

 SCF Done:  E(RB3LYP) =  -2837.93759005     A.U. after    1 cycles

 Alpha  occ. eigenvalues --  -19.27680 -19.26859 -19.26207 -19.24033 -19.21169
 Alpha  occ. eigenvalues --  -19.20319 -19.19740 -19.19299 -19.15621 -19.12219
 Alpha  occ. eigenvalues --  -19.10483 -14.58056 -14.49331 -14.47243 -14.46082
 Alpha  occ. eigenvalues --  -14.45534 -14.45181 -14.44397 -14.44320 -14.43680
 Alpha  occ. eigenvalues --  -14.40634 -14.39109 -10.42931 -10.42189 -10.40529
 Alpha  occ. eigenvalues --  -10.38828 -10.37793 -10.37437 -10.36804 -10.36444
 Alpha  occ. eigenvalues --  -10.36143 -10.35114 -10.33268 -10.33182 -10.32922
 Alpha  occ. eigenvalues --  -10.32372 -10.31568 -10.30266 -10.30063 -10.29620
 Alpha  occ. eigenvalues --  -10.29377 -10.27819 -10.27773 -10.27460 -10.27344
 Alpha  occ. eigenvalues --  -10.27230 -10.27053 -10.27052 -10.26725 -10.26342
 Alpha  occ. eigenvalues --  -10.26334 -10.26223 -10.25928 -10.25652 -10.25149
 Alpha  occ. eigenvalues --  -10.24694 -10.23732 -10.22754  -1.18883  -1.15643
 Alpha  occ. eigenvalues --   -1.14992  -1.14879  -1.13387  -1.12065  -1.11660
 Alpha  occ. eigenvalues --   -1.11201  -1.11088  -1.10247  -1.07195  -1.06274
 Alpha  occ. eigenvalues --   -1.04582  -1.03688  -1.01473  -1.01057  -1.00080
 Alpha  occ. eigenvalues --   -0.99883  -0.99086  -0.97252  -0.96502  -0.95004
 Alpha  occ. eigenvalues --   -0.93545  -0.92474  -0.89924  -0.88887  -0.87347
 Alpha  occ. eigenvalues --   -0.86333  -0.85516  -0.84364  -0.83727  -0.82775
 Alpha  occ. eigenvalues --   -0.82338  -0.81641  -0.79895  -0.79716  -0.79255
 Alpha  occ. eigenvalues --   -0.75375  -0.74085  -0.73812  -0.73523  -0.73104
 Alpha  occ. eigenvalues --   -0.72767  -0.72485  -0.71723  -0.71692  -0.70827
 Alpha  occ. eigenvalues --   -0.70364  -0.69752  -0.69548  -0.68209  -0.67659
 Alpha  occ. eigenvalues --   -0.67464  -0.67168  -0.66311  -0.66091  -0.65747
 Alpha  occ. eigenvalues --   -0.65261  -0.64192  -0.63963  -0.63721  -0.62699
 Alpha  occ. eigenvalues --   -0.62430  -0.61740  -0.61226  -0.60718  -0.60342
 Alpha  occ. eigenvalues --   -0.60193  -0.59494  -0.59460  -0.59043  -0.58130
 Alpha  occ. eigenvalues --   -0.57761  -0.57529  -0.57064  -0.56843  -0.56410
 Alpha  occ. eigenvalues --   -0.55713  -0.55579  -0.55220  -0.54832  -0.54614
 Alpha  occ. eigenvalues --   -0.54507  -0.54307  -0.53958  -0.53684  -0.53092
 Alpha  occ. eigenvalues --   -0.52794  -0.52426  -0.52149  -0.51839  -0.51537
 Alpha  occ. eigenvalues --   -0.51317  -0.51085  -0.51042  -0.50535  -0.50467
 Alpha  occ. eigenvalues --   -0.50393  -0.50132  -0.49772  -0.49332  -0.49124
 Alpha  occ. eigenvalues --   -0.48798  -0.48343  -0.48092  -0.47971  -0.47832
 Alpha  occ. eigenvalues --   -0.47475  -0.47397  -0.47273  -0.47152  -0.46922
 Alpha  occ. eigenvalues --   -0.46517  -0.46327  -0.46099  -0.45784  -0.45645
 Alpha  occ. eigenvalues --   -0.45588  -0.45335  -0.45051  -0.44984  -0.44688
 Alpha  occ. eigenvalues --   -0.44556  -0.44029  -0.43598  -0.43004  -0.42895
 Alpha  occ. eigenvalues --   -0.42782  -0.42429  -0.42258  -0.42086  -0.41931
 Alpha  occ. eigenvalues --   -0.41903  -0.41566  -0.41275  -0.41022  -0.40810
 Alpha  occ. eigenvalues --   -0.40762  -0.39760  -0.39598  -0.39299  -0.38754
 Alpha  occ. eigenvalues --   -0.37943  -0.37705  -0.37507  -0.37182  -0.35837
 Alpha  occ. eigenvalues --   -0.34827  -0.34561  -0.34268  -0.34200  -0.33737
 Alpha  occ. eigenvalues --   -0.33631  -0.33473  -0.33034  -0.32863  -0.30618
 Alpha  occ. eigenvalues --   -0.29497  -0.29437  -0.27341  -0.26932  -0.24290
 Alpha virt. eigenvalues --   -0.12389  -0.09790  -0.08730  -0.08074  -0.07702
 Alpha virt. eigenvalues --   -0.07285  -0.07030  -0.06401  -0.05477  -0.04999
 Alpha virt. eigenvalues --   -0.04637  -0.03184  -0.02973  -0.02350  -0.02207

 Mulliken charges:
               1
     1  N   -0.745327
     2  H    0.425688
     3  H    0.414558
     4  H    0.422236
     5  C   -0.127278
     6  H    0.223716
     7  C    0.639228
     8  C    0.074216
     9  H    0.174947
    10  O   -0.526127
    11  C   -0.503833
    12  H    0.155666
    13  H    0.127591
    14  H    0.287378
    15  O   -0.668256
    16  H    0.463368
    17  N   -0.590472
    18  H    0.354368
    19  C   -0.072180
    20  H    0.195765
    21  C    0.667377
    22  C   -0.101646
    23  H    0.139735
    24  O   -0.574448
    25  C   -0.259705
    26  H    0.140876
    27  H    0.149332
    28  C   -0.523697
    29  H    0.138552
    30  H    0.213562
    31  H    0.175428
    32  C   -0.454453
    33  H    0.166279
    34  H    0.161963
    35  H    0.149743
    36  N   -0.579210
    37  H    0.352603
    38  C   -0.047671
    39  H    0.175657
    40  C    0.636570
    41  C   -0.483569
    42  H    0.184702
    43  H    0.177096
    44  H    0.177317
    45  O   -0.536014
    46  N   -0.621381
    47  H    0.364409
    48  C   -0.042987
    49  H    0.175568
    50  C    0.629190
    51  C   -0.290893
    52  H    0.173816
    53  H    0.155365
    54  O   -0.534369
    55  C   -0.382947
    56  H    0.193141
    57  H    0.177372
    58  C    0.645556
    59  N   -0.799185
    60  H    0.349023
    61  H    0.408263
    62  O   -0.598696
    63  N   -0.588789
    64  H    0.340159
    65  C   -0.086312
    66  H    0.191800
    67  C    0.654909
    68  C   -0.370900
    69  H    0.175987
    70  H    0.164569
    71  O   -0.549010
    72  C    0.154728
    73  C   -0.214184
    74  H    0.139509
    75  C   -0.183578
    76  H    0.187791
    77  C   -0.162562
    78  H    0.140353
    79  C   -0.190893
    80  H    0.161082
    81  O   -0.672399
    82  H    0.428038
    83  C    0.334198
    84  N   -0.602108
    85  H    0.335773
    86  C   -0.019479
    87  H    0.148810
    88  C    0.650789
    89  C   -0.492596
    90  H    0.180682
    91  H    0.150837
    92  H    0.183389
    93  O   -0.569757
    94  N   -0.604000
    95  H    0.345758
    96  C   -0.047513
    97  H    0.159343
    98  C    0.570272
    99  C   -0.294222
   100  H    0.167968
   101  H    0.141839
   102  O   -0.535724
   103  C   -0.313289
   104  H    0.204506
   105  H    0.150591
   106  C   -0.124992
   107  H    0.123554
   108  H    0.174099
   109  N   -0.627427
   110  H    0.425889
   111  N   -0.779073
   112  H    0.351845
   113  H    0.410875
   114  N   -0.794804
   115  H    0.344180
   116  H    0.420907
   117  C    0.771735
   118  O   -0.636035
 Sum of Mulliken charges =   1.00000

 Dipole moment (field-independent basis, Debye):
    X=             -7.5712    Y=              0.5590    Z=             -5.5306  Tot=              9.3927
 Quadrupole moment (field-independent basis, Debye-Ang):
   XX=           -268.7849   YY=           -208.5777   ZZ=           -320.7909
   XY=             57.9842   XZ=              2.1374   YZ=             75.2789

 Normal termination of Gaussian 16 at Sun Jul 17 00:10:36 2022.
