 Gaussian 16, Revision C.01,
 Gaussian 16:  ES64L-G16RevC.01  3-Jul-2019

 ----------------------------------------------------------------------
 # B3LYP/6-31G* empiricaldispersion=gd3bj guess=read geom=check nosymm
 integral(ultrafinegrid)
 ----------------------------------------------------------------------

 ------------------------------------------------------
 Candidate Structure: Conf:549 Charge calc in gas phase
 ------------------------------------------------------
 Structure from the checkpoint file:  "conf-549.chk"
 Charge =  1 Multiplicity = 1

                          Input orientation:
 ---------------------------------------------------------------------
 Center     Atomic      Atomic             Coordinates (Angstroms)
 Number     Number       Type             X           Y           Z
 ---------------------------------------------------------------------
      1          7           0       -7.647425   -2.503619   -7.353665
      2          1           0       -7.928504   -1.576154   -6.917507
      3          1           0       -8.446771   -3.120843   -7.502393
      4          1           0       -7.158884   -2.306143   -8.242358
      5          6           0       -6.619969   -3.012171   -6.379555
      6          1           0       -7.052073   -3.830196   -5.799100
      7          6           0       -6.377639   -1.780368   -5.460301
      8          6           0       -5.379863   -3.484502   -7.164445
      9          1           0       -4.525709   -3.497676   -6.475745
     10          8           0       -7.105602   -0.792124   -5.623252
     11          6           0       -5.558144   -4.863293   -7.792460
     12          1           0       -5.703762   -5.628715   -7.023189
     13          1           0       -6.412809   -4.886645   -8.478390
     14          1           0       -4.664805   -5.136968   -8.363391
     15          8           0       -5.203223   -2.460838   -8.144479
     16          1           0       -4.446195   -2.677004   -8.711213
     17          7           0       -5.424686   -1.920904   -4.551565
     18          1           0       -4.781019   -2.713819   -4.569801
     19          6           0       -4.881221   -0.845897   -3.719582
     20          1           0       -5.160908    0.111810   -4.168613
     21          6           0       -3.358154   -1.085777   -3.808058
     22          6           0       -5.412174   -0.913901   -2.259195
     23          1           0       -5.051311   -1.862070   -1.834399
     24          8           0       -2.940777   -2.223922   -4.062908
     25          6           0       -6.953090   -0.937972   -2.250681
     26          1           0       -7.297282   -1.758898   -2.890036
     27          1           0       -7.328999   -0.013232   -2.708224
     28          6           0       -4.859730    0.244288   -1.417137
     29          1           0       -5.172443    1.212248   -1.829827
     30          1           0       -3.769751    0.240578   -1.352516
     31          1           0       -5.241131    0.185992   -0.395320
     32          6           0       -7.565314   -1.121026   -0.858858
     33          1           0       -8.649911   -1.250687   -0.932749
     34          1           0       -7.384661   -0.258828   -0.210474
     35          1           0       -7.156497   -2.007889   -0.359778
     36          7           0       -2.569456   -0.026788   -3.600675
     37          1           0       -2.940469    0.870763   -3.293178
     38          6           0       -1.124678   -0.126467   -3.454345
     39          1           0       -0.894014   -1.050124   -2.911359
     40          6           0       -0.721724    1.088645   -2.597358
     41          6           0       -0.410178   -0.148701   -4.812513
     42          1           0        0.672739   -0.240852   -4.685482
     43          1           0       -0.617104    0.770808   -5.368803
     44          1           0       -0.763371   -1.005439   -5.392062
     45          8           0       -1.550042    1.959589   -2.313007
     46          7           0        0.562444    1.123710   -2.213044
     47          1           0        1.227962    0.392921   -2.450802
     48          6           0        1.128879    2.196970   -1.414643
     49          1           0        0.772720    3.156417   -1.807387
     50          6           0        2.652771    2.061206   -1.579676
     51          6           0        0.703449    2.056186    0.073749
     52          1           0        1.203523    1.174199    0.478634
     53          1           0       -0.373362    1.863888    0.077233
     54          8           0        3.154823    0.997074   -1.924673
     55          6           0        0.997394    3.301718    0.924082
     56          1           0        2.013192    3.648673    0.739695
     57          1           0        0.310987    4.112811    0.670148
     58          6           0        0.939033    3.105620    2.431654
     59          7           0        1.644716    2.089176    2.919942
     60          1           0        2.310954    1.639717    2.299277
     61          1           0        1.797603    1.901642    3.922888
     62          8           0        0.279046    3.906148    3.143434
     63          7           0        3.375053    3.185349   -1.311297
     64          1           0        2.848452    3.965657   -0.938935
     65          6           0        4.731113    3.094352   -0.798365
     66          1           0        5.364931    2.618587   -1.553220
     67          6           0        4.731470    2.191901    0.466755
     68          6           0        5.258948    4.531322   -0.513957
     69          1           0        5.282496    5.066607   -1.469091
     70          1           0        6.291647    4.463887   -0.157105
     71          8           0        3.677358    1.775225    0.947947
     72          6           0        4.393984    5.251016    0.495968
     73          6           0        3.254243    5.971278    0.100931
     74          1           0        3.092617    6.184327   -0.954239
     75          6           0        4.630175    5.089196    1.866605
     76          1           0        5.519055    4.570522    2.216981
     77          6           0        2.300708    6.388799    1.033135
     78          1           0        1.395309    6.896866    0.716098
     79          6           0        3.699969    5.538822    2.797625
     80          1           0        3.877825    5.399054    3.850928
     81          8           0        1.507664    6.347843    3.326797
     82          1           0        0.804846    5.675345    3.155978
     83          6           0        2.494999    6.104305    2.386587
     84          7           0        5.931378    1.854499    0.977466
     85          1           0        6.771168    2.312407    0.650064
     86          6           0        6.037510    1.019625    2.176364
     87          1           0        5.213532    0.304723    2.125000
     88          6           0        5.928853    1.894625    3.442577
     89          6           0        7.380819    0.291536    2.180868
     90          1           0        7.443453   -0.370212    3.049650
     91          1           0        7.500238   -0.308723    1.273798
     92          1           0        8.198433    1.016065    2.252742
     93          8           0        6.720389    2.829806    3.593009
     94          7           0        4.981113    1.518424    4.322435
     95          1           0        4.261429    0.856432    4.048224
     96          6           0        4.706210    2.133741    5.621283
     97          1           0        5.536222    1.941219    6.308232
     98          6           0        3.389643    1.520479    6.179015
     99          6           0        4.475010    3.652264    5.463733
    100          1           0        3.566673    3.741681    4.861031
    101          1           0        5.301148    4.061477    4.880412
    102          8           0        3.227778    1.603569    7.421789
    103          6           0        4.318381    4.422096    6.785501
    104          1           0        5.271190    4.879931    7.076174
    105          1           0        4.059337    3.717191    7.577760
    106          6           0        3.280595    5.559863    6.713113
    107          1           0        3.620592    6.348072    6.036088
    108          1           0        3.162487    6.033025    7.696002
    109          7           0        1.960256    5.158467    6.193549
    110          1           0        1.692798    5.548277    5.289314
    111          7           0        1.486434    3.589179    7.888578
    112          1           0        1.816031    2.598988    7.861797
    113          1           0        2.120040    4.136640    8.456842
    114          7           0        0.337110    3.534247    5.891493
    115          1           0       -0.158646    2.749453    6.290548
    116          1           0        0.306164    3.662103    4.865658
    117          6           0        1.277558    4.097648    6.646866
    118          8           0        2.566089    1.092058    5.321965
 ---------------------------------------------------------------------

 SCF Done:  E(RB3LYP) =  -2837.92919840     A.U. after    1 cycles

 Alpha  occ. eigenvalues --  -19.30668 -19.26572 -19.21788 -19.21781 -19.19929
 Alpha  occ. eigenvalues --  -19.19094 -19.19049 -19.18723 -19.15335 -19.12330
 Alpha  occ. eigenvalues --  -19.11965 -14.59075 -14.48995 -14.45189 -14.43608
 Alpha  occ. eigenvalues --  -14.43279 -14.43108 -14.42699 -14.41598 -14.40180
 Alpha  occ. eigenvalues --  -14.39596 -14.39497 -10.43372 -10.40779 -10.40164
 Alpha  occ. eigenvalues --  -10.38715 -10.38388 -10.36909 -10.35988 -10.35930
 Alpha  occ. eigenvalues --  -10.35390 -10.33932 -10.32646 -10.32047 -10.32007
 Alpha  occ. eigenvalues --  -10.31032 -10.30760 -10.30254 -10.30236 -10.28841
 Alpha  occ. eigenvalues --  -10.28835 -10.28765 -10.27110 -10.26581 -10.26422
 Alpha  occ. eigenvalues --  -10.26065 -10.25718 -10.25694 -10.25662 -10.25308
 Alpha  occ. eigenvalues --  -10.25109 -10.25108 -10.24988 -10.24792 -10.24385
 Alpha  occ. eigenvalues --  -10.23568 -10.23020 -10.22050  -1.19633  -1.17784
 Alpha  occ. eigenvalues --   -1.13870  -1.12938  -1.12056  -1.11536  -1.10348
 Alpha  occ. eigenvalues --   -1.09994  -1.08859  -1.07249  -1.07105  -1.05972
 Alpha  occ. eigenvalues --   -1.05395  -1.01990  -1.00439  -1.00044  -0.99250
 Alpha  occ. eigenvalues --   -0.97308  -0.96894  -0.95760  -0.95418  -0.94333
 Alpha  occ. eigenvalues --   -0.93721  -0.91817  -0.90631  -0.87568  -0.86462
 Alpha  occ. eigenvalues --   -0.85886  -0.84756  -0.84119  -0.82587  -0.82545
 Alpha  occ. eigenvalues --   -0.80971  -0.80028  -0.79454  -0.78449  -0.77957
 Alpha  occ. eigenvalues --   -0.77216  -0.74658  -0.74358  -0.73213  -0.72831
 Alpha  occ. eigenvalues --   -0.72444  -0.72283  -0.71233  -0.70414  -0.69417
 Alpha  occ. eigenvalues --   -0.68475  -0.68014  -0.67436  -0.67070  -0.66604
 Alpha  occ. eigenvalues --   -0.65915  -0.65767  -0.65234  -0.65056  -0.64842
 Alpha  occ. eigenvalues --   -0.64498  -0.63937  -0.63240  -0.62237  -0.61997
 Alpha  occ. eigenvalues --   -0.61252  -0.60464  -0.60141  -0.59592  -0.59495
 Alpha  occ. eigenvalues --   -0.58876  -0.58747  -0.58180  -0.57456  -0.56995
 Alpha  occ. eigenvalues --   -0.56927  -0.56282  -0.55892  -0.55693  -0.55635
 Alpha  occ. eigenvalues --   -0.54938  -0.54766  -0.54056  -0.53730  -0.53566
 Alpha  occ. eigenvalues --   -0.53449  -0.53097  -0.52703  -0.52594  -0.52498
 Alpha  occ. eigenvalues --   -0.52141  -0.51878  -0.51670  -0.51363  -0.51009
 Alpha  occ. eigenvalues --   -0.50878  -0.50774  -0.50527  -0.50440  -0.49940
 Alpha  occ. eigenvalues --   -0.49796  -0.49394  -0.49121  -0.48921  -0.48556
 Alpha  occ. eigenvalues --   -0.48319  -0.48132  -0.47566  -0.47272  -0.47032
 Alpha  occ. eigenvalues --   -0.46969  -0.46796  -0.46532  -0.46352  -0.46110
 Alpha  occ. eigenvalues --   -0.45681  -0.45443  -0.45390  -0.45297  -0.45079
 Alpha  occ. eigenvalues --   -0.44846  -0.44448  -0.44216  -0.43844  -0.43822
 Alpha  occ. eigenvalues --   -0.43592  -0.43254  -0.42695  -0.42630  -0.42507
 Alpha  occ. eigenvalues --   -0.42029  -0.41681  -0.41570  -0.41446  -0.41427
 Alpha  occ. eigenvalues --   -0.40958  -0.40925  -0.40822  -0.40502  -0.40350
 Alpha  occ. eigenvalues --   -0.39446  -0.38992  -0.38545  -0.38381  -0.37735
 Alpha  occ. eigenvalues --   -0.35840  -0.35716  -0.35303  -0.34651  -0.34130
 Alpha  occ. eigenvalues --   -0.33916  -0.33507  -0.33488  -0.33025  -0.32781
 Alpha  occ. eigenvalues --   -0.32397  -0.31923  -0.31760  -0.31231  -0.29342
 Alpha  occ. eigenvalues --   -0.29290  -0.29000  -0.27757  -0.26743  -0.25924
 Alpha virt. eigenvalues --   -0.12527  -0.09977  -0.07660  -0.07296  -0.06777
 Alpha virt. eigenvalues --   -0.05785  -0.05636  -0.04936  -0.04896  -0.04757
 Alpha virt. eigenvalues --   -0.04543  -0.03658  -0.02397  -0.02178  -0.02098

 Mulliken charges:
               1
     1  N   -0.760057
     2  H    0.435167
     3  H    0.410280
     4  H    0.427583
     5  C   -0.122029
     6  H    0.225897
     7  C    0.661923
     8  C    0.098028
     9  H    0.194187
    10  O   -0.537615
    11  C   -0.474091
    12  H    0.184321
    13  H    0.155527
    14  H    0.190283
    15  O   -0.638012
    16  H    0.435421
    17  N   -0.598465
    18  H    0.371250
    19  C   -0.079450
    20  H    0.187442
    21  C    0.629315
    22  C   -0.072261
    23  H    0.141039
    24  O   -0.562520
    25  C   -0.250806
    26  H    0.120269
    27  H    0.151056
    28  C   -0.483018
    29  H    0.154642
    30  H    0.167559
    31  H    0.174944
    32  C   -0.454459
    33  H    0.156149
    34  H    0.163175
    35  H    0.150325
    36  N   -0.607367
    37  H    0.371042
    38  C   -0.052834
    39  H    0.189887
    40  C    0.631514
    41  C   -0.448213
    42  H    0.168242
    43  H    0.164742
    44  H    0.174851
    45  O   -0.550745
    46  N   -0.627802
    47  H    0.361921
    48  C   -0.054661
    49  H    0.172930
    50  C    0.639815
    51  C   -0.263266
    52  H    0.171857
    53  H    0.175810
    54  O   -0.532518
    55  C   -0.370867
    56  H    0.180820
    57  H    0.164164
    58  C    0.607477
    59  N   -0.778826
    60  H    0.389708
    61  H    0.410725
    62  O   -0.608368
    63  N   -0.609096
    64  H    0.343503
    65  C   -0.070755
    66  H    0.192354
    67  C    0.665823
    68  C   -0.383074
    69  H    0.176306
    70  H    0.167499
    71  O   -0.553768
    72  C    0.153905
    73  C   -0.239506
    74  H    0.141948
    75  C   -0.213769
    76  H    0.181030
    77  C   -0.152807
    78  H    0.148545
    79  C   -0.147906
    80  H    0.147167
    81  O   -0.702547
    82  H    0.446568
    83  C    0.317037
    84  N   -0.589630
    85  H    0.341942
    86  C   -0.052222
    87  H    0.166895
    88  C    0.645830
    89  C   -0.474117
    90  H    0.176216
    91  H    0.162422
    92  H    0.175139
    93  O   -0.557879
    94  N   -0.622957
    95  H    0.345397
    96  C   -0.007031
    97  H    0.162629
    98  C    0.575294
    99  C   -0.306463
   100  H    0.133640
   101  H    0.193649
   102  O   -0.592707
   103  C   -0.302066
   104  H    0.155867
   105  H    0.183196
   106  C   -0.175602
   107  H    0.177520
   108  H    0.167811
   109  N   -0.606921
   110  H    0.379412
   111  N   -0.745737
   112  H    0.398667
   113  H    0.343121
   114  N   -0.767031
   115  H    0.364369
   116  H    0.410622
   117  C    0.709170
   118  O   -0.609938
 Sum of Mulliken charges =   1.00000

 Dipole moment (field-independent basis, Debye):
    X=            -22.0192    Y=             -6.2504    Z=            -28.5169  Tot=             36.5667
 Quadrupole moment (field-independent basis, Debye-Ang):
   XX=           -130.6219   YY=           -270.2398   ZZ=           -130.2888
   XY=            107.9354   XZ=            171.4460   YZ=            112.6929

 Normal termination of Gaussian 16 at Sun Jul 17 00:10:11 2022.
