 Gaussian 16, Revision C.01,
 Gaussian 16:  ES64L-G16RevC.01  3-Jul-2019

 ----------------------------------------------------------------------
 # B3LYP/6-31G* empiricaldispersion=gd3bj guess=read geom=check nosymm
 integral(ultrafinegrid)
 ----------------------------------------------------------------------

 ------------------------------------------------------
 Candidate Structure: Conf:364 Charge calc in gas phase
 ------------------------------------------------------
 Structure from the checkpoint file:  "conf-364.chk"
 Charge =  1 Multiplicity = 1

                          Input orientation:
 ---------------------------------------------------------------------
 Center     Atomic      Atomic             Coordinates (Angstroms)
 Number     Number       Type             X           Y           Z
 ---------------------------------------------------------------------
      1          7           0       -1.034717    5.560707   -4.752785
      2          1           0       -2.034505    5.746566   -4.680618
      3          1           0       -0.697920    5.978892   -5.621580
      4          1           0       -0.278637    6.289660   -3.566148
      5          6           0       -0.786161    4.110303   -4.869386
      6          1           0       -1.386894    3.687974   -5.686997
      7          6           0       -1.122131    3.403860   -3.555943
      8          6           0        0.719747    3.882510   -5.200672
      9          1           0        1.276554    3.961246   -4.258081
     10          8           0       -0.712293    3.835964   -2.470586
     11          6           0        0.938056    2.506875   -5.815761
     12          1           0        0.536524    1.711494   -5.178259
     13          1           0        0.444194    2.450794   -6.791778
     14          1           0        2.006295    2.329470   -5.968191
     15          8           0        1.170086    4.875406   -6.106967
     16          1           0        1.559302    5.588616   -5.560809
     17          7           0       -1.848746    2.279097   -3.675464
     18          1           0       -2.051017    1.893788   -4.591045
     19          6           0       -2.141649    1.394711   -2.555323
     20          1           0       -1.523032    1.722434   -1.719633
     21          6           0       -1.745159   -0.021756   -2.987486
     22          6           0       -3.642748    1.488429   -2.149985
     23          1           0       -3.811887    2.560551   -1.973446
     24          8           0       -1.907125   -0.406826   -4.148322
     25          6           0       -3.957126    0.743372   -0.838976
     26          1           0       -3.650904   -0.306845   -0.916050
     27          1           0       -5.048380    0.733523   -0.724883
     28          6           0       -4.577331    1.036344   -3.279061
     29          1           0       -4.467348   -0.031833   -3.488995
     30          1           0       -4.386581    1.577978   -4.211794
     31          1           0       -5.618428    1.222908   -2.996459
     32          6           0       -3.335938    1.366822    0.414676
     33          1           0       -3.673423    0.835377    1.310488
     34          1           0       -3.632243    2.418715    0.515724
     35          1           0       -2.243946    1.320142    0.404717
     36          7           0       -1.249317   -0.774505   -1.988504
     37          1           0       -1.108124   -0.343253   -1.080942
     38          6           0       -1.023439   -2.212462   -2.066528
     39          1           0       -1.917395   -2.677195   -2.503352
     40          6           0       -0.939993   -2.655549   -0.592301
     41          6           0        0.185433   -2.552591   -2.942546
     42          1           0        0.305204   -3.636225   -3.058554
     43          1           0        1.105091   -2.127598   -2.523939
     44          1           0        0.025547   -2.125472   -3.934703
     45          8           0       -1.691802   -2.145341    0.238981
     46          7           0        0.023630   -3.544448   -0.242446
     47          1           0        0.717423   -3.800799   -0.931919
     48          6           0        0.380983   -3.750376    1.170133
     49          1           0       -0.534223   -3.607313    1.747159
     50          6           0        1.409843   -2.670750    1.585771
     51          6           0        0.917723   -5.158343    1.407262
     52          1           0        1.267249   -5.209194    2.440240
     53          1           0        1.795260   -5.331037    0.772575
     54          8           0        2.535759   -2.949470    1.987026
     55          6           0       -0.131589   -6.241690    1.160899
     56          1           0       -0.567159   -6.145379    0.157833
     57          1           0        0.341578   -7.231521    1.199714
     58          6           0       -1.257914   -6.202544    2.196527
     59          7           0       -2.257241   -7.108421    1.991241
     60          1           0       -2.189454   -7.836721    1.296370
     61          1           0       -2.985660   -7.177402    2.688256
     62          8           0       -1.274139   -5.411011    3.130081
     63          7           0        0.963374   -1.396917    1.404128
     64          1           0        0.001175   -1.252944    1.109421
     65          6           0        1.805939   -0.219639    1.418135
     66          1           0        2.130987    0.012670    2.440193
     67          6           0        0.964118    0.935773    0.859043
     68          6           0        3.071220   -0.406502    0.526379
     69          1           0        2.743127   -0.508101   -0.514243
     70          1           0        3.524738   -1.352187    0.831970
     71          8           0       -0.037834    0.703846    0.171576
     72          6           0        4.057057    0.721803    0.668248
     73          6           0        4.348679    1.579736   -0.397299
     74          1           0        3.874235    1.413162   -1.360361
     75          6           0        4.671823    0.969635    1.903316
     76          1           0        4.483121    0.303340    2.740487
     77          6           0        5.211917    2.660913   -0.242613
     78          1           0        5.406442    3.333140   -1.070506
     79          6           0        5.523884    2.057733    2.080608
     80          1           0        5.985062    2.241203    3.048384
     81          8           0        6.605368    4.015149    1.138657
     82          1           0        6.783147    4.175634    2.079122
     83          6           0        5.778027    2.904733    1.005550
     84          7           0        1.391436    2.189035    1.095242
     85          1           0        2.235586    2.373406    1.624087
     86          6           0        0.754809    3.328867    0.444808
     87          1           0        0.277752    2.959181   -0.463002
     88          6           0        1.836496    4.355787    0.097258
     89          6           0       -0.311992    3.981678    1.334965
     90          1           0       -0.798476    4.802193    0.797759
     91          1           0       -1.072447    3.241679    1.597320
     92          1           0        0.140059    4.375050    2.250556
     93          8           0        2.742721    4.621895    0.886619
     94          7           0        1.653317    4.926581   -1.118316
     95          1           0        0.794788    4.665720   -1.607861
     96          6           0        2.294231    6.157845   -1.598939
     97          1           0        2.101038    6.971114   -0.885523
     98          6           0        1.543732    6.454967   -2.911713
     99          6           0        3.798202    6.062171   -1.885612
    100          1           0        4.012083    6.856709   -2.613080
    101          1           0        3.974390    5.113227   -2.406697
    102          8           0        2.111835    6.444101   -4.000663
    103          6           0        4.740245    6.205332   -0.687226
    104          1           0        4.703311    5.321014   -0.055864
    105          1           0        4.415965    7.039883   -0.053838
    106          6           0        6.173109    6.518606   -1.129228
    107          1           0        6.874593    6.434851   -0.298752
    108          1           0        6.239260    7.541878   -1.516806
    109          7           0        6.650735    5.639550   -2.219151
    110          1           0        6.154311    5.725257   -3.097235
    111          7           0        8.271257    4.424068   -1.071835
    112          1           0        9.154419    3.935329   -1.103478
    113          1           0        7.726603    4.363949   -0.202463
    114          7           0        8.214376    4.406851   -3.389258
    115          1           0        8.817331    3.598833   -3.439353
    116          1           0        8.005731    4.887009   -4.252639
    117          6           0        7.705235    4.825309   -2.212847
    118          8           0        0.257865    6.603975   -2.719933
 ---------------------------------------------------------------------

 SCF Done:  E(RB3LYP) =  -2837.94667060     A.U. after    2 cycles

 Alpha  occ. eigenvalues --  -19.30397 -19.24122 -19.21933 -19.20833 -19.20109
 Alpha  occ. eigenvalues --  -19.19863 -19.19339 -19.18483 -19.17624 -19.17500
 Alpha  occ. eigenvalues --  -19.16003 -14.52452 -14.52163 -14.50913 -14.43936
 Alpha  occ. eigenvalues --  -14.43825 -14.43403 -14.43299 -14.43207 -14.41482
 Alpha  occ. eigenvalues --  -14.41411 -14.40393 -10.48383 -10.39719 -10.37039
 Alpha  occ. eigenvalues --  -10.36889 -10.36162 -10.35818 -10.35076 -10.34870
 Alpha  occ. eigenvalues --  -10.34564 -10.34416 -10.33740 -10.32110 -10.31481
 Alpha  occ. eigenvalues --  -10.31305 -10.30850 -10.30317 -10.29905 -10.28840
 Alpha  occ. eigenvalues --  -10.28828 -10.28702 -10.28602 -10.28406 -10.28338
 Alpha  occ. eigenvalues --  -10.28269 -10.28170 -10.27923 -10.26807 -10.25119
 Alpha  occ. eigenvalues --  -10.24933 -10.24816 -10.24614 -10.24425 -10.24233
 Alpha  occ. eigenvalues --  -10.22470 -10.22259 -10.21243  -1.17551  -1.16966
 Alpha  occ. eigenvalues --   -1.16736  -1.12248  -1.11642  -1.11004  -1.10832
 Alpha  occ. eigenvalues --   -1.09336  -1.09093  -1.08962  -1.08126  -1.07840
 Alpha  occ. eigenvalues --   -1.06065  -1.04713  -1.00385  -1.00299  -0.99991
 Alpha  occ. eigenvalues --   -0.99730  -0.98809  -0.98584  -0.98323  -0.95080
 Alpha  occ. eigenvalues --   -0.95075  -0.90437  -0.87736  -0.87048  -0.86006
 Alpha  occ. eigenvalues --   -0.85658  -0.84544  -0.84310  -0.83549  -0.83236
 Alpha  occ. eigenvalues --   -0.81365  -0.79749  -0.79354  -0.77663  -0.77565
 Alpha  occ. eigenvalues --   -0.76888  -0.75177  -0.74827  -0.74207  -0.72657
 Alpha  occ. eigenvalues --   -0.72435  -0.71911  -0.71743  -0.69472  -0.69190
 Alpha  occ. eigenvalues --   -0.68661  -0.68581  -0.67411  -0.66666  -0.66232
 Alpha  occ. eigenvalues --   -0.65985  -0.65941  -0.65848  -0.65358  -0.64688
 Alpha  occ. eigenvalues --   -0.64501  -0.64109  -0.63661  -0.63051  -0.62317
 Alpha  occ. eigenvalues --   -0.62001  -0.61340  -0.60452  -0.60266  -0.59571
 Alpha  occ. eigenvalues --   -0.59386  -0.58722  -0.58546  -0.58286  -0.57598
 Alpha  occ. eigenvalues --   -0.56748  -0.56283  -0.56057  -0.55718  -0.55472
 Alpha  occ. eigenvalues --   -0.55196  -0.55111  -0.54509  -0.54033  -0.53673
 Alpha  occ. eigenvalues --   -0.53549  -0.53361  -0.52704  -0.52465  -0.52354
 Alpha  occ. eigenvalues --   -0.52159  -0.52070  -0.51967  -0.51611  -0.51546
 Alpha  occ. eigenvalues --   -0.50771  -0.50646  -0.50311  -0.50155  -0.49842
 Alpha  occ. eigenvalues --   -0.49542  -0.49415  -0.49181  -0.48668  -0.48095
 Alpha  occ. eigenvalues --   -0.47912  -0.47550  -0.47388  -0.47047  -0.46792
 Alpha  occ. eigenvalues --   -0.46614  -0.46562  -0.46193  -0.46146  -0.45926
 Alpha  occ. eigenvalues --   -0.45767  -0.45509  -0.45202  -0.45105  -0.44908
 Alpha  occ. eigenvalues --   -0.44700  -0.44512  -0.44378  -0.44230  -0.43849
 Alpha  occ. eigenvalues --   -0.43677  -0.43625  -0.43336  -0.43183  -0.43127
 Alpha  occ. eigenvalues --   -0.42777  -0.42471  -0.42259  -0.42127  -0.41896
 Alpha  occ. eigenvalues --   -0.41224  -0.41151  -0.41093  -0.40339  -0.40192
 Alpha  occ. eigenvalues --   -0.39719  -0.39587  -0.38481  -0.37957  -0.37871
 Alpha  occ. eigenvalues --   -0.37052  -0.36470  -0.35689  -0.35078  -0.34619
 Alpha  occ. eigenvalues --   -0.34399  -0.34248  -0.33929  -0.33441  -0.33349
 Alpha  occ. eigenvalues --   -0.33163  -0.32609  -0.32328  -0.31893  -0.31544
 Alpha  occ. eigenvalues --   -0.31165  -0.30908  -0.30800  -0.30072  -0.29695
 Alpha virt. eigenvalues --   -0.12659  -0.10154  -0.08750  -0.08514  -0.07528
 Alpha virt. eigenvalues --   -0.06658  -0.06335  -0.06074  -0.05145  -0.04889
 Alpha virt. eigenvalues --   -0.04077  -0.03677  -0.03422  -0.02698  -0.02018

 Mulliken charges:
               1
     1  N   -0.800537
     2  H    0.343786
     3  H    0.352199
     4  H    0.479200
     5  C   -0.059787
     6  H    0.145457
     7  C    0.615081
     8  C    0.125200
     9  H    0.129423
    10  O   -0.552358
    11  C   -0.460505
    12  H    0.156370
    13  H    0.167054
    14  H    0.154706
    15  O   -0.660283
    16  H    0.437066
    17  N   -0.589292
    18  H    0.356336
    19  C   -0.105701
    20  H    0.205462
    21  C    0.630638
    22  C   -0.066281
    23  H    0.133554
    24  O   -0.561699
    25  C   -0.272877
    26  H    0.159766
    27  H    0.140259
    28  C   -0.459913
    29  H    0.167572
    30  H    0.130974
    31  H    0.152462
    32  C   -0.482290
    33  H    0.156118
    34  H    0.135036
    35  H    0.176943
    36  N   -0.644279
    37  H    0.417723
    38  C   -0.000630
    39  H    0.192890
    40  C    0.565440
    41  C   -0.486540
    42  H    0.150534
    43  H    0.145354
    44  H    0.202945
    45  O   -0.517081
    46  N   -0.597257
    47  H    0.337481
    48  C   -0.095567
    49  H    0.237031
    50  C    0.626445
    51  C   -0.262307
    52  H    0.191557
    53  H    0.136230
    54  O   -0.529073
    55  C   -0.381252
    56  H    0.161978
    57  H    0.168876
    58  C    0.604896
    59  N   -0.745787
    60  H    0.338192
    61  H    0.348701
    62  O   -0.502583
    63  N   -0.661233
    64  H    0.391822
    65  C    0.000029
    66  H    0.171606
    67  C    0.604585
    68  C   -0.386289
    69  H    0.150035
    70  H    0.221093
    71  O   -0.546175
    72  C    0.156676
    73  C   -0.188818
    74  H    0.140167
    75  C   -0.207619
    76  H    0.168857
    77  C   -0.157041
    78  H    0.124655
    79  C   -0.176623
    80  H    0.146030
    81  O   -0.701537
    82  H    0.433884
    83  C    0.364019
    84  N   -0.602151
    85  H    0.354394
    86  C   -0.077825
    87  H    0.210237
    88  C    0.616203
    89  C   -0.451688
    90  H    0.167936
    91  H    0.183794
    92  H    0.163117
    93  O   -0.551064
    94  N   -0.689184
    95  H    0.438790
    96  C    0.010147
    97  H    0.179632
    98  C    0.561327
    99  C   -0.286573
   100  H    0.152713
   101  H    0.139873
   102  O   -0.520189
   103  C   -0.281619
   104  H    0.219968
   105  H    0.163297
   106  C   -0.172705
   107  H    0.180800
   108  H    0.186732
   109  N   -0.590021
   110  H    0.365791
   111  N   -0.779403
   112  H    0.368491
   113  H    0.439808
   114  N   -0.761207
   115  H    0.379975
   116  H    0.381227
   117  C    0.791900
   118  O   -0.583704
 Sum of Mulliken charges =   1.00000

 Dipole moment (field-independent basis, Debye):
    X=             26.8755    Y=             15.1557    Z=            -10.8019  Tot=             32.6905
 Quadrupole moment (field-independent basis, Debye-Ang):
   XX=            -94.9519   YY=           -189.9856   ZZ=           -308.1933
   XY=            131.3337   XZ=            -41.8176   YZ=            -34.3900

 Normal termination of Gaussian 16 at Sun Jul 17 00:11:34 2022.
