 Gaussian 16, Revision C.01,
 Gaussian 16:  ES64L-G16RevC.01  3-Jul-2019

 ----------------------------------------------------------------------
 # B3LYP/6-31G** empiricaldispersion=gd3bj guess=read geom=check nosymm
  integral(ultrafinegrid)
 ----------------------------------------------------------------------

 ------------------------------------------------------
 Candidate Structure: Conf:879 Charge calc in gas phase
 ------------------------------------------------------
 Structure from the checkpoint file:  "conf-879.chk"
 Charge =  1 Multiplicity = 1

                          Input orientation:
 ---------------------------------------------------------------------
 Center     Atomic      Atomic             Coordinates (Angstroms)
 Number     Number       Type             X           Y           Z
 ---------------------------------------------------------------------
      1          7           0      -10.408498    1.776087    7.241039
      2          1           0      -11.194055    1.267483    6.831912
      3          1           0      -10.007059    1.186566    7.973415
      4          1           0      -10.752185    2.632608    7.670699
      5          6           0       -9.365944    2.053290    6.232493
      6          1           0       -9.845980    2.418268    5.315914
      7          6           0       -8.626318    0.765928    5.889873
      8          6           0       -8.372761    3.147420    6.702124
      9          1           0       -8.947751    4.078997    6.678779
     10          8           0       -8.321988   -0.057809    6.743831
     11          6           0       -7.872197    2.925083    8.125609
     12          1           0       -7.442858    1.926864    8.216994
     13          1           0       -7.091588    3.653333    8.364816
     14          1           0       -8.670205    3.029789    8.860640
     15          6           0       -7.167182    3.297798    5.768621
     16          1           0       -6.424805    2.518518    5.987115
     17          1           0       -7.433794    3.261524    4.707961
     18          1           0       -6.664963    4.252549    5.953359
     19          7           0       -8.308416    0.611981    4.572826
     20          1           0       -8.485716    1.378423    3.939118
     21          6           0       -7.192990   -0.249167    4.187017
     22          1           0       -6.722820   -0.577324    5.114583
     23          6           0       -6.220971    0.612535    3.397607
     24          6           0       -7.647823   -1.509354    3.435789
     25          1           0       -8.155752   -2.108743    4.202341
     26          8           0       -6.538996    1.140803    2.337863
     27          6           0       -6.453488   -2.302004    2.889122
     28          1           0       -5.929229   -1.672571    2.163172
     29          1           0       -6.856300   -3.151036    2.330211
     30          6           0       -8.626098   -1.237716    2.293663
     31          1           0       -8.140852   -0.649894    1.515018
     32          1           0       -9.507453   -0.700273    2.643326
     33          1           0       -8.953445   -2.184815    1.861135
     34          6           0       -5.482984   -2.827120    3.938931
     35          1           0       -4.698673   -3.423887    3.468139
     36          1           0       -4.984721   -2.018646    4.478526
     37          1           0       -5.992308   -3.459076    4.671256
     38          7           0       -5.013998    0.813981    3.975815
     39          1           0       -4.789333    0.341301    4.832851
     40          6           0       -3.931495    1.471303    3.262824
     41          1           0       -4.334851    2.393688    2.844438
     42          6           0       -3.441471    0.559229    2.138678
     43          6           0       -2.793957    1.771137    4.244169
     44          1           0       -1.989557    2.274694    3.703936
     45          1           0       -2.398190    0.824535    4.609551
     46          8           0       -3.192797   -0.627803    2.329150
     47          6           0       -3.276627    2.613736    5.390587
     48          6           0       -3.567904    3.961891    5.191570
     49          1           0       -3.406077    4.394326    4.210598
     50          6           0       -3.522945    2.052600    6.636357
     51          1           0       -3.314667    1.001896    6.804027
     52          6           0       -4.065143    4.743105    6.230869
     53          1           0       -4.297510    5.787821    6.052433
     54          6           0       -4.046053    2.823754    7.671475
     55          1           0       -4.268954    2.361539    8.626691
     56          6           0       -4.317473    4.170729    7.468204
     57          1           0       -4.756704    4.764034    8.264447
     58          7           0       -3.321336    1.148725    0.919419
     59          1           0       -3.287576    2.152368    0.874882
     60          6           0       -2.664410    0.435144   -0.162891
     61          1           0       -2.849800   -0.622159    0.023252
     62          6           0       -1.175319    0.748130   -0.108599
     63          6           0       -3.234696    0.868499   -1.507326
     64          1           0       -3.121750    1.954035   -1.575851
     65          1           0       -4.304262    0.650487   -1.506534
     66          8           0       -0.763016    1.876950   -0.333542
     67          6           0       -2.582493    0.226372   -2.735203
     68          1           0       -1.510719    0.455700   -2.697278
     69          6           0       -2.755788   -1.289182   -2.760120
     70          1           0       -3.816374   -1.545500   -2.837401
     71          1           0       -2.350438   -1.774077   -1.869691
     72          1           0       -2.237701   -1.713936   -3.624475
     73          6           0       -3.165038    0.848522   -4.002776
     74          1           0       -4.239874    0.660930   -4.055092
     75          1           0       -2.701187    0.422624   -4.894921
     76          1           0       -3.002491    1.927953   -4.020695
     77          7           0       -0.368198   -0.289813    0.237435
     78          1           0       -0.767696   -1.210779    0.164277
     79          6           0        1.062181   -0.186428    0.005986
     80          1           0        1.315739    0.859353    0.171608
     81          6           0        1.395221   -0.547990   -1.448185
     82          6           0        1.854664   -1.051001    0.984188
     83          1           0        1.743281   -0.634886    1.984893
     84          1           0        2.913501   -0.973342    0.729284
     85          8           0        0.738591   -1.343413   -2.108508
     86          6           0        1.433888   -2.516849    0.973258
     87          1           0        0.450771   -2.659690    1.431148
     88          1           0        1.358423   -2.894949   -0.048070
     89          6           0        2.409932   -3.390605    1.718568
     90          8           0        3.494458   -3.059169    2.125831
     91          8           0        1.930435   -4.646662    1.875630
     92          7           0        2.495661    0.086849   -1.946529
     93          1           0        3.142294    0.503635   -1.295999
     94          6           0        3.056697   -0.316287   -3.225906
     95          1           0        2.318429   -0.931654   -3.730458
     96          6           0        4.323576   -1.117275   -2.947074
     97          6           0        3.408898    0.902425   -4.086012
     98          1           0        2.497391    1.448257   -4.322718
     99          1           0        4.089706    1.554291   -3.532714
    100          8           0        5.266781   -0.602769   -2.327957
    101          6           0        4.033315    0.447588   -5.399627
    102          7           0        5.378224    0.241950   -5.346635
    103          1           0        5.753599   -0.335537   -6.085527
    104          1           0        5.822592    0.172129   -4.444162
    105          8           0        3.366564    0.282022   -6.403875
    106          7           0        4.331594   -2.380740   -3.445505
    107          1           0        3.701796   -2.599234   -4.198150
    108          6           0        5.537623   -3.187920   -3.332988
    109          1           0        5.997964   -2.915739   -2.383696
    110          6           0        6.495333   -2.876062   -4.487462
    111          6           0        5.163641   -4.674956   -3.346487
    112          1           0        4.357082   -4.808699   -2.625534
    113          1           0        4.779099   -4.915498   -4.339767
    114          8           0        6.111762   -2.888508   -5.664852
    115          6           0        6.321740   -5.579151   -3.017031
    116          6           0        6.829247   -6.462779   -3.970836
    117          1           0        6.377370   -6.513588   -4.957748
    118          6           0        6.935500   -5.534650   -1.763388
    119          1           0        6.544013   -4.855945   -1.012350
    120          6           0        7.919659   -7.280603   -3.688427
    121          1           0        8.319328   -7.957050   -4.432986
    122          6           0        8.029985   -6.343230   -1.466331
    123          1           0        8.489667   -6.290930   -0.485586
    124          8           0        9.606025   -8.020457   -2.219456
    125          1           0        9.921380   -7.890282   -1.321553
    126          6           0        8.527446   -7.211601   -2.436926
    127          7           0        7.777650   -2.593289   -4.096089
    128          1           0        8.074015   -2.917995   -3.188634
    129          6           0        8.825852   -2.504153   -5.084825
    130          1           0        8.374744   -2.218364   -6.033668
    131          6           0        9.466848   -3.935138   -5.220962
    132          6           0        9.944513   -1.579354   -4.667254
    133          1           0        9.565902   -0.567933   -4.534728
    134          1           0       10.327649   -1.929937   -3.701317
    135          8           0        9.261568   -4.518791   -6.291693
    136          6           0       11.049468   -1.628293   -5.714481
    137          1           0       11.238725   -2.677040   -5.955997
    138          1           0       10.710084   -1.149014   -6.636293
    139          6           0       12.328144   -0.963019   -5.248925
    140          1           0       12.663996   -1.429637   -4.319966
    141          1           0       13.121220   -1.099342   -5.993140
    142          7           0       12.079874    0.474401   -5.007909
    143          1           0       11.449822    0.902689   -5.669531
    144          7           0       14.141184    0.799384   -3.959955
    145          1           0       14.931782    1.418155   -3.865917
    146          1           0       14.375088   -0.156822   -4.178700
    147          7           0       12.812347    2.637331   -4.563281
    148          1           0       13.332612    3.176878   -3.885590
    149          1           0       11.845241    2.927856   -4.641668
    150          6           0       13.018674    1.294565   -4.520903
    151          8           0       10.080916   -4.315733   -4.214971
    152          1           0        2.619613   -5.136803    2.343415
 ---------------------------------------------------------------------

 SCF Done:  E(RB3LYP) =  -3586.96782686     A.U. after    1 cycles

 Alpha  occ. eigenvalues --  -19.26113 -19.23282 -19.20793 -19.18435 -19.17944
 Alpha  occ. eigenvalues --  -19.17138 -19.16634 -19.16315 -19.15119 -19.12418
 Alpha  occ. eigenvalues --  -19.11014 -19.01898 -19.01302 -14.64202 -14.50472
 Alpha  occ. eigenvalues --  -14.50284 -14.49465 -14.49109 -14.45457 -14.42688
 Alpha  occ. eigenvalues --  -14.40995 -14.40369 -14.39075 -14.36023 -14.35074
 Alpha  occ. eigenvalues --  -10.46111 -10.43273 -10.41493 -10.37865 -10.36047
 Alpha  occ. eigenvalues --  -10.35518 -10.34865 -10.33391 -10.33141 -10.32766
 Alpha  occ. eigenvalues --  -10.31932 -10.31920 -10.30941 -10.30934 -10.29997
 Alpha  occ. eigenvalues --  -10.29735 -10.28404 -10.28051 -10.28040 -10.27981
 Alpha  occ. eigenvalues --  -10.27934 -10.27874 -10.27755 -10.27677 -10.27661
 Alpha  occ. eigenvalues --  -10.27505 -10.27138 -10.26760 -10.24648 -10.24613
 Alpha  occ. eigenvalues --  -10.24277 -10.24263 -10.24161 -10.24082 -10.23668
 Alpha  occ. eigenvalues --  -10.22663 -10.22590 -10.22236 -10.21949 -10.20439
 Alpha  occ. eigenvalues --  -10.20409 -10.19928 -10.19914 -10.19480 -10.18899
 Alpha  occ. eigenvalues --  -10.18604 -10.18591 -10.18565 -10.18025 -10.17347
 Alpha  occ. eigenvalues --   -1.20196  -1.17223  -1.14845  -1.14642  -1.13266
 Alpha  occ. eigenvalues --   -1.10544  -1.09122  -1.08195  -1.06646  -1.05632
 Alpha  occ. eigenvalues --   -1.05488  -1.05376  -1.04557  -1.03722  -1.03603
 Alpha  occ. eigenvalues --   -1.02332  -1.02102  -0.99227  -0.97875  -0.96940
 Alpha  occ. eigenvalues --   -0.96574  -0.96346  -0.95383  -0.94916  -0.91523
 Alpha  occ. eigenvalues --   -0.91096  -0.90549  -0.88281  -0.87623  -0.87169
 Alpha  occ. eigenvalues --   -0.86217  -0.85705  -0.85280  -0.85128  -0.83522
 Alpha  occ. eigenvalues --   -0.83262  -0.82192  -0.81741  -0.81311  -0.79933
 Alpha  occ. eigenvalues --   -0.79467  -0.79001  -0.78139  -0.78050  -0.77610
 Alpha  occ. eigenvalues --   -0.76855  -0.75794  -0.74309  -0.74163  -0.73667
 Alpha  occ. eigenvalues --   -0.72655  -0.72000  -0.71660  -0.71555  -0.70983
 Alpha  occ. eigenvalues --   -0.70634  -0.70109  -0.69622  -0.69415  -0.69410
 Alpha  occ. eigenvalues --   -0.68128  -0.67611  -0.67341  -0.67125  -0.65816
 Alpha  occ. eigenvalues --   -0.65084  -0.64680  -0.64127  -0.63622  -0.63275
 Alpha  occ. eigenvalues --   -0.62499  -0.62362  -0.62225  -0.62040  -0.61847
 Alpha  occ. eigenvalues --   -0.61722  -0.61033  -0.60874  -0.60458  -0.59659
 Alpha  occ. eigenvalues --   -0.59399  -0.58862  -0.58493  -0.58352  -0.57820
 Alpha  occ. eigenvalues --   -0.57445  -0.57405  -0.57001  -0.56205  -0.55770
 Alpha  occ. eigenvalues --   -0.55629  -0.55329  -0.54841  -0.54252  -0.54130
 Alpha  occ. eigenvalues --   -0.53977  -0.53837  -0.53566  -0.53441  -0.53106
 Alpha  occ. eigenvalues --   -0.52582  -0.52534  -0.52446  -0.52050  -0.52014
 Alpha  occ. eigenvalues --   -0.51762  -0.51441  -0.51012  -0.50846  -0.50772
 Alpha  occ. eigenvalues --   -0.50489  -0.50275  -0.49921  -0.49779  -0.49502
 Alpha  occ. eigenvalues --   -0.49193  -0.49071  -0.48872  -0.48583  -0.48497
 Alpha  occ. eigenvalues --   -0.48220  -0.47619  -0.47580  -0.47426  -0.47268
 Alpha  occ. eigenvalues --   -0.47254  -0.47015  -0.46901  -0.46824  -0.46333
 Alpha  occ. eigenvalues --   -0.45981  -0.45700  -0.45649  -0.45296  -0.45044
 Alpha  occ. eigenvalues --   -0.44947  -0.44588  -0.44336  -0.44137  -0.43865
 Alpha  occ. eigenvalues --   -0.43692  -0.43413  -0.43387  -0.43240  -0.42878
 Alpha  occ. eigenvalues --   -0.42623  -0.42599  -0.42282  -0.42239  -0.41999
 Alpha  occ. eigenvalues --   -0.41650  -0.41479  -0.41368  -0.41204  -0.41135
 Alpha  occ. eigenvalues --   -0.41018  -0.40663  -0.40289  -0.40237  -0.40151
 Alpha  occ. eigenvalues --   -0.40125  -0.39952  -0.39872  -0.39795  -0.39672
 Alpha  occ. eigenvalues --   -0.39217  -0.39137  -0.38439  -0.38254  -0.38034
 Alpha  occ. eigenvalues --   -0.38008  -0.37625  -0.37076  -0.36906  -0.36440
 Alpha  occ. eigenvalues --   -0.36319  -0.35853  -0.35831  -0.35663  -0.35588
 Alpha  occ. eigenvalues --   -0.35186  -0.34169  -0.33947  -0.33933  -0.33451
 Alpha  occ. eigenvalues --   -0.33205  -0.33110  -0.32421  -0.32122  -0.31880
 Alpha  occ. eigenvalues --   -0.31860  -0.31510  -0.31346  -0.31080  -0.29887
 Alpha  occ. eigenvalues --   -0.29436  -0.29219  -0.28220  -0.27948  -0.25952
 Alpha  occ. eigenvalues --   -0.25768  -0.24461  -0.24414  -0.21158  -0.17794
 Alpha  occ. eigenvalues --   -0.16607  -0.15270
 Alpha virt. eigenvalues --   -0.14245  -0.12578  -0.11810  -0.09584  -0.09227
 Alpha virt. eigenvalues --   -0.08304  -0.07300  -0.07053  -0.06435  -0.04985
 Alpha virt. eigenvalues --   -0.04465  -0.03247  -0.03064  -0.02558  -0.02364

 Mulliken charges:
               1
     1  N   -0.519099
     2  H    0.370176
     3  H    0.367688
     4  H    0.360763
     5  C   -0.105928
     6  H    0.166337
     7  C    0.604573
     8  C   -0.081592
     9  H    0.120649
    10  O   -0.510335
    11  C   -0.346908
    12  H    0.154026
    13  H    0.155265
    14  H    0.081813
    15  C   -0.331033
    16  H    0.144615
    17  H    0.111310
    18  H    0.143925
    19  N   -0.505973
    20  H    0.282773
    21  C   -0.012921
    22  H    0.132420
    23  C    0.608091
    24  C   -0.049708
    25  H    0.098217
    26  O   -0.534878
    27  C   -0.193724
    28  H    0.129972
    29  H    0.109357
    30  C   -0.325533
    31  H    0.144104
    32  H    0.077162
    33  H    0.119160
    34  C   -0.314891
    35  H    0.130703
    36  H    0.080997
    37  H    0.103164
    38  N   -0.511701
    39  H    0.269735
    40  C   -0.001479
    41  H    0.125503
    42  C    0.628589
    43  C   -0.291465
    44  H    0.143012
    45  H    0.137022
    46  O   -0.538648
    47  C    0.139520
    48  C   -0.113489
    49  H    0.096499
    50  C   -0.145331
    51  H    0.093434
    52  C   -0.095040
    53  H    0.102029
    54  C   -0.089224
    55  H    0.096807
    56  C   -0.094776
    57  H    0.092946
    58  N   -0.510650
    59  H    0.268832
    60  C   -0.027182
    61  H    0.128186
    62  C    0.618277
    63  C   -0.160306
    64  H    0.102477
    65  H    0.098353
    66  O   -0.537994
    67  C   -0.081402
    68  H    0.118090
    69  C   -0.299622
    70  H    0.091706
    71  H    0.088302
    72  H    0.122121
    73  C   -0.310837
    74  H    0.096226
    75  H    0.113141
    76  H    0.101991
    77  N   -0.510679
    78  H    0.280804
    79  C   -0.059783
    80  H    0.141808
    81  C    0.616115
    82  C   -0.172166
    83  H    0.120912
    84  H    0.134730
    85  O   -0.531177
    86  C   -0.288270
    87  H    0.137202
    88  H    0.170801
    89  C    0.571540
    90  O   -0.457613
    91  O   -0.483970
    92  N   -0.512821
    93  H    0.272434
    94  C   -0.011110
    95  H    0.150976
    96  C    0.589788
    97  C   -0.236732
    98  H    0.136638
    99  H    0.110331
   100  O   -0.564063
   101  C    0.522960
   102  N   -0.599701
   103  H    0.293793
   104  H    0.277757
   105  O   -0.498595
   106  N   -0.503194
   107  H    0.285337
   108  C   -0.017117
   109  H    0.122047
   110  C    0.614298
   111  C   -0.253698
   112  H    0.100517
   113  H    0.120482
   114  O   -0.550390
   115  C    0.110203
   116  C   -0.111386
   117  H    0.098723
   118  C   -0.142932
   119  H    0.066203
   120  C   -0.070261
   121  H    0.103409
   122  C   -0.122718
   123  H    0.060073
   124  O   -0.557712
   125  H    0.308907
   126  C    0.344860
   127  N   -0.520572
   128  H    0.265465
   129  C    0.008424
   130  H    0.104613
   131  C    0.530519
   132  C   -0.165393
   133  H    0.043160
   134  H    0.106045
   135  O   -0.586878
   136  C   -0.234828
   137  H    0.190940
   138  H    0.099835
   139  C   -0.103562
   140  H    0.158599
   141  H    0.135082
   142  N   -0.487874
   143  H    0.303348
   144  N   -0.590217
   145  H    0.311840
   146  H    0.325119
   147  N   -0.601463
   148  H    0.307427
   149  H    0.315604
   150  C    0.739786
   151  O   -0.615962
   152  H    0.324992
 Sum of Mulliken charges =   1.00000

 Dipole moment (field-independent basis, Debye):
    X=            -20.2593    Y=             27.6571    Z=             35.3708  Tot=             49.2590
 Quadrupole moment (field-independent basis, Debye-Ang):
   XX=            385.5684   YY=           -449.6713   ZZ=           -283.1192
   XY=             97.8751   XZ=           -343.8260   YZ=            -29.0830

 Normal termination of Gaussian 16 at Thu Sep  8 08:44:35 2022.
