 Gaussian 16, Revision C.01,
 Gaussian 16:  ES64L-G16RevC.01  3-Jul-2019

 ----------------------------------------------------------------------
 # B3LYP/6-31G** empiricaldispersion=gd3bj guess=read geom=check nosymm
  integral(ultrafinegrid)
 ----------------------------------------------------------------------

 ------------------------------------------------------
 Candidate Structure: Conf:797 Charge calc in gas phase
 ------------------------------------------------------
 Structure from the checkpoint file:  "conf-797.chk"
 Charge =  1 Multiplicity = 1

                          Input orientation:
 ---------------------------------------------------------------------
 Center     Atomic      Atomic             Coordinates (Angstroms)
 Number     Number       Type             X           Y           Z
 ---------------------------------------------------------------------
      1          7           0      -10.805898   -0.196990    1.755897
      2          1           0      -11.370121    0.012831    0.931175
      3          1           0      -10.176650   -1.049166    1.555190
      4          1           0      -11.427721   -0.345980    2.551188
      5          6           0       -9.737332    0.839274    2.028790
      6          1           0       -9.981453    1.751991    1.479733
      7          6           0       -8.488056    0.131145    1.438979
      8          6           0       -9.645664    1.130252    3.545914
      9          1           0       -9.397728    0.180528    4.040333
     10          8           0       -8.581281   -1.098047    1.262339
     11          6           0       -8.534089    2.144866    3.851953
     12          1           0       -8.707578    3.089144    3.323015
     13          1           0       -8.537416    2.368858    4.921080
     14          1           0       -7.536285    1.787951    3.595523
     15          6           0      -10.987073    1.649393    4.088437
     16          1           0      -11.276269    2.581599    3.591892
     17          1           0      -11.819200    0.941547    3.987235
     18          1           0      -10.895119    1.855982    5.156945
     19          7           0       -7.435875    0.876501    1.150306
     20          1           0       -7.379481    1.850955    1.444129
     21          6           0       -6.124389    0.353338    0.757166
     22          1           0       -6.094731   -0.711716    1.003988
     23          6           0       -5.145103    1.153888    1.634802
     24          6           0       -5.869446    0.541262   -0.765158
     25          1           0       -5.915360    1.621594   -0.960834
     26          8           0       -5.478541    2.265035    2.059287
     27          6           0       -6.979680   -0.150847   -1.578071
     28          1           0       -7.955007    0.196422   -1.219177
     29          1           0       -6.947178   -1.230300   -1.382216
     30          6           0       -4.470529    0.043784   -1.148949
     31          1           0       -4.327991   -1.005379   -0.859915
     32          1           0       -3.693515    0.656942   -0.692965
     33          1           0       -4.332564    0.099913   -2.230080
     34          6           0       -6.900635    0.111620   -3.084170
     35          1           0       -7.769103   -0.314909   -3.594290
     36          1           0       -6.882010    1.185991   -3.297442
     37          1           0       -6.009972   -0.333139   -3.534407
     38          7           0       -3.969780    0.569826    1.930226
     39          1           0       -3.692718   -0.262695    1.425566
     40          6           0       -2.901890    1.345280    2.533936
     41          1           0       -3.305050    1.817872    3.434872
     42          6           0       -2.477843    2.489055    1.585518
     43          6           0       -1.730583    0.428328    2.949914
     44          1           0       -2.009366   -0.067634    3.883960
     45          1           0       -0.863999    1.053754    3.188406
     46          8           0       -2.711735    2.464806    0.377379
     47          6           0       -1.323314   -0.637056    1.948522
     48          6           0       -1.046682   -1.931221    2.413862
     49          1           0       -1.161400   -2.150026    3.472015
     50          6           0       -1.175300   -0.377858    0.576867
     51          1           0       -1.386694    0.609581    0.183554
     52          6           0       -0.618095   -2.933903    1.542108
     53          1           0       -0.407038   -3.927464    1.926167
     54          6           0       -0.769904   -1.387614   -0.298211
     55          1           0       -0.663714   -1.177398   -1.356922
     56          6           0       -0.478950   -2.664477    0.178904
     57          1           0       -0.142371   -3.433414   -0.508175
     58          7           0       -1.826487    3.498235    2.199610
     59          1           0       -1.618121    3.449544    3.188764
     60          6           0       -1.243791    4.631093    1.481152
     61          1           0       -1.389138    4.421326    0.420766
     62          6           0        0.242935    4.615131    1.855696
     63          6           0       -1.909118    5.954083    1.875815
     64          1           0       -1.444989    6.754797    1.284539
     65          1           0       -1.657316    6.155859    2.923187
     66          8           0        0.593623    4.781226    3.021780
     67          6           0       -3.433824    5.986862    1.680685
     68          1           0       -3.866088    5.170641    2.275277
     69          6           0       -3.992370    7.312462    2.211488
     70          1           0       -3.597831    8.160129    1.639136
     71          1           0       -3.727000    7.468355    3.262367
     72          1           0       -5.083814    7.338811    2.131033
     73          6           0       -3.841013    5.764330    0.218123
     74          1           0       -3.374887    6.512699   -0.434609
     75          1           0       -4.925963    5.860292    0.105203
     76          1           0       -3.559704    4.769597   -0.136992
     77          7           0        1.092331    4.328015    0.842825
     78          1           0        0.758706    4.174508   -0.102152
     79          6           0        2.499073    4.036656    1.042813
     80          1           0        2.991877    4.888151    1.525724
     81          6           0        3.078177    3.796591   -0.356796
     82          6           0        2.692881    2.779936    1.929865
     83          1           0        2.157773    2.953946    2.864543
     84          1           0        3.753595    2.672262    2.183684
     85          8           0        2.329919    3.642032   -1.327077
     86          6           0        2.182630    1.508839    1.250189
     87          1           0        1.242225    1.721349    0.722995
     88          1           0        2.877602    1.139598    0.494755
     89          6           0        1.848726    0.398525    2.213056
     90          8           0        1.417202    0.545311    3.338584
     91          8           0        2.029035   -0.812971    1.647819
     92          7           0        4.424101    3.682211   -0.452801
     93          1           0        4.972030    3.686092    0.396668
     94          6           0        5.057204    3.197000   -1.681487
     95          1           0        4.465106    3.580211   -2.516684
     96          6           0        5.022031    1.655921   -1.773329
     97          6           0        6.490134    3.696975   -1.825515
     98          1           0        6.498498    4.790058   -1.764505
     99          1           0        7.120743    3.300624   -1.024669
    100          8           0        6.046443    0.999136   -1.926499
    101          6           0        7.040740    3.305049   -3.196178
    102          7           0        8.318519    2.853697   -3.213749
    103          1           0        8.663815    2.497825   -4.093548
    104          1           0        8.714568    2.454577   -2.376825
    105          8           0        6.374043    3.467512   -4.217556
    106          7           0        3.773927    1.118238   -1.684889
    107          1           0        3.024933    1.779518   -1.873233
    108          6           0        3.531928   -0.220876   -2.212587
    109          1           0        4.209163   -0.921711   -1.720102
    110          6           0        3.842513   -0.162499   -3.721114
    111          6           0        2.066005   -0.629310   -1.944904
    112          1           0        1.935130   -0.782478   -0.871094
    113          1           0        1.416096    0.198977   -2.252549
    114          8           0        3.510090    0.856946   -4.344355
    115          6           0        1.761075   -1.866534   -2.747485
    116          6           0        1.325887   -1.740459   -4.073428
    117          1           0        0.997455   -0.769086   -4.433679
    118          6           0        2.188044   -3.124363   -2.302324
    119          1           0        2.516588   -3.240643   -1.271663
    120          6           0        1.427225   -2.803412   -4.960621
    121          1           0        1.166020   -2.684573   -6.006671
    122          6           0        2.285913   -4.200275   -3.183951
    123          1           0        2.681495   -5.158472   -2.864344
    124          8           0        2.276366   -4.996982   -5.433914
    125          1           0        2.915359   -4.567941   -6.056366
    126          6           0        1.981273   -4.020503   -4.538818
    127          7           0        4.516805   -1.194973   -4.260440
    128          1           0        4.573006   -2.075648   -3.765409
    129          6           0        4.956289   -1.145754   -5.646469
    130          1           0        4.613477   -0.174910   -5.956040
    131          6           0        4.299102   -2.177949   -6.589952
    132          6           0        6.497262   -1.197091   -5.737396
    133          1           0        6.869778   -1.912636   -4.998728
    134          1           0        6.790307   -1.593164   -6.716903
    135          8           0        3.964129   -1.714579   -7.727026
    136          6           0        7.125916    0.188414   -5.513305
    137          1           0        6.559728    0.721086   -4.743108
    138          1           0        8.149554    0.090441   -5.130336
    139          6           0        7.215336    1.037053   -6.798793
    140          1           0        7.462893    2.075333   -6.556477
    141          1           0        8.023097    0.664889   -7.433951
    142          7           0        6.016253    1.018219   -7.649226
    143          1           0        5.944985    0.247577   -8.302760
    144          7           0        4.716730    2.499940   -6.376596
    145          1           0        3.967716    2.373796   -5.701786
    146          1           0        5.556620    2.859274   -5.932545
    147          7           0        3.728970    0.917301   -7.787608
    148          1           0        2.844964    1.309551   -7.493657
    149          1           0        3.768051   -0.159574   -7.881086
    150          6           0        4.813917    1.487727   -7.258167
    151          8           0        4.223427   -3.353632   -6.181901
    152          1           0        1.629524   -1.475140    2.238817
 ---------------------------------------------------------------------

 SCF Done:  E(RB3LYP) =  -3587.13283167     A.U. after    1 cycles

 Alpha  occ. eigenvalues --  -19.27053 -19.25641 -19.22058 -19.20954 -19.20073
 Alpha  occ. eigenvalues --  -19.19706 -19.19227 -19.18915 -19.18252 -19.16482
 Alpha  occ. eigenvalues --  -19.15725 -19.11998 -19.11370 -14.59169 -14.49537
 Alpha  occ. eigenvalues --  -14.45588 -14.45350 -14.44079 -14.43093 -14.43025
 Alpha  occ. eigenvalues --  -14.42714 -14.41404 -14.41170 -14.40216 -14.39904
 Alpha  occ. eigenvalues --  -10.43596 -10.40470 -10.38832 -10.38279 -10.37865
 Alpha  occ. eigenvalues --  -10.37764 -10.36801 -10.36782 -10.35435 -10.35290
 Alpha  occ. eigenvalues --  -10.34618 -10.33974 -10.33363 -10.32180 -10.31463
 Alpha  occ. eigenvalues --  -10.31376 -10.31123 -10.29908 -10.29776 -10.29656
 Alpha  occ. eigenvalues --  -10.28976 -10.28543 -10.28434 -10.27514 -10.27390
 Alpha  occ. eigenvalues --  -10.27202 -10.26587 -10.26359 -10.26310 -10.26081
 Alpha  occ. eigenvalues --  -10.26040 -10.25982 -10.25614 -10.25533 -10.25442
 Alpha  occ. eigenvalues --  -10.24942 -10.24750 -10.24643 -10.24479 -10.24458
 Alpha  occ. eigenvalues --  -10.24136 -10.23955 -10.23121 -10.22681 -10.22569
 Alpha  occ. eigenvalues --  -10.22443 -10.22340 -10.22010 -10.21344 -10.20939
 Alpha  occ. eigenvalues --   -1.19606  -1.16567  -1.14220  -1.13204  -1.13088
 Alpha  occ. eigenvalues --   -1.11624  -1.11033  -1.10377  -1.10181  -1.08122
 Alpha  occ. eigenvalues --   -1.07557  -1.07075  -1.06329  -1.05104  -1.04306
 Alpha  occ. eigenvalues --   -1.02417  -1.01609  -1.00496  -0.99773  -0.98493
 Alpha  occ. eigenvalues --   -0.97732  -0.97035  -0.96515  -0.96229  -0.95327
 Alpha  occ. eigenvalues --   -0.93984  -0.92745  -0.90869  -0.88784  -0.88260
 Alpha  occ. eigenvalues --   -0.87478  -0.86653  -0.86369  -0.85850  -0.84467
 Alpha  occ. eigenvalues --   -0.83252  -0.82928  -0.82555  -0.81547  -0.81362
 Alpha  occ. eigenvalues --   -0.80779  -0.79473  -0.78981  -0.78655  -0.77623
 Alpha  occ. eigenvalues --   -0.76869  -0.74764  -0.74344  -0.73943  -0.73762
 Alpha  occ. eigenvalues --   -0.73503  -0.72922  -0.72466  -0.72294  -0.71947
 Alpha  occ. eigenvalues --   -0.70360  -0.69889  -0.69380  -0.68782  -0.68176
 Alpha  occ. eigenvalues --   -0.67733  -0.67357  -0.66846  -0.66453  -0.66321
 Alpha  occ. eigenvalues --   -0.65956  -0.65413  -0.64770  -0.64442  -0.64304
 Alpha  occ. eigenvalues --   -0.64251  -0.63529  -0.63309  -0.63002  -0.62690
 Alpha  occ. eigenvalues --   -0.62593  -0.61890  -0.61012  -0.60730  -0.60320
 Alpha  occ. eigenvalues --   -0.59772  -0.59509  -0.58976  -0.58737  -0.58525
 Alpha  occ. eigenvalues --   -0.57925  -0.57648  -0.57098  -0.56859  -0.56645
 Alpha  occ. eigenvalues --   -0.56256  -0.56000  -0.55754  -0.55636  -0.55358
 Alpha  occ. eigenvalues --   -0.54774  -0.54642  -0.54594  -0.54450  -0.54176
 Alpha  occ. eigenvalues --   -0.53956  -0.53528  -0.53391  -0.52971  -0.52841
 Alpha  occ. eigenvalues --   -0.52593  -0.52463  -0.52404  -0.52109  -0.51916
 Alpha  occ. eigenvalues --   -0.51539  -0.51340  -0.50960  -0.50924  -0.50706
 Alpha  occ. eigenvalues --   -0.50499  -0.50192  -0.50073  -0.49872  -0.49742
 Alpha  occ. eigenvalues --   -0.49494  -0.49111  -0.48944  -0.48701  -0.48510
 Alpha  occ. eigenvalues --   -0.48386  -0.48260  -0.48060  -0.47995  -0.47783
 Alpha  occ. eigenvalues --   -0.47606  -0.47507  -0.47299  -0.47207  -0.47056
 Alpha  occ. eigenvalues --   -0.46862  -0.46483  -0.46470  -0.46335  -0.46197
 Alpha  occ. eigenvalues --   -0.46068  -0.45786  -0.45431  -0.45382  -0.45222
 Alpha  occ. eigenvalues --   -0.45175  -0.44936  -0.44857  -0.44536  -0.44098
 Alpha  occ. eigenvalues --   -0.44006  -0.43909  -0.43812  -0.43403  -0.43379
 Alpha  occ. eigenvalues --   -0.42926  -0.42869  -0.42777  -0.42519  -0.42403
 Alpha  occ. eigenvalues --   -0.42278  -0.41913  -0.41849  -0.41695  -0.41606
 Alpha  occ. eigenvalues --   -0.41156  -0.40877  -0.40760  -0.40617  -0.40502
 Alpha  occ. eigenvalues --   -0.40079  -0.39581  -0.39189  -0.38867  -0.38593
 Alpha  occ. eigenvalues --   -0.38194  -0.38051  -0.37857  -0.37788  -0.37635
 Alpha  occ. eigenvalues --   -0.37164  -0.36413  -0.36363  -0.36010  -0.35724
 Alpha  occ. eigenvalues --   -0.34828  -0.34657  -0.34106  -0.33981  -0.33804
 Alpha  occ. eigenvalues --   -0.33152  -0.33047  -0.32941  -0.32732  -0.32451
 Alpha  occ. eigenvalues --   -0.32122  -0.31528  -0.31466  -0.31175  -0.30875
 Alpha  occ. eigenvalues --   -0.30445  -0.30056  -0.28350  -0.27292  -0.26166
 Alpha  occ. eigenvalues --   -0.25441  -0.24422
 Alpha virt. eigenvalues --   -0.12589  -0.10744  -0.08278  -0.07920  -0.07544
 Alpha virt. eigenvalues --   -0.07236  -0.06465  -0.06277  -0.05380  -0.05278
 Alpha virt. eigenvalues --   -0.04962  -0.04441  -0.04299  -0.03787  -0.03593

 Mulliken charges:
               1
     1  N   -0.558866
     2  H    0.349660
     3  H    0.375343
     4  H    0.339036
     5  C   -0.075148
     6  H    0.165057
     7  C    0.635553
     8  C   -0.085550
     9  H    0.129107
    10  O   -0.546898
    11  C   -0.342544
    12  H    0.124884
    13  H    0.142832
    14  H    0.147381
    15  C   -0.334795
    16  H    0.136080
    17  H    0.094474
    18  H    0.158777
    19  N   -0.503062
    20  H    0.302339
    21  C   -0.054409
    22  H    0.147032
    23  C    0.638777
    24  C   -0.034087
    25  H    0.107938
    26  O   -0.554698
    27  C   -0.165172
    28  H    0.067554
    29  H    0.109020
    30  C   -0.366022
    31  H    0.101343
    32  H    0.160023
    33  H    0.124302
    34  C   -0.326933
    35  H    0.110501
    36  H    0.110880
    37  H    0.125038
    38  N   -0.512962
    39  H    0.282863
    40  C   -0.037566
    41  H    0.141632
    42  C    0.643237
    43  C   -0.251403
    44  H    0.119954
    45  H    0.159890
    46  O   -0.540058
    47  C    0.072903
    48  C   -0.147322
    49  H    0.095024
    50  C   -0.155758
    51  H    0.116911
    52  C   -0.111186
    53  H    0.104075
    54  C   -0.087806
    55  H    0.114101
    56  C   -0.082794
    57  H    0.119984
    58  N   -0.512146
    59  H    0.281731
    60  C   -0.033619
    61  H    0.136185
    62  C    0.615316
    63  C   -0.160186
    64  H    0.103625
    65  H    0.116079
    66  O   -0.536999
    67  C   -0.063549
    68  H    0.095083
    69  C   -0.309328
    70  H    0.106291
    71  H    0.101840
    72  H    0.095922
    73  C   -0.327081
    74  H    0.097642
    75  H    0.091629
    76  H    0.127824
    77  N   -0.544467
    78  H    0.291343
    79  C   -0.005022
    80  H    0.145415
    81  C    0.611234
    82  C   -0.194852
    83  H    0.176709
    84  H    0.098653
    85  O   -0.551533
    86  C   -0.281833
    87  H    0.140438
    88  H    0.159475
    89  C    0.584580
    90  O   -0.476709
    91  O   -0.474207
    92  N   -0.535428
    93  H    0.274479
    94  C   -0.032961
    95  H    0.184792
    96  C    0.629572
    97  C   -0.261683
    98  H    0.151127
    99  H    0.112464
   100  O   -0.532179
   101  C    0.619770
   102  N   -0.594764
   103  H    0.284342
   104  H    0.287698
   105  O   -0.545234
   106  N   -0.543416
   107  H    0.300751
   108  C    0.006256
   109  H    0.128049
   110  C    0.640481
   111  C   -0.271765
   112  H    0.141335
   113  H    0.098458
   114  O   -0.603857
   115  C    0.065976
   116  C   -0.129606
   117  H    0.080477
   118  C   -0.157235
   119  H    0.075533
   120  C   -0.111249
   121  H    0.102455
   122  C   -0.111979
   123  H    0.094230
   124  O   -0.605538
   125  H    0.349609
   126  C    0.359248
   127  N   -0.503463
   128  H    0.278454
   129  C   -0.020349
   130  H    0.106408
   131  C    0.612613
   132  C   -0.175767
   133  H    0.116396
   134  H    0.106815
   135  O   -0.610800
   136  C   -0.205691
   137  H    0.138583
   138  H    0.090717
   139  C   -0.087076
   140  H    0.123244
   141  H    0.130220
   142  N   -0.481392
   143  H    0.294382
   144  N   -0.600588
   145  H    0.310110
   146  H    0.318948
   147  N   -0.600178
   148  H    0.275142
   149  H    0.360704
   150  C    0.626403
   151  O   -0.584762
   152  H    0.326773
 Sum of Mulliken charges =   1.00000

 Dipole moment (field-independent basis, Debye):
    X=            -29.2635    Y=             10.8063    Z=             11.0167  Tot=             33.0831
 Quadrupole moment (field-independent basis, Debye-Ang):
   XX=             76.5245   YY=           -449.6465   ZZ=           -441.4313
   XY=             24.9688   XZ=           -103.4104   YZ=            -46.3670

 Normal termination of Gaussian 16 at Thu Sep  8 08:45:17 2022.
