 Gaussian 16, Revision C.01,
 Gaussian 16:  ES64L-G16RevC.01  3-Jul-2019

 ----------------------------------------------------------------------
 # B3LYP/6-31G** empiricaldispersion=gd3bj guess=read geom=check nosymm
  integral(ultrafinegrid)
 ----------------------------------------------------------------------

 -----------------------------------------------------
 Candidate Structure: Conf:12 Charge calc in gas phase
 -----------------------------------------------------
 Structure from the checkpoint file:  "conf-12.chk"
 Charge =  1 Multiplicity = 1

                          Input orientation:
 ---------------------------------------------------------------------
 Center     Atomic      Atomic             Coordinates (Angstroms)
 Number     Number       Type             X           Y           Z
 ---------------------------------------------------------------------
      1          7           0       -5.520439    4.224062    4.794641
      2          1           0       -6.180092    4.606092    5.471526
      3          1           0       -5.818223    3.288260    4.469404
      4          1           0       -4.597642    4.141509    5.257038
      5          6           0       -5.428884    5.062203    3.533391
      6          1           0       -6.470916    5.282440    3.272073
      7          6           0       -4.956839    4.024933    2.490743
      8          6           0       -4.652917    6.368936    3.723601
      9          1           0       -3.581012    6.157952    3.668218
     10          8           0       -5.524809    2.913549    2.544299
     11          6           0       -5.001389    7.328981    2.575325
     12          1           0       -6.008098    7.743588    2.704521
     13          1           0       -4.265380    8.133483    2.557973
     14          1           0       -4.961875    6.831759    1.603203
     15          6           0       -4.957977    7.028895    5.074330
     16          1           0       -6.030483    7.226155    5.201923
     17          1           0       -4.605765    6.436906    5.926747
     18          1           0       -4.441252    7.989809    5.124909
     19          7           0       -4.020331    4.378867    1.615023
     20          1           0       -3.278237    5.074398    1.908117
     21          6           0       -3.589379    3.420758    0.589288
     22          1           0       -4.469328    2.825041    0.327342
     23          6           0       -2.547414    2.495227    1.231771
     24          6           0       -3.024632    4.085960   -0.674750
     25          1           0       -2.034963    4.484339   -0.436248
     26          8           0       -1.329240    2.647765    1.078052
     27          6           0       -3.906638    5.249411   -1.152819
     28          1           0       -3.913291    6.024433   -0.379174
     29          1           0       -4.946892    4.912176   -1.257885
     30          6           0       -2.839381    3.003037   -1.746729
     31          1           0       -3.805488    2.611819   -2.087440
     32          1           0       -2.241441    2.169453   -1.368550
     33          1           0       -2.303232    3.412582   -2.602319
     34          6           0       -3.430720    5.868776   -2.471430
     35          1           0       -3.953540    6.808535   -2.671839
     36          1           0       -2.354782    6.068069   -2.445734
     37          1           0       -3.631120    5.199560   -3.315515
     38          7           0       -3.047489    1.519689    2.012515
     39          1           0       -4.049795    1.516583    2.179342
     40          6           0       -2.173749    0.679894    2.823126
     41          1           0       -1.224771    1.221664    2.901061
     42          6           0       -1.822035   -0.635255    2.091472
     43          6           0       -2.756631    0.483165    4.213181
     44          1           0       -2.137744   -0.252884    4.736255
     45          1           0       -3.747877    0.019082    4.137692
     46          8           0       -1.881569   -1.737529    2.624077
     47          6           0       -2.842033    1.761221    5.032455
     48          6           0       -2.269797    2.977269    4.628553
     49          1           0       -1.767480    3.083050    3.675628
     50          6           0       -3.494552    1.720903    6.275977
     51          1           0       -3.950253    0.790823    6.605025
     52          6           0       -2.318586    4.106824    5.452391
     53          1           0       -1.868503    5.026680    5.094144
     54          6           0       -3.540823    2.839995    7.107031
     55          1           0       -4.028915    2.773325    8.074567
     56          6           0       -2.945297    4.041936    6.700989
     57          1           0       -2.960875    4.909947    7.352937
     58          7           0       -1.412851   -0.409205    0.816671
     59          1           0       -1.113796    0.535424    0.582439
     60          6           0       -0.801881   -1.440072   -0.006257
     61          1           0       -0.085791   -2.002813    0.605181
     62          6           0        0.035048   -0.677498   -1.036534
     63          6           0       -1.850399   -2.426712   -0.560793
     64          1           0       -2.404204   -1.953663   -1.380512
     65          1           0       -2.561745   -2.577261    0.256236
     66          8           0        0.308847    0.514443   -0.832455
     67          6           0       -1.355156   -3.826891   -0.981656
     68          1           0       -0.761653   -3.764099   -1.909790
     69          6           0       -0.483187   -4.486660    0.095695
     70          1           0       -0.995129   -4.466390    1.063744
     71          1           0        0.482452   -3.988440    0.226683
     72          1           0       -0.283385   -5.531424   -0.160541
     73          6           0       -2.570421   -4.702111   -1.315702
     74          1           0       -3.183745   -4.858661   -0.421612
     75          1           0       -2.258584   -5.683804   -1.683751
     76          1           0       -3.202230   -4.237933   -2.079963
     77          7           0        0.463941   -1.332853   -2.135544
     78          1           0        0.131609   -2.279223   -2.253548
     79          6           0        1.627406   -0.953813   -2.959751
     80          1           0        2.426832   -0.666790   -2.262032
     81          6           0        1.489292    0.295209   -3.875576
     82          6           0        2.074084   -2.177804   -3.760014
     83          1           0        2.809706   -1.843558   -4.491710
     84          1           0        1.219901   -2.571835   -4.322112
     85          8           0        2.101063    0.376556   -4.931429
     86          6           0        2.673277   -3.277117   -2.878530
     87          1           0        2.066530   -3.496667   -1.993656
     88          1           0        2.745449   -4.219237   -3.435445
     89          6           0        4.073628   -2.939206   -2.425366
     90          8           0        4.827653   -2.153635   -2.945118
     91          8           0        4.429312   -3.647228   -1.306707
     92          7           0        0.776325    1.318787   -3.334712
     93          1           0        0.427455    1.163659   -2.386007
     94          6           0        0.953983    2.703838   -3.742797
     95          1           0        1.954935    2.815832   -4.175489
     96          6           0        0.840333    3.555633   -2.458740
     97          6           0       -0.072643    3.141452   -4.791915
     98          1           0        0.110555    2.548424   -5.693685
     99          1           0       -1.081360    2.915360   -4.439810
    100          8           0        0.019856    4.468109   -2.359248
    101          6           0        0.069729    4.605539   -5.156235
    102          7           0       -1.080348    5.300428   -5.294609
    103          1           0       -1.021563    6.297382   -5.439754
    104          1           0       -1.940808    4.942559   -4.911401
    105          8           0        1.178840    5.115839   -5.378711
    106          7           0        1.709621    3.212665   -1.472998
    107          1           0        2.202783    2.336579   -1.599248
    108          6           0        1.472847    3.551800   -0.066701
    109          1           0        0.580120    3.024611    0.269476
    110          6           0        1.262500    5.050210    0.110441
    111          6           0        2.675752    3.098203    0.791725
    112          1           0        3.583537    3.559614    0.391729
    113          1           0        2.524205    3.502559    1.797714
    114          8           0        2.092093    5.872896   -0.332819
    115          6           0        2.792945    1.594948    0.850968
    116          6           0        1.964207    0.852614    1.705854
    117          1           0        1.284860    1.379296    2.370211
    118          6           0        3.666320    0.893067    0.018161
    119          1           0        4.355618    1.437137   -0.623116
    120          6           0        1.973556   -0.534713    1.703486
    121          1           0        1.328306   -1.104239    2.364279
    122          6           0        3.684943   -0.504335   -0.005018
    123          1           0        4.383754   -1.014182   -0.657911
    124          8           0        2.713922   -2.585980    0.799728
    125          1           0        3.371750   -2.972412    0.196817
    126          6           0        2.812269   -1.225094    0.817443
    127          7           0        0.190669    5.379584    0.827871
    128          1           0       -0.440981    4.662668    1.184078
    129          6           0       -0.229831    6.747930    1.091285
    130          1           0        0.598264    7.286947    1.563262
    131          6           0       -1.420689    6.735417    2.082403
    132          6           0       -0.641205    7.481354   -0.217025
    133          1           0       -0.364253    6.833880   -1.052559
    134          1           0       -1.729270    7.579878   -0.243401
    135          8           0       -1.873275    7.833310    2.419288
    136          6           0       -0.000184    8.872931   -0.397607
    137          1           0       -0.723869    9.669253   -0.205844
    138          1           0        0.803441    9.019260    0.333734
    139          6           0        0.590915    9.061539   -1.797932
    140          1           0       -0.186647    8.919963   -2.557497
    141          1           0        0.998695   10.072077   -1.914197
    142          7           0        1.644711    8.062293   -2.008188
    143          1           0        1.964464    7.574950   -1.167120
    144          7           0        1.242657    7.713735   -4.285226
    145          1           0        1.315097    7.058449   -5.061907
    146          1           0        1.049367    8.686646   -4.455543
    147          7           0        2.508053    6.202079   -3.065130
    148          1           0        2.462832    5.601443   -3.881273
    149          1           0        2.600228    5.770770   -2.141213
    150          6           0        1.789980    7.328802   -3.115308
    151          8           0       -1.850233    5.567716    2.416060
    152          1           0        5.370484   -3.455495   -1.145120
 ---------------------------------------------------------------------

 SCF Done:  E(RB3LYP) =  -3587.21185112     A.U. after    2 cycles

 Alpha  occ. eigenvalues --  -19.29208 -19.24348 -19.23099 -19.22859 -19.21936
 Alpha  occ. eigenvalues --  -19.21287 -19.21147 -19.20918 -19.19662 -19.19140
 Alpha  occ. eigenvalues --  -19.19069 -19.15963 -19.14480 -14.55547 -14.45845
 Alpha  occ. eigenvalues --  -14.45624 -14.44917 -14.44801 -14.44767 -14.44694
 Alpha  occ. eigenvalues --  -14.44183 -14.43573 -14.42495 -14.42227 -14.42198
 Alpha  occ. eigenvalues --  -10.41261 -10.41059 -10.39494 -10.38644 -10.38550
 Alpha  occ. eigenvalues --  -10.37589 -10.37417 -10.36254 -10.36054 -10.35904
 Alpha  occ. eigenvalues --  -10.35745 -10.33158 -10.32166 -10.32020 -10.31832
 Alpha  occ. eigenvalues --  -10.31465 -10.31418 -10.31088 -10.31047 -10.30094
 Alpha  occ. eigenvalues --  -10.29370 -10.28970 -10.28625 -10.28400 -10.28186
 Alpha  occ. eigenvalues --  -10.28169 -10.28042 -10.28000 -10.27831 -10.27803
 Alpha  occ. eigenvalues --  -10.27689 -10.27362 -10.26891 -10.26766 -10.26612
 Alpha  occ. eigenvalues --  -10.26423 -10.26323 -10.26177 -10.26096 -10.26006
 Alpha  occ. eigenvalues --  -10.26006 -10.25918 -10.25583 -10.25427 -10.25024
 Alpha  occ. eigenvalues --  -10.24998 -10.24696 -10.24459 -10.23951 -10.23619
 Alpha  occ. eigenvalues --   -1.19612  -1.14947  -1.14173  -1.13030  -1.12994
 Alpha  occ. eigenvalues --   -1.12441  -1.12318  -1.11016  -1.10820  -1.10681
 Alpha  occ. eigenvalues --   -1.10603  -1.10013  -1.09893  -1.08479  -1.02341
 Alpha  occ. eigenvalues --   -1.02309  -1.01667  -1.01505  -1.00153  -0.99956
 Alpha  occ. eigenvalues --   -0.99658  -0.99529  -0.99255  -0.98658  -0.97842
 Alpha  occ. eigenvalues --   -0.94962  -0.92489  -0.90785  -0.89631  -0.88837
 Alpha  occ. eigenvalues --   -0.88329  -0.87827  -0.87205  -0.86620  -0.85719
 Alpha  occ. eigenvalues --   -0.84119  -0.83591  -0.83096  -0.82255  -0.81984
 Alpha  occ. eigenvalues --   -0.81769  -0.80985  -0.80491  -0.79747  -0.77361
 Alpha  occ. eigenvalues --   -0.76755  -0.76560  -0.75003  -0.74820  -0.74748
 Alpha  occ. eigenvalues --   -0.73694  -0.72870  -0.72012  -0.71505  -0.71312
 Alpha  occ. eigenvalues --   -0.70265  -0.69790  -0.69464  -0.69333  -0.68911
 Alpha  occ. eigenvalues --   -0.68541  -0.68309  -0.67667  -0.67431  -0.67037
 Alpha  occ. eigenvalues --   -0.66932  -0.66905  -0.66435  -0.65870  -0.65657
 Alpha  occ. eigenvalues --   -0.64871  -0.64743  -0.64594  -0.64187  -0.63694
 Alpha  occ. eigenvalues --   -0.63373  -0.62596  -0.62273  -0.62001  -0.61549
 Alpha  occ. eigenvalues --   -0.60731  -0.60396  -0.60073  -0.59946  -0.59286
 Alpha  occ. eigenvalues --   -0.58985  -0.58496  -0.58434  -0.58141  -0.57919
 Alpha  occ. eigenvalues --   -0.57709  -0.57120  -0.56735  -0.56594  -0.56498
 Alpha  occ. eigenvalues --   -0.56364  -0.56221  -0.55500  -0.55237  -0.54937
 Alpha  occ. eigenvalues --   -0.54465  -0.54345  -0.54113  -0.53731  -0.53672
 Alpha  occ. eigenvalues --   -0.53359  -0.53248  -0.53215  -0.52970  -0.52913
 Alpha  occ. eigenvalues --   -0.52578  -0.52274  -0.51665  -0.51229  -0.51196
 Alpha  occ. eigenvalues --   -0.51158  -0.50762  -0.50652  -0.50581  -0.50545
 Alpha  occ. eigenvalues --   -0.50452  -0.50043  -0.50015  -0.49789  -0.49626
 Alpha  occ. eigenvalues --   -0.49329  -0.49268  -0.49064  -0.48853  -0.48782
 Alpha  occ. eigenvalues --   -0.48554  -0.48443  -0.48224  -0.48070  -0.48016
 Alpha  occ. eigenvalues --   -0.47890  -0.47759  -0.47323  -0.47240  -0.47063
 Alpha  occ. eigenvalues --   -0.46895  -0.46634  -0.46514  -0.46274  -0.46142
 Alpha  occ. eigenvalues --   -0.45914  -0.45537  -0.45278  -0.45229  -0.45067
 Alpha  occ. eigenvalues --   -0.44973  -0.44884  -0.44809  -0.44545  -0.44433
 Alpha  occ. eigenvalues --   -0.44238  -0.44016  -0.43872  -0.43455  -0.43228
 Alpha  occ. eigenvalues --   -0.42981  -0.42872  -0.42792  -0.42685  -0.42607
 Alpha  occ. eigenvalues --   -0.42318  -0.42138  -0.41796  -0.41658  -0.41472
 Alpha  occ. eigenvalues --   -0.41266  -0.41051  -0.40851  -0.40565  -0.40480
 Alpha  occ. eigenvalues --   -0.40008  -0.39846  -0.39745  -0.39638  -0.39516
 Alpha  occ. eigenvalues --   -0.39418  -0.37717  -0.37438  -0.36805  -0.36605
 Alpha  occ. eigenvalues --   -0.36502  -0.36370  -0.36299  -0.36212  -0.35656
 Alpha  occ. eigenvalues --   -0.35190  -0.34638  -0.34596  -0.34180  -0.33999
 Alpha  occ. eigenvalues --   -0.33520  -0.33216  -0.32919  -0.32755  -0.32572
 Alpha  occ. eigenvalues --   -0.32153  -0.31843  -0.31364  -0.30999  -0.30508
 Alpha  occ. eigenvalues --   -0.28874  -0.28500
 Alpha virt. eigenvalues --   -0.10608  -0.10131  -0.09565  -0.08837  -0.08023
 Alpha virt. eigenvalues --   -0.07885  -0.07443  -0.07282  -0.07117  -0.06578
 Alpha virt. eigenvalues --   -0.06045  -0.05210  -0.05133  -0.04932  -0.04749

 Mulliken charges:
               1
     1  N   -0.555037
     2  H    0.335319
     3  H    0.345545
     4  H    0.352323
     5  C   -0.055186
     6  H    0.166899
     7  C    0.614882
     8  C   -0.095954
     9  H    0.165730
    10  O   -0.582671
    11  C   -0.332122
    12  H    0.094729
    13  H    0.170405
    14  H    0.106273
    15  C   -0.351316
    16  H    0.101528
    17  H    0.084434
    18  H    0.158725
    19  N   -0.547629
    20  H    0.363767
    21  C   -0.013255
    22  H    0.132001
    23  C    0.630453
    24  C   -0.070412
    25  H    0.128143
    26  O   -0.565944
    27  C   -0.184909
    28  H    0.115449
    29  H    0.092220
    30  C   -0.341273
    31  H    0.098266
    32  H    0.109064
    33  H    0.116682
    34  C   -0.345625
    35  H    0.107656
    36  H    0.129343
    37  H    0.091441
    38  N   -0.505224
    39  H    0.294687
    40  C   -0.076192
    41  H    0.160222
    42  C    0.624790
    43  C   -0.243697
    44  H    0.162901
    45  H    0.125801
    46  O   -0.532602
    47  C    0.102189
    48  C   -0.133199
    49  H    0.127617
    50  C   -0.132527
    51  H    0.106818
    52  C   -0.134683
    53  H    0.145681
    54  C   -0.105538
    55  H    0.112416
    56  C   -0.150591
    57  H    0.116085
    58  N   -0.573528
    59  H    0.323622
    60  C    0.002615
    61  H    0.165356
    62  C    0.617554
    63  C   -0.180086
    64  H    0.097265
    65  H    0.140485
    66  O   -0.572640
    67  C   -0.089442
    68  H    0.069415
    69  C   -0.334624
    70  H    0.135245
    71  H    0.118356
    72  H    0.107483
    73  C   -0.312335
    74  H    0.118213
    75  H    0.111263
    76  H    0.103976
    77  N   -0.555213
    78  H    0.285942
    79  C   -0.019854
    80  H    0.158755
    81  C    0.591329
    82  C   -0.223244
    83  H    0.182278
    84  H    0.115161
    85  O   -0.504071
    86  C   -0.277131
    87  H    0.129596
    88  H    0.166392
    89  C    0.594390
    90  O   -0.440683
    91  O   -0.507127
    92  N   -0.579402
    93  H    0.330668
    94  C    0.004034
    95  H    0.158687
    96  C    0.581895
    97  C   -0.238344
    98  H    0.171030
    99  H    0.112693
   100  O   -0.544688
   101  C    0.630235
   102  N   -0.593705
   103  H    0.276876
   104  H    0.290667
   105  O   -0.573524
   106  N   -0.525416
   107  H    0.273119
   108  C   -0.019845
   109  H    0.181669
   110  C    0.665258
   111  C   -0.276691
   112  H    0.128511
   113  H    0.126471
   114  O   -0.615381
   115  C    0.120319
   116  C   -0.097967
   117  H    0.087911
   118  C   -0.158720
   119  H    0.098421
   120  C   -0.121357
   121  H    0.113989
   122  C   -0.153202
   123  H    0.089779
   124  O   -0.582229
   125  H    0.337868
   126  C    0.320791
   127  N   -0.542863
   128  H    0.315421
   129  C    0.008736
   130  H    0.130297
   131  C    0.574262
   132  C   -0.207230
   133  H    0.131781
   134  H    0.120509
   135  O   -0.547428
   136  C   -0.213156
   137  H    0.133019
   138  H    0.121702
   139  C   -0.067063
   140  H    0.113407
   141  H    0.130082
   142  N   -0.524696
   143  H    0.318679
   144  N   -0.638852
   145  H    0.311833
   146  H    0.294063
   147  N   -0.628432
   148  H    0.308408
   149  H    0.323050
   150  C    0.754198
   151  O   -0.660588
   152  H    0.340829
 Sum of Mulliken charges =   1.00000

 Dipole moment (field-independent basis, Debye):
    X=            -11.3922    Y=             15.6292    Z=              2.0992  Tot=             19.4541
 Quadrupole moment (field-independent basis, Debye-Ang):
   XX=           -345.6389   YY=           -292.1013   ZZ=           -346.1282
   XY=            -66.4521   XZ=            -58.5766   YZ=             -0.1190

 Normal termination of Gaussian 16 at Thu Sep  8 08:50:33 2022.
