 Gaussian 16, Revision C.01,
 Gaussian 16:  ES64L-G16RevC.01  3-Jul-2019

 ----------------------------------------------------------------------
 # B3LYP/6-31G** empiricaldispersion=gd3bj guess=read geom=check nosymm
  integral(ultrafinegrid)
 ----------------------------------------------------------------------

 ------------------------------------------------------
 Candidate Structure: Conf:472 Charge calc in gas phase
 ------------------------------------------------------
 Structure from the checkpoint file:  "conf-472.chk"
 Charge =  1 Multiplicity = 1

                          Input orientation:
 ---------------------------------------------------------------------
 Center     Atomic      Atomic             Coordinates (Angstroms)
 Number     Number       Type             X           Y           Z
 ---------------------------------------------------------------------
      1          7           0       -6.097153   -5.426873    4.217941
      2          1           0       -6.442042   -6.019458    3.462042
      3          1           0       -5.017018   -5.333198    4.155976
      4          1           0       -6.396951   -5.817128    5.112211
      5          6           0       -6.469095   -3.970580    4.053303
      6          1           0       -7.212343   -3.888214    3.257697
      7          6           0       -5.110791   -3.361284    3.619656
      8          6           0       -7.027896   -3.398787    5.378228
      9          1           0       -7.843109   -4.078598    5.666210
     10          8           0       -4.107294   -4.087000    3.762744
     11          6           0       -5.972918   -3.383217    6.492779
     12          1           0       -5.163968   -2.686273    6.255793
     13          1           0       -6.430964   -3.056826    7.428991
     14          1           0       -5.521004   -4.363927    6.679470
     15          6           0       -7.646786   -2.008555    5.175893
     16          1           0       -6.891512   -1.237830    4.998590
     17          1           0       -8.360473   -1.998445    4.345438
     18          1           0       -8.192427   -1.723961    6.078750
     19          7           0       -5.122350   -2.129891    3.146345
     20          1           0       -5.967098   -1.566509    3.195086
     21          6           0       -3.929287   -1.335981    2.853356
     22          1           0       -3.106135   -1.755277    3.439105
     23          6           0       -4.268896    0.078496    3.352987
     24          6           0       -3.520596   -1.351872    1.353312
     25          1           0       -2.509587   -0.931308    1.333941
     26          8           0       -5.425836    0.364855    3.684336
     27          6           0       -4.386728   -0.455671    0.443254
     28          1           0       -3.983080   -0.569989   -0.568102
     29          1           0       -4.233974    0.593821    0.718716
     30          6           0       -3.407482   -2.786824    0.829180
     31          1           0       -4.386523   -3.271590    0.757477
     32          1           0       -2.777117   -3.400969    1.477909
     33          1           0       -2.963618   -2.764782   -0.167501
     34          6           0       -5.891613   -0.750156    0.414982
     35          1           0       -6.367546   -0.195618   -0.398561
     36          1           0       -6.102261   -1.811965    0.250464
     37          1           0       -6.380974   -0.433268    1.340790
     38          7           0       -3.243602    0.943273    3.371113
     39          1           0       -2.339575    0.680641    2.975012
     40          6           0       -3.453324    2.369633    3.595811
     41          1           0       -4.516428    2.560379    3.426278
     42          6           0       -2.710658    3.081944    2.457039
     43          6           0       -3.089674    2.759158    5.042713
     44          1           0       -2.059916    2.448424    5.251486
     45          1           0       -3.732999    2.151831    5.688730
     46          8           0       -3.014854    2.799550    1.279489
     47          6           0       -3.266724    4.230714    5.354319
     48          6           0       -2.196424    4.983576    5.854375
     49          1           0       -1.246501    4.494936    6.059887
     50          6           0       -4.483984    4.878279    5.105822
     51          1           0       -5.331447    4.312109    4.729608
     52          6           0       -2.331171    6.353580    6.085608
     53          1           0       -1.489071    6.919910    6.470398
     54          6           0       -4.621569    6.245995    5.337937
     55          1           0       -5.570745    6.732879    5.137635
     56          6           0       -3.543976    6.989391    5.823874
     57          1           0       -3.651093    8.054859    5.998317
     58          7           0       -1.747990    3.941536    2.783523
     59          1           0       -1.521080    4.091569    3.756471
     60          6           0       -0.887138    4.641352    1.838688
     61          1           0       -1.271541    4.433598    0.840058
     62          6           0        0.515940    4.047611    2.033088
     63          6           0       -0.891035    6.148925    2.134086
     64          1           0       -0.288760    6.646389    1.363053
     65          1           0       -0.375292    6.305257    3.088680
     66          8           0        0.999632    3.946037    3.157194
     67          6           0       -2.293662    6.775719    2.193211
     68          1           0       -2.846276    6.278968    2.999117
     69          6           0       -2.183144    8.259724    2.557090
     70          1           0       -1.645637    8.818617    1.782200
     71          1           0       -1.650712    8.396486    3.503711
     72          1           0       -3.175461    8.708399    2.663743
     73          6           0       -3.074505    6.577169    0.888409
     74          1           0       -2.532212    7.006579    0.037156
     75          1           0       -4.047132    7.075562    0.943860
     76          1           0       -3.260999    5.520336    0.674194
     77          7           0        1.141708    3.634387    0.906471
     78          1           0        0.695806    3.691512   -0.000950
     79          6           0        2.388603    2.897594    0.946822
     80          1           0        3.055107    3.373745    1.673276
     81          6           0        2.997868    2.952690   -0.451206
     82          6           0        2.173030    1.419062    1.369637
     83          1           0        1.871563    1.411781    2.419613
     84          1           0        3.114637    0.872977    1.277954
     85          8           0        2.333700    3.215760   -1.442670
     86          6           0        1.113611    0.700406    0.512917
     87          1           0        1.242263    0.907481   -0.548689
     88          1           0        1.225967   -0.378735    0.646824
     89          6           0       -0.282016    1.057860    0.960797
     90          8           0       -0.686899    0.827359    2.093914
     91          8           0       -1.035030    1.664992    0.030077
     92          7           0        4.347602    2.653807   -0.513307
     93          1           0        4.680510    2.136151    0.294282
     94          6           0        4.855260    2.093679   -1.762395
     95          1           0        4.463565    2.704466   -2.579197
     96          6           0        4.377823    0.632961   -1.911580
     97          6           0        6.395827    2.083053   -1.767914
     98          1           0        6.756342    1.691637   -0.808198
     99          1           0        6.744282    1.391614   -2.533485
    100          8           0        4.095841   -0.027372   -0.915452
    101          6           0        7.071279    3.419563   -2.040933
    102          7           0        6.549766    4.488373   -1.413699
    103          1           0        6.958726    5.396732   -1.578830
    104          1           0        5.726799    4.391921   -0.832282
    105          8           0        8.052062    3.503642   -2.795231
    106          7           0        4.399382    0.165141   -3.176668
    107          1           0        4.691352    0.771116   -3.932637
    108          6           0        4.411024   -1.251889   -3.506569
    109          1           0        4.470760   -1.797977   -2.564063
    110          6           0        5.632460   -1.530609   -4.378124
    111          6           0        3.155151   -1.712741   -4.287445
    112          1           0        3.124274   -1.161840   -5.233758
    113          1           0        3.303170   -2.771659   -4.527108
    114          8           0        5.971665   -0.685457   -5.250027
    115          6           0        1.891015   -1.503013   -3.499640
    116          6           0        1.373621   -2.523034   -2.691932
    117          1           0        1.868727   -3.490040   -2.677239
    118          6           0        1.235787   -0.267467   -3.509247
    119          1           0        1.616202    0.536887   -4.131267
    120          6           0        0.241569   -2.317949   -1.908000
    121          1           0       -0.155666   -3.105855   -1.276859
    122          6           0        0.100059   -0.046696   -2.734287
    123          1           0       -0.395084    0.919927   -2.745167
    124          8           0       -1.488356   -0.895440   -1.118222
    125          1           0       -1.659560    0.056368   -1.048438
    126          6           0       -0.391295   -1.074123   -1.924827
    127          7           0        6.204500   -2.706579   -4.169847
    128          1           0        5.579620   -3.440332   -3.717283
    129          6           0        6.867122   -3.514749   -5.200424
    130          1           0        6.787409   -3.022753   -6.175338
    131          6           0        5.970310   -4.846481   -5.228376
    132          6           0        8.315095   -3.910111   -4.897303
    133          1           0        8.389802   -4.180402   -3.835747
    134          1           0        8.468198   -4.831686   -5.467576
    135          8           0        6.301615   -5.694651   -6.057035
    136          6           0        9.456800   -2.950632   -5.266331
    137          1           0       10.397545   -3.503038   -5.164099
    138          1           0        9.388323   -2.664487   -6.323465
    139          6           0        9.611941   -1.676208   -4.427693
    140          1           0        9.469461   -1.906489   -3.362277
    141          1           0       10.628039   -1.284033   -4.559107
    142          7           0        8.668574   -0.643880   -4.851696
    143          1           0        7.797222   -0.922644   -5.318499
    144          7           0        9.630179    1.106971   -3.629314
    145          1           0        9.477158    2.022534   -3.218972
    146          1           0       10.341435    0.503634   -3.253752
    147          7           0        7.713168    1.454625   -4.867841
    148          1           0        7.675854    2.374747   -4.442878
    149          1           0        6.877323    1.015770   -5.247140
    150          6           0        8.674357    0.617579   -4.437680
    151          8           0        5.045832   -4.843291   -4.353029
    152          1           0       -1.863971    2.043357    0.461822
 ---------------------------------------------------------------------

 SCF Done:  E(RB3LYP) =  -3587.14363918     A.U. after    2 cycles

 Alpha  occ. eigenvalues --  -19.26464 -19.26225 -19.22948 -19.22011 -19.21957
 Alpha  occ. eigenvalues --  -19.21783 -19.21476 -19.21043 -19.19452 -19.19131
 Alpha  occ. eigenvalues --  -19.18323 -19.08978 -19.07524 -14.58387 -14.48768
 Alpha  occ. eigenvalues --  -14.45520 -14.45332 -14.45244 -14.45204 -14.44543
 Alpha  occ. eigenvalues --  -14.43951 -14.43936 -14.43534 -14.43377 -14.38479
 Alpha  occ. eigenvalues --  -10.42828 -10.40738 -10.39991 -10.39652 -10.39270
 Alpha  occ. eigenvalues --  -10.38343 -10.38335 -10.38215 -10.36500 -10.36359
 Alpha  occ. eigenvalues --  -10.33903 -10.33810 -10.33142 -10.32885 -10.32085
 Alpha  occ. eigenvalues --  -10.31863 -10.31099 -10.30001 -10.29705 -10.29632
 Alpha  occ. eigenvalues --  -10.29623 -10.29116 -10.28826 -10.27552 -10.27395
 Alpha  occ. eigenvalues --  -10.27377 -10.26942 -10.26364 -10.26261 -10.26192
 Alpha  occ. eigenvalues --  -10.26185 -10.26131 -10.26126 -10.25885 -10.25554
 Alpha  occ. eigenvalues --  -10.24884 -10.24857 -10.24566 -10.24370 -10.23981
 Alpha  occ. eigenvalues --  -10.23780 -10.23656 -10.23608 -10.23596 -10.23595
 Alpha  occ. eigenvalues --  -10.23461 -10.23304 -10.22962 -10.22929 -10.21343
 Alpha  occ. eigenvalues --   -1.18967  -1.17708  -1.13957  -1.13539  -1.13127
 Alpha  occ. eigenvalues --   -1.12769  -1.12351  -1.11342  -1.11112  -1.10906
 Alpha  occ. eigenvalues --   -1.09978  -1.08743  -1.08677  -1.05717  -1.02402
 Alpha  occ. eigenvalues --   -1.02045  -1.01928  -1.01616  -1.00705  -1.00092
 Alpha  occ. eigenvalues --   -1.00005  -0.99002  -0.97651  -0.96150  -0.94566
 Alpha  occ. eigenvalues --   -0.93085  -0.92880  -0.90180  -0.90030  -0.89060
 Alpha  occ. eigenvalues --   -0.88230  -0.86932  -0.86580  -0.85541  -0.84622
 Alpha  occ. eigenvalues --   -0.83803  -0.83143  -0.82491  -0.81640  -0.81156
 Alpha  occ. eigenvalues --   -0.80822  -0.80047  -0.79557  -0.79358  -0.78779
 Alpha  occ. eigenvalues --   -0.77822  -0.75925  -0.74717  -0.74469  -0.74034
 Alpha  occ. eigenvalues --   -0.73498  -0.72777  -0.72682  -0.72198  -0.71675
 Alpha  occ. eigenvalues --   -0.70865  -0.70520  -0.70004  -0.68996  -0.68655
 Alpha  occ. eigenvalues --   -0.68298  -0.67965  -0.67629  -0.67535  -0.66897
 Alpha  occ. eigenvalues --   -0.66833  -0.66763  -0.66029  -0.65941  -0.65712
 Alpha  occ. eigenvalues --   -0.64851  -0.64734  -0.64570  -0.64122  -0.63583
 Alpha  occ. eigenvalues --   -0.63166  -0.62294  -0.61935  -0.61677  -0.61180
 Alpha  occ. eigenvalues --   -0.60238  -0.59838  -0.59685  -0.59169  -0.58802
 Alpha  occ. eigenvalues --   -0.58316  -0.58215  -0.58070  -0.57554  -0.57464
 Alpha  occ. eigenvalues --   -0.57090  -0.56465  -0.56337  -0.56275  -0.56071
 Alpha  occ. eigenvalues --   -0.55922  -0.55610  -0.55301  -0.55013  -0.54886
 Alpha  occ. eigenvalues --   -0.54387  -0.53859  -0.53817  -0.53562  -0.53293
 Alpha  occ. eigenvalues --   -0.53162  -0.52924  -0.52608  -0.52312  -0.52253
 Alpha  occ. eigenvalues --   -0.52055  -0.51981  -0.51688  -0.51421  -0.51213
 Alpha  occ. eigenvalues --   -0.50978  -0.50676  -0.50538  -0.50333  -0.50016
 Alpha  occ. eigenvalues --   -0.49867  -0.49730  -0.49548  -0.49358  -0.49197
 Alpha  occ. eigenvalues --   -0.48931  -0.48872  -0.48783  -0.48541  -0.48301
 Alpha  occ. eigenvalues --   -0.48050  -0.48029  -0.47800  -0.47714  -0.47344
 Alpha  occ. eigenvalues --   -0.47268  -0.47082  -0.47057  -0.46867  -0.46627
 Alpha  occ. eigenvalues --   -0.46542  -0.46276  -0.46224  -0.45990  -0.45951
 Alpha  occ. eigenvalues --   -0.45855  -0.45624  -0.45537  -0.45415  -0.45136
 Alpha  occ. eigenvalues --   -0.44764  -0.44438  -0.44306  -0.43957  -0.43862
 Alpha  occ. eigenvalues --   -0.43725  -0.43409  -0.43001  -0.42979  -0.42465
 Alpha  occ. eigenvalues --   -0.42354  -0.42046  -0.41894  -0.41665  -0.41397
 Alpha  occ. eigenvalues --   -0.41138  -0.41034  -0.40851  -0.39947  -0.39759
 Alpha  occ. eigenvalues --   -0.39709  -0.39425  -0.39101  -0.38777  -0.38651
 Alpha  occ. eigenvalues --   -0.38642  -0.38244  -0.38222  -0.37747  -0.37546
 Alpha  occ. eigenvalues --   -0.37252  -0.37122  -0.37083  -0.36926  -0.36197
 Alpha  occ. eigenvalues --   -0.36071  -0.35980  -0.35627  -0.35578  -0.35341
 Alpha  occ. eigenvalues --   -0.35207  -0.34934  -0.34470  -0.34075  -0.33365
 Alpha  occ. eigenvalues --   -0.33324  -0.32884  -0.32425  -0.32315  -0.31808
 Alpha  occ. eigenvalues --   -0.31395  -0.30909  -0.29824  -0.26674  -0.23943
 Alpha  occ. eigenvalues --   -0.23807  -0.21376
 Alpha virt. eigenvalues --   -0.11714  -0.10119  -0.08688  -0.08291  -0.07860
 Alpha virt. eigenvalues --   -0.07845  -0.07608  -0.07530  -0.06219  -0.05831
 Alpha virt. eigenvalues --   -0.05721  -0.05322  -0.05149  -0.05050  -0.04420

 Mulliken charges:
               1
     1  N   -0.563279
     2  H    0.349314
     3  H    0.378697
     4  H    0.340399
     5  C   -0.082948
     6  H    0.170087
     7  C    0.644341
     8  C   -0.084787
     9  H    0.119913
    10  O   -0.552635
    11  C   -0.333992
    12  H    0.143516
    13  H    0.149700
    14  H    0.098317
    15  C   -0.352633
    16  H    0.158544
    17  H    0.119897
    18  H    0.142187
    19  N   -0.494245
    20  H    0.304372
    21  C   -0.053165
    22  H    0.155810
    23  C    0.622782
    24  C   -0.052657
    25  H    0.118998
    26  O   -0.562546
    27  C   -0.218519
    28  H    0.118579
    29  H    0.124259
    30  C   -0.328873
    31  H    0.080015
    32  H    0.114503
    33  H    0.149790
    34  C   -0.336018
    35  H    0.122842
    36  H    0.092237
    37  H    0.101538
    38  N   -0.541590
    39  H    0.324159
    40  C    0.002934
    41  H    0.165969
    42  C    0.608404
    43  C   -0.266093
    44  H    0.120821
    45  H    0.138347
    46  O   -0.593428
    47  C    0.104102
    48  C   -0.162682
    49  H    0.106976
    50  C   -0.121524
    51  H    0.095784
    52  C   -0.079920
    53  H    0.105077
    54  C   -0.084826
    55  H    0.103635
    56  C   -0.083078
    57  H    0.104752
    58  N   -0.471857
    59  H    0.290891
    60  C   -0.057433
    61  H    0.129350
    62  C    0.621956
    63  C   -0.172172
    64  H    0.105617
    65  H    0.116531
    66  O   -0.540247
    67  C   -0.065364
    68  H    0.105748
    69  C   -0.309528
    70  H    0.103225
    71  H    0.100286
    72  H    0.104843
    73  C   -0.327804
    74  H    0.101306
    75  H    0.108147
    76  H    0.114360
    77  N   -0.544609
    78  H    0.292294
    79  C   -0.006906
    80  H    0.142735
    81  C    0.603338
    82  C   -0.211156
    83  H    0.153830
    84  H    0.131948
    85  O   -0.506673
    86  C   -0.245522
    87  H    0.152552
    88  H    0.161826
    89  C    0.604026
    90  O   -0.519930
    91  O   -0.551848
    92  N   -0.545273
    93  H    0.278538
    94  C   -0.056660
    95  H    0.152863
    96  C    0.615593
    97  C   -0.270016
    98  H    0.150295
    99  H    0.136819
   100  O   -0.532959
   101  C    0.581509
   102  N   -0.577519
   103  H    0.296797
   104  H    0.299957
   105  O   -0.551876
   106  N   -0.509011
   107  H    0.262392
   108  C   -0.016240
   109  H    0.151832
   110  C    0.590317
   111  C   -0.265345
   112  H    0.113713
   113  H    0.165067
   114  O   -0.631325
   115  C    0.121394
   116  C   -0.127558
   117  H    0.116435
   118  C   -0.115471
   119  H    0.079422
   120  C   -0.109489
   121  H    0.090050
   122  C   -0.144299
   123  H    0.091608
   124  O   -0.594789
   125  H    0.332154
   126  C    0.327363
   127  N   -0.497179
   128  H    0.306832
   129  C   -0.089361
   130  H    0.109831
   131  C    0.593297
   132  C   -0.165702
   133  H    0.091732
   134  H    0.152449
   135  O   -0.548852
   136  C   -0.230927
   137  H    0.116394
   138  H    0.119572
   139  C   -0.049585
   140  H    0.123418
   141  H    0.115277
   142  N   -0.532029
   143  H    0.321798
   144  N   -0.633801
   145  H    0.319599
   146  H    0.296205
   147  N   -0.638470
   148  H    0.301066
   149  H    0.317737
   150  C    0.757016
   151  O   -0.615894
   152  H    0.387368
 Sum of Mulliken charges =   1.00000

 Dipole moment (field-independent basis, Debye):
    X=            -12.9620    Y=              4.9644    Z=             21.9645  Tot=             25.9826
 Quadrupole moment (field-independent basis, Debye-Ang):
   XX=           -151.4175   YY=           -364.2645   ZZ=           -397.8730
   XY=            181.9853   XZ=           -111.3951   YZ=           -119.5322

 Normal termination of Gaussian 16 at Thu Sep  8 08:46:46 2022.
