 Gaussian 16, Revision C.01,
 Gaussian 16:  ES64L-G16RevC.01  3-Jul-2019

 ----------------------------------------------------------------------
 # B3LYP/6-31G** empiricaldispersion=gd3bj guess=read geom=check nosymm
  integral(ultrafinegrid)
 ----------------------------------------------------------------------

 ------------------------------------------------------
 Candidate Structure: Conf:876 Charge calc in gas phase
 ------------------------------------------------------
 Structure from the checkpoint file:  "conf-876.chk"
 Charge =  1 Multiplicity = 1

                          Input orientation:
 ---------------------------------------------------------------------
 Center     Atomic      Atomic             Coordinates (Angstroms)
 Number     Number       Type             X           Y           Z
 ---------------------------------------------------------------------
      1          7           0       -8.209517   -2.331983    8.000783
      2          1           0       -9.132247   -2.764068    7.943522
      3          1           0       -7.481212   -2.927092    7.464898
      4          1           0       -7.953670   -2.221220    8.983092
      5          6           0       -8.099612   -1.042938    7.216612
      6          1           0       -9.097970   -0.756422    6.879536
      7          6           0       -7.211770   -1.485791    6.026253
      8          6           0       -7.482555    0.075321    8.090336
      9          1           0       -8.102404    0.105258    8.998358
     10          8           0       -6.673967   -2.606867    6.113039
     11          6           0       -6.032044   -0.235220    8.483552
     12          1           0       -5.374850   -0.200317    7.610844
     13          1           0       -5.675042    0.514021    9.193226
     14          1           0       -5.909704   -1.214516    8.960339
     15          6           0       -7.600354    1.449466    7.416192
     16          1           0       -6.911017    1.563700    6.576531
     17          1           0       -8.620348    1.646479    7.070206
     18          1           0       -7.343551    2.226498    8.139719
     19          7           0       -7.073258   -0.641010    5.022880
     20          1           0       -7.481646    0.295046    5.027770
     21          6           0       -6.153558   -0.830705    3.904006
     22          1           0       -5.230241   -1.275755    4.287822
     23          6           0       -5.880905    0.605633    3.422637
     24          6           0       -6.753393   -1.765257    2.817749
     25          1           0       -7.063578   -2.661778    3.369813
     26          8           0       -6.611922    1.529145    3.793845
     27          6           0       -5.691806   -2.209104    1.793767
     28          1           0       -4.767869   -2.471682    2.327438
     29          1           0       -5.445144   -1.380103    1.120575
     30          6           0       -7.985198   -1.137865    2.157558
     31          1           0       -7.710449   -0.260410    1.562998
     32          1           0       -8.723793   -0.820976    2.899802
     33          1           0       -8.473564   -1.851907    1.491563
     34          6           0       -6.129721   -3.413995    0.956402
     35          1           0       -5.327867   -3.723390    0.281126
     36          1           0       -6.379404   -4.268435    1.594200
     37          1           0       -7.004772   -3.184684    0.341876
     38          7           0       -4.828300    0.759233    2.606795
     39          1           0       -4.326702   -0.037700    2.231932
     40          6           0       -4.437418    2.036874    2.051577
     41          1           0       -5.315005    2.688076    2.040913
     42          6           0       -3.903532    1.752733    0.645416
     43          6           0       -3.296306    2.695812    2.886614
     44          1           0       -3.148931    3.718553    2.524606
     45          1           0       -2.369476    2.149713    2.681606
     46          8           0       -3.562908    0.602982    0.338504
     47          6           0       -3.578574    2.690199    4.367621
     48          6           0       -4.373612    3.681432    4.952846
     49          1           0       -4.775259    4.480481    4.336153
     50          6           0       -3.075435    1.663693    5.174841
     51          1           0       -2.446238    0.895829    4.733340
     52          6           0       -4.651356    3.656684    6.317876
     53          1           0       -5.257048    4.441841    6.759398
     54          6           0       -3.352434    1.633116    6.542148
     55          1           0       -2.931182    0.845471    7.159773
     56          6           0       -4.138684    2.632759    7.116731
     57          1           0       -4.335022    2.626087    8.184526
     58          7           0       -3.731441    2.812877   -0.164340
     59          1           0       -3.974306    3.734781    0.171006
     60          6           0       -3.013509    2.722512   -1.443426
     61          1           0       -3.232943    1.727496   -1.840835
     62          6           0       -1.488247    2.786961   -1.198696
     63          6           0       -3.483482    3.803445   -2.410204
     64          1           0       -2.914736    3.678977   -3.337385
     65          1           0       -3.188356    4.784274   -2.017638
     66          8           0       -0.768651    3.629699   -1.730855
     67          6           0       -4.990122    3.784269   -2.718159
     68          1           0       -5.536004    3.971348   -1.781887
     69          6           0       -5.330761    4.917584   -3.692857
     70          1           0       -4.827410    4.766360   -4.654537
     71          1           0       -5.016532    5.890897   -3.302052
     72          1           0       -6.407013    4.961897   -3.884217
     73          6           0       -5.454929    2.429779   -3.267061
     74          1           0       -4.893104    2.161399   -4.169353
     75          1           0       -6.514827    2.465684   -3.536066
     76          1           0       -5.328766    1.621702   -2.539649
     77          7           0       -1.031777    1.858469   -0.323802
     78          1           0       -1.636913    1.069074   -0.121355
     79          6           0        0.387107    1.725124   -0.052613
     80          1           0        0.750767    2.672189    0.363028
     81          6           0        1.138325    1.424278   -1.358776
     82          6           0        0.592731    0.592947    0.958796
     83          1           0        0.200287   -0.333573    0.524681
     84          1           0        0.003651    0.801912    1.856961
     85          8           0        0.694958    0.642325   -2.188415
     86          6           0        2.052436    0.388639    1.359302
     87          1           0        2.664191    0.009382    0.536246
     88          1           0        2.521972    1.334157    1.662115
     89          6           0        2.171256   -0.559943    2.532514
     90          8           0        1.260773   -0.883656    3.266522
     91          8           0        3.435374   -0.999228    2.685180
     92          7           0        2.310706    2.098948   -1.489150
     93          1           0        2.720355    2.567714   -0.687132
     94          6           0        3.280906    1.782288   -2.512330
     95          1           0        2.936295    0.887636   -3.037729
     96          6           0        4.634239    1.545135   -1.828311
     97          6           0        3.465714    2.957120   -3.507495
     98          1           0        3.546505    3.883040   -2.929226
     99          1           0        4.398796    2.823394   -4.057080
    100          8           0        4.912004    2.102657   -0.765368
    101          6           0        2.354788    3.053060   -4.540937
    102          7           0        1.148904    3.462801   -4.099803
    103          1           0        0.381340    3.420534   -4.753568
    104          1           0        0.914663    3.562371   -3.119108
    105          8           0        2.566210    2.763667   -5.727727
    106          7           0        5.437377    0.745423   -2.541877
    107          1           0        5.124584    0.406225   -3.446937
    108          6           0        6.881180    0.673528   -2.417742
    109          1           0        7.235677    1.591988   -1.939798
    110          6           0        7.379213    0.598986   -3.869715
    111          6           0        7.360866   -0.535861   -1.572893
    112          1           0        8.435608   -0.429862   -1.397946
    113          1           0        6.862648   -0.458086   -0.601107
    114          8           0        6.526732    0.437851   -4.781747
    115          6           0        7.078113   -1.859278   -2.239689
    116          6           0        5.805889   -2.443622   -2.186244
    117          1           0        5.024328   -1.967920   -1.599853
    118          6           0        8.076450   -2.496368   -2.987402
    119          1           0        9.072721   -2.061710   -3.039580
    120          6           0        5.524113   -3.624169   -2.866929
    121          1           0        4.541933   -4.082768   -2.824236
    122          6           0        7.804743   -3.678013   -3.673414
    123          1           0        8.591932   -4.159041   -4.249810
    124          8           0        6.203609   -5.399790   -4.273628
    125          1           0        6.989643   -5.724447   -4.732391
    126          6           0        6.527799   -4.242809   -3.618761
    127          7           0        8.676278    0.682824   -4.093033
    128          1           0        9.386018    0.473585   -3.353372
    129          6           0        9.271369    0.212733   -5.338809
    130          1           0        8.587653   -0.500888   -5.808950
    131          6           0       10.583002   -0.570926   -4.921651
    132          6           0        9.605732    1.360360   -6.285561
    133          1           0       10.308302    2.042693   -5.793964
    134          1           0       10.147789    0.929063   -7.133357
    135          8           0       11.245363   -1.028256   -5.859074
    136          6           0        8.373161    2.153876   -6.729697
    137          1           0        7.851810    2.543602   -5.846964
    138          1           0        8.686605    3.023993   -7.321761
    139          6           0        7.386099    1.324906   -7.551709
    140          1           0        7.866957    0.910447   -8.441913
    141          1           0        7.003912    0.485799   -6.969347
    142          7           0        6.237640    2.122778   -8.013239
    143          1           0        6.419391    2.781987   -8.757262
    144          7           0        4.927837    1.767983   -6.111300
    145          1           0        4.036774    1.918068   -5.641871
    146          1           0        5.662798    1.249097   -5.602357
    147          7           0        4.204624    3.211084   -7.773874
    148          1           0        3.346105    3.323891   -7.253178
    149          1           0        4.153824    3.362059   -8.769080
    150          6           0        5.134342    2.350938   -7.284634
    151          8           0       10.770735   -0.614499   -3.664575
    152          1           0        3.442495   -1.579914    3.464973
 ---------------------------------------------------------------------

 SCF Done:  E(RB3LYP) =  -3587.09176405     A.U. after    1 cycles

 Alpha  occ. eigenvalues --  -19.27797 -19.25746 -19.23184 -19.22916 -19.20641
 Alpha  occ. eigenvalues --  -19.20531 -19.20324 -19.19634 -19.18496 -19.17839
 Alpha  occ. eigenvalues --  -19.16958 -19.06603 -19.05314 -14.59655 -14.50054
 Alpha  occ. eigenvalues --  -14.47208 -14.46856 -14.43719 -14.43364 -14.43091
 Alpha  occ. eigenvalues --  -14.43078 -14.42077 -14.41077 -14.39199 -14.37883
 Alpha  occ. eigenvalues --  -10.44180 -10.40872 -10.40136 -10.39794 -10.38600
 Alpha  occ. eigenvalues --  -10.38568 -10.37749 -10.37192 -10.35637 -10.34970
 Alpha  occ. eigenvalues --  -10.34961 -10.34717 -10.34285 -10.33042 -10.32227
 Alpha  occ. eigenvalues --  -10.31089 -10.30900 -10.30782 -10.30148 -10.29788
 Alpha  occ. eigenvalues --  -10.29610 -10.28725 -10.27984 -10.27929 -10.27823
 Alpha  occ. eigenvalues --  -10.27818 -10.27809 -10.27748 -10.27497 -10.27378
 Alpha  occ. eigenvalues --  -10.27215 -10.27150 -10.27017 -10.26637 -10.26619
 Alpha  occ. eigenvalues --  -10.26613 -10.26535 -10.25629 -10.24478 -10.24241
 Alpha  occ. eigenvalues --  -10.24158 -10.22350 -10.21852 -10.21498 -10.21079
 Alpha  occ. eigenvalues --  -10.20774 -10.20438 -10.20270 -10.19869 -10.19675
 Alpha  occ. eigenvalues --   -1.20252  -1.16808  -1.15550  -1.14695  -1.13694
 Alpha  occ. eigenvalues --   -1.12437  -1.12308  -1.10655  -1.09623  -1.08612
 Alpha  occ. eigenvalues --   -1.07791  -1.07643  -1.07080  -1.07046  -1.03982
 Alpha  occ. eigenvalues --   -1.03446  -1.00654  -1.00052  -0.99644  -0.98388
 Alpha  occ. eigenvalues --   -0.98240  -0.96863  -0.95745  -0.95307  -0.94656
 Alpha  occ. eigenvalues --   -0.94256  -0.92048  -0.90742  -0.89945  -0.88437
 Alpha  occ. eigenvalues --   -0.88371  -0.87273  -0.87042  -0.85902  -0.84760
 Alpha  occ. eigenvalues --   -0.83838  -0.83282  -0.83014  -0.82209  -0.81853
 Alpha  occ. eigenvalues --   -0.81722  -0.80585  -0.80283  -0.77057  -0.76329
 Alpha  occ. eigenvalues --   -0.76257  -0.76186  -0.75606  -0.75406  -0.74872
 Alpha  occ. eigenvalues --   -0.74709  -0.73673  -0.73649  -0.72140  -0.71337
 Alpha  occ. eigenvalues --   -0.71076  -0.70360  -0.69626  -0.69217  -0.69137
 Alpha  occ. eigenvalues --   -0.68633  -0.68333  -0.68094  -0.67354  -0.66890
 Alpha  occ. eigenvalues --   -0.66576  -0.66291  -0.65731  -0.65112  -0.64931
 Alpha  occ. eigenvalues --   -0.64337  -0.64248  -0.63834  -0.62845  -0.62755
 Alpha  occ. eigenvalues --   -0.62453  -0.62352  -0.61251  -0.60961  -0.60504
 Alpha  occ. eigenvalues --   -0.60219  -0.60035  -0.59613  -0.59498  -0.59213
 Alpha  occ. eigenvalues --   -0.59063  -0.58329  -0.57931  -0.57412  -0.57366
 Alpha  occ. eigenvalues --   -0.56925  -0.56641  -0.56539  -0.56374  -0.55965
 Alpha  occ. eigenvalues --   -0.55872  -0.55710  -0.55399  -0.55129  -0.54679
 Alpha  occ. eigenvalues --   -0.54347  -0.54025  -0.53971  -0.53829  -0.53639
 Alpha  occ. eigenvalues --   -0.53432  -0.53169  -0.52851  -0.52382  -0.52022
 Alpha  occ. eigenvalues --   -0.51932  -0.51649  -0.51102  -0.51042  -0.50795
 Alpha  occ. eigenvalues --   -0.50754  -0.50700  -0.50439  -0.50314  -0.50033
 Alpha  occ. eigenvalues --   -0.49840  -0.49597  -0.49473  -0.49201  -0.49183
 Alpha  occ. eigenvalues --   -0.49090  -0.48848  -0.48604  -0.48391  -0.48195
 Alpha  occ. eigenvalues --   -0.48001  -0.47657  -0.47621  -0.47448  -0.47315
 Alpha  occ. eigenvalues --   -0.47229  -0.46848  -0.46590  -0.46566  -0.46275
 Alpha  occ. eigenvalues --   -0.46257  -0.46060  -0.45822  -0.45596  -0.45242
 Alpha  occ. eigenvalues --   -0.45217  -0.45108  -0.44819  -0.44809  -0.44506
 Alpha  occ. eigenvalues --   -0.44401  -0.44181  -0.43849  -0.43727  -0.43507
 Alpha  occ. eigenvalues --   -0.43318  -0.43109  -0.42873  -0.42843  -0.42780
 Alpha  occ. eigenvalues --   -0.42498  -0.42282  -0.42033  -0.41929  -0.41888
 Alpha  occ. eigenvalues --   -0.41503  -0.41433  -0.40849  -0.40261  -0.40184
 Alpha  occ. eigenvalues --   -0.40084  -0.39939  -0.39596  -0.39087  -0.38166
 Alpha  occ. eigenvalues --   -0.38077  -0.37930  -0.37517  -0.37029  -0.36829
 Alpha  occ. eigenvalues --   -0.36713  -0.36620  -0.36402  -0.35721  -0.35474
 Alpha  occ. eigenvalues --   -0.35128  -0.34968  -0.34697  -0.34533  -0.34144
 Alpha  occ. eigenvalues --   -0.33807  -0.33732  -0.33537  -0.33310  -0.33088
 Alpha  occ. eigenvalues --   -0.33024  -0.32038  -0.31711  -0.31577  -0.31242
 Alpha  occ. eigenvalues --   -0.30973  -0.29285  -0.26810  -0.23602  -0.21617
 Alpha  occ. eigenvalues --   -0.21422  -0.19481
 Alpha virt. eigenvalues --   -0.13089  -0.11262  -0.10458  -0.09200  -0.08843
 Alpha virt. eigenvalues --   -0.08375  -0.06935  -0.06845  -0.06417  -0.05408
 Alpha virt. eigenvalues --   -0.05208  -0.04651  -0.03554  -0.03426  -0.02824

 Mulliken charges:
               1
     1  N   -0.562318
     2  H    0.350066
     3  H    0.377762
     4  H    0.342913
     5  C   -0.081061
     6  H    0.170407
     7  C    0.645368
     8  C   -0.086586
     9  H    0.121113
    10  O   -0.552639
    11  C   -0.336791
    12  H    0.146189
    13  H    0.146843
    14  H    0.095527
    15  C   -0.346562
    16  H    0.158541
    17  H    0.118336
    18  H    0.140151
    19  N   -0.518308
    20  H    0.308953
    21  C   -0.034378
    22  H    0.148871
    23  C    0.632781
    24  C   -0.041842
    25  H    0.115035
    26  O   -0.554624
    27  C   -0.208691
    28  H    0.100436
    29  H    0.121933
    30  C   -0.327347
    31  H    0.120513
    32  H    0.096849
    33  H    0.128858
    34  C   -0.328332
    35  H    0.126500
    36  H    0.112347
    37  H    0.116856
    38  N   -0.524230
    39  H    0.294660
    40  C   -0.022078
    41  H    0.150542
    42  C    0.623991
    43  C   -0.253368
    44  H    0.117428
    45  H    0.127319
    46  O   -0.557924
    47  C    0.126982
    48  C   -0.090326
    49  H    0.088683
    50  C   -0.133254
    51  H    0.098859
    52  C   -0.089912
    53  H    0.099775
    54  C   -0.098357
    55  H    0.097429
    56  C   -0.093902
    57  H    0.088314
    58  N   -0.513592
    59  H    0.276405
    60  C   -0.061072
    61  H    0.167714
    62  C    0.639268
    63  C   -0.175292
    64  H    0.118712
    65  H    0.108214
    66  O   -0.546213
    67  C   -0.062641
    68  H    0.075220
    69  C   -0.309885
    70  H    0.109854
    71  H    0.104186
    72  H    0.110442
    73  C   -0.319547
    74  H    0.111543
    75  H    0.112301
    76  H    0.103260
    77  N   -0.552185
    78  H    0.302146
    79  C    0.008429
    80  H    0.116026
    81  C    0.601188
    82  C   -0.207550
    83  H    0.136602
    84  H    0.127525
    85  O   -0.527448
    86  C   -0.278243
    87  H    0.159121
    88  H    0.151105
    89  C    0.578221
    90  O   -0.474511
    91  O   -0.471354
    92  N   -0.522667
    93  H    0.280305
    94  C   -0.049616
    95  H    0.158057
    96  C    0.594327
    97  C   -0.274739
    98  H    0.148410
    99  H    0.139938
   100  O   -0.542769
   101  C    0.596932
   102  N   -0.585996
   103  H    0.283256
   104  H    0.323503
   105  O   -0.562160
   106  N   -0.498703
   107  H    0.282740
   108  C   -0.025786
   109  H    0.144589
   110  C    0.608883
   111  C   -0.246319
   112  H    0.137432
   113  H    0.120011
   114  O   -0.623121
   115  C    0.089015
   116  C   -0.126937
   117  H    0.062544
   118  C   -0.145858
   119  H    0.146643
   120  C   -0.103607
   121  H    0.082637
   122  C   -0.143479
   123  H    0.096269
   124  O   -0.563352
   125  H    0.319607
   126  C    0.326190
   127  N   -0.489319
   128  H    0.295479
   129  C   -0.067193
   130  H    0.118009
   131  C    0.589431
   132  C   -0.164067
   133  H    0.102674
   134  H    0.129815
   135  O   -0.566734
   136  C   -0.177350
   137  H    0.093902
   138  H    0.083820
   139  C   -0.080077
   140  H    0.125885
   141  H    0.162144
   142  N   -0.536289
   143  H    0.273893
   144  N   -0.684181
   145  H    0.313057
   146  H    0.398786
   147  N   -0.646144
   148  H    0.321088
   149  H    0.276765
   150  C    0.755242
   151  O   -0.617018
   152  H    0.329948
 Sum of Mulliken charges =   1.00000

 Dipole moment (field-independent basis, Debye):
    X=            -49.0171    Y=              7.1143    Z=             25.9553  Tot=             55.9193
 Quadrupole moment (field-independent basis, Debye-Ang):
   XX=           -374.4362   YY=           -389.4444   ZZ=           -128.7484
   XY=             78.4270   XZ=           -195.9824   YZ=            -98.0863

 Normal termination of Gaussian 16 at Thu Sep  8 08:44:52 2022.
