 Gaussian 16, Revision C.01,
 Gaussian 16:  ES64L-G16RevC.01  3-Jul-2019

 ----------------------------------------------------------------------
 # B3LYP/6-31G** empiricaldispersion=gd3bj guess=read geom=check nosymm
  integral(ultrafinegrid)
 ----------------------------------------------------------------------

 ------------------------------------------------------
 Candidate Structure: Conf:126 Charge calc in gas phase
 ------------------------------------------------------
 Structure from the checkpoint file:  "conf-126.chk"
 Charge =  1 Multiplicity = 1

                          Input orientation:
 ---------------------------------------------------------------------
 Center     Atomic      Atomic             Coordinates (Angstroms)
 Number     Number       Type             X           Y           Z
 ---------------------------------------------------------------------
      1          7           0        0.267092   -1.852044    6.636489
      2          1           0        0.288257   -2.798504    7.018947
      3          1           0        0.613781   -1.872467    5.627606
      4          1           0        0.839026   -1.238591    7.218724
      5          6           0       -1.138736   -1.324476    6.431441
      6          1           0       -1.822938   -1.942953    7.015863
      7          6           0       -1.352562   -1.575859    4.917028
      8          6           0       -1.235453    0.146775    6.903598
      9          1           0       -1.080960    0.103298    7.991716
     10          8           0       -0.319716   -1.746302    4.226745
     11          6           0       -0.163419    1.053185    6.284335
     12          1           0       -0.302989    1.131093    5.206301
     13          1           0       -0.255144    2.055205    6.709852
     14          1           0        0.864433    0.726447    6.486611
     15          6           0       -2.641654    0.706131    6.647598
     16          1           0       -2.822638    0.857552    5.581768
     17          1           0       -3.423798    0.055627    7.054076
     18          1           0       -2.737618    1.674537    7.144031
     19          7           0       -2.600922   -1.665284    4.513245
     20          1           0       -3.353157   -1.364931    5.130974
     21          6           0       -3.069747   -1.817532    3.132565
     22          1           0       -2.225833   -1.662741    2.461761
     23          6           0       -4.103119   -0.683285    2.978219
     24          6           0       -3.679045   -3.236253    2.938339
     25          1           0       -2.851674   -3.930465    3.142536
     26          8           0       -4.802161   -0.372729    3.949233
     27          6           0       -4.151405   -3.483802    1.494029
     28          1           0       -4.882370   -2.715217    1.213554
     29          1           0       -4.701964   -4.431324    1.494466
     30          6           0       -4.809655   -3.527198    3.934509
     31          1           0       -5.660371   -2.858016    3.783239
     32          1           0       -4.484748   -3.420990    4.974308
     33          1           0       -5.156911   -4.555792    3.806705
     34          6           0       -3.033172   -3.558284    0.452401
     35          1           0       -3.438511   -3.830914   -0.526090
     36          1           0       -2.505848   -2.610499    0.336452
     37          1           0       -2.293185   -4.318394    0.726018
     38          7           0       -4.141146   -0.113764    1.765430
     39          1           0       -3.471213   -0.429158    1.074271
     40          6           0       -4.829206    1.120486    1.405451
     41          1           0       -5.905192    0.936234    1.299044
     42          6           0       -4.246347    1.521028    0.032337
     43          6           0       -4.614113    2.243563    2.464200
     44          1           0       -3.576573    2.578262    2.419512
     45          1           0       -4.757963    1.773351    3.437632
     46          8           0       -3.430531    0.791599   -0.553522
     47          6           0       -5.568274    3.407027    2.329130
     48          6           0       -5.111394    4.679289    1.953990
     49          1           0       -4.059203    4.827325    1.729352
     50          6           0       -6.937019    3.226309    2.576040
     51          1           0       -7.299559    2.249255    2.885719
     52          6           0       -6.008633    5.741975    1.820918
     53          1           0       -5.639681    6.719806    1.527070
     54          6           0       -7.830645    4.287099    2.442972
     55          1           0       -8.886929    4.131067    2.638616
     56          6           0       -7.368280    5.549090    2.062989
     57          1           0       -8.064523    6.375019    1.958122
     58          7           0       -4.611286    2.712926   -0.467698
     59          1           0       -5.177687    3.320328    0.114428
     60          6           0       -3.786949    3.371473   -1.490370
     61          1           0       -3.638574    2.656820   -2.301668
     62          6           0       -2.434426    3.718153   -0.830520
     63          6           0       -4.494434    4.628615   -1.993138
     64          1           0       -4.747815    5.247710   -1.124920
     65          1           0       -5.436151    4.325220   -2.466915
     66          8           0       -2.356553    4.547111    0.077316
     67          6           0       -3.661936    5.469845   -2.975906
     68          1           0       -2.785212    5.841429   -2.428829
     69          6           0       -3.167932    4.657925   -4.181059
     70          1           0       -4.003608    4.168326   -4.695072
     71          1           0       -2.442691    3.888753   -3.898463
     72          1           0       -2.672043    5.310869   -4.905437
     73          6           0       -4.480387    6.683451   -3.431057
     74          1           0       -5.361448    6.367817   -4.001894
     75          1           0       -3.885229    7.339031   -4.073651
     76          1           0       -4.828079    7.273504   -2.576794
     77          7           0       -1.387726    2.991941   -1.273676
     78          1           0       -1.475150    2.423197   -2.108415
     79          6           0       -0.023081    3.167106   -0.818484
     80          1           0        0.128108    4.224960   -0.578094
     81          6           0        0.860275    2.744972   -2.009300
     82          6           0        0.328860    2.291310    0.418610
     83          1           0        1.267086    2.646597    0.854902
     84          1           0        0.524055    1.270479    0.089254
     85          8           0        0.351681    2.308579   -3.040379
     86          6           0       -0.771831    2.286627    1.476427
     87          1           0       -0.870331    3.257221    1.972691
     88          1           0       -1.735820    2.106182    1.001941
     89          6           0       -0.685477    1.219228    2.535697
     90          8           0       -1.588761    1.009298    3.336520
     91          8           0        0.453705    0.520307    2.548554
     92          7           0        2.201493    2.861422   -1.819200
     93          1           0        2.514069    2.898395   -0.853699
     94          6           0        3.108020    2.079591   -2.648972
     95          1           0        2.527965    1.672631   -3.477654
     96          6           0        3.631463    0.925266   -1.765966
     97          6           0        4.236317    2.942684   -3.230796
     98          1           0        3.813002    3.908534   -3.529529
     99          1           0        5.005997    3.152051   -2.478282
    100          8           0        3.543740    1.000098   -0.537129
    101          6           0        4.866453    2.292305   -4.461841
    102          7           0        5.927837    2.952543   -4.987972
    103          1           0        6.360219    2.572655   -5.816673
    104          1           0        6.266279    3.823250   -4.612406
    105          8           0        4.432088    1.255006   -4.954826
    106          7           0        4.152422   -0.116902   -2.437111
    107          1           0        4.268868   -0.054790   -3.447969
    108          6           0        4.553211   -1.345001   -1.785331
    109          1           0        4.679029   -1.128330   -0.721797
    110          6           0        5.855812   -1.833175   -2.426112
    111          6           0        3.465679   -2.444481   -1.966180
    112          1           0        3.381762   -2.645129   -3.039405
    113          1           0        3.828821   -3.362606   -1.492654
    114          8           0        6.075125   -1.643142   -3.621754
    115          6           0        2.135291   -2.039131   -1.388231
    116          6           0        1.790534   -2.381007   -0.075104
    117          1           0        2.466387   -3.002688    0.506290
    118          6           0        1.240674   -1.248206   -2.118349
    119          1           0        1.474075   -0.977533   -3.142837
    120          6           0        0.607520   -1.935926    0.505106
    121          1           0        0.346548   -2.197675    1.524860
    122          6           0        0.056226   -0.782434   -1.550006
    123          1           0       -0.609447   -0.145694   -2.124382
    124          8           0       -1.369184   -0.634553    0.402780
    125          1           0       -1.926763   -0.102174   -0.198770
    126          6           0       -0.249337   -1.115185   -0.229439
    127          7           0        6.669322   -2.531923   -1.608440
    128          1           0        6.508465   -2.600290   -0.610402
    129          6           0        7.888101   -3.185325   -2.058643
    130          1           0        7.689861   -3.713854   -2.993520
    131          6           0        8.328533   -4.199953   -0.991250
    132          6           0        9.005276   -2.134180   -2.298593
    133          1           0        8.701795   -1.546993   -3.168337
    134          1           0        8.991690   -1.444572   -1.443977
    135          8           0        8.956695   -5.202877   -1.367039
    136          6           0       10.425633   -2.710129   -2.497253
    137          1           0       10.365415   -3.779228   -2.722291
    138          1           0       10.913666   -2.220407   -3.347023
    139          6           0       11.341490   -2.496460   -1.281211
    140          1           0       12.363709   -2.822297   -1.496202
    141          1           0       11.416078   -1.428728   -1.052824
    142          7           0       10.874693   -3.148873   -0.052850
    143          1           0        9.961220   -2.836771    0.277891
    144          7           0       12.181356   -5.088133   -0.188786
    145          1           0       12.152168   -6.095638   -0.173081
    146          1           0       12.705824   -4.686685   -0.948690
    147          7           0       10.298856   -4.985817    1.195198
    148          1           0       10.412894   -5.980234    1.332185
    149          1           0        9.298547   -4.667316    1.060440
    150          6           0       11.102514   -4.426934    0.282369
    151          8           0        8.109477   -3.833515    0.225537
    152          1           0        0.316771   -0.248327    3.138923
 ---------------------------------------------------------------------

 SCF Done:  E(RB3LYP) =  -3587.15701254     A.U. after    2 cycles

 Alpha  occ. eigenvalues --  -19.26493 -19.26064 -19.23361 -19.21193 -19.20846
 Alpha  occ. eigenvalues --  -19.20112 -19.18662 -19.17889 -19.17465 -19.16369
 Alpha  occ. eigenvalues --  -19.14869 -19.13838 -19.12504 -14.58953 -14.48676
 Alpha  occ. eigenvalues --  -14.44993 -14.43883 -14.43845 -14.43635 -14.42184
 Alpha  occ. eigenvalues --  -14.41704 -14.41699 -14.41210 -14.39852 -14.39210
 Alpha  occ. eigenvalues --  -10.42897 -10.39835 -10.39442 -10.39208 -10.37715
 Alpha  occ. eigenvalues --  -10.37160 -10.35399 -10.35231 -10.34910 -10.33389
 Alpha  occ. eigenvalues --  -10.33064 -10.32079 -10.32011 -10.31885 -10.30756
 Alpha  occ. eigenvalues --  -10.29965 -10.29918 -10.29900 -10.29790 -10.28744
 Alpha  occ. eigenvalues --  -10.28514 -10.27961 -10.27542 -10.27483 -10.26133
 Alpha  occ. eigenvalues --  -10.26018 -10.25918 -10.25540 -10.25439 -10.25373
 Alpha  occ. eigenvalues --  -10.24977 -10.24922 -10.24919 -10.24835 -10.24795
 Alpha  occ. eigenvalues --  -10.24745 -10.24502 -10.24447 -10.24281 -10.23974
 Alpha  occ. eigenvalues --  -10.23966 -10.23820 -10.23795 -10.23719 -10.23708
 Alpha  occ. eigenvalues --  -10.23657 -10.23096 -10.22966 -10.22292 -10.22114
 Alpha  occ. eigenvalues --   -1.18582  -1.17402  -1.13208  -1.12895  -1.11879
 Alpha  occ. eigenvalues --   -1.11097  -1.10773  -1.09574  -1.09342  -1.08986
 Alpha  occ. eigenvalues --   -1.08186  -1.08065  -1.06929  -1.06101  -1.05437
 Alpha  occ. eigenvalues --   -1.00905  -1.00609  -0.98987  -0.98633  -0.98626
 Alpha  occ. eigenvalues --   -0.97698  -0.96998  -0.96406  -0.96321  -0.95395
 Alpha  occ. eigenvalues --   -0.93896  -0.91753  -0.90267  -0.89658  -0.87774
 Alpha  occ. eigenvalues --   -0.86588  -0.85716  -0.85296  -0.84892  -0.84416
 Alpha  occ. eigenvalues --   -0.82915  -0.81872  -0.81442  -0.80324  -0.80110
 Alpha  occ. eigenvalues --   -0.79759  -0.79739  -0.79449  -0.79153  -0.78119
 Alpha  occ. eigenvalues --   -0.77398  -0.74308  -0.73719  -0.73554  -0.73289
 Alpha  occ. eigenvalues --   -0.72800  -0.72723  -0.72069  -0.71632  -0.70700
 Alpha  occ. eigenvalues --   -0.70117  -0.69655  -0.68907  -0.67939  -0.67783
 Alpha  occ. eigenvalues --   -0.67183  -0.66827  -0.66445  -0.65772  -0.65604
 Alpha  occ. eigenvalues --   -0.65408  -0.65188  -0.65059  -0.64940  -0.64639
 Alpha  occ. eigenvalues --   -0.64108  -0.63672  -0.63411  -0.62461  -0.61754
 Alpha  occ. eigenvalues --   -0.61700  -0.61565  -0.61450  -0.61179  -0.60320
 Alpha  occ. eigenvalues --   -0.59822  -0.59729  -0.59203  -0.58554  -0.57720
 Alpha  occ. eigenvalues --   -0.57294  -0.56985  -0.56680  -0.56204  -0.55909
 Alpha  occ. eigenvalues --   -0.55630  -0.55475  -0.55354  -0.55312  -0.54911
 Alpha  occ. eigenvalues --   -0.54675  -0.54571  -0.54258  -0.53798  -0.53388
 Alpha  occ. eigenvalues --   -0.53169  -0.52962  -0.52588  -0.52564  -0.52459
 Alpha  occ. eigenvalues --   -0.52243  -0.51639  -0.51511  -0.51385  -0.51203
 Alpha  occ. eigenvalues --   -0.51026  -0.50964  -0.50836  -0.50322  -0.50255
 Alpha  occ. eigenvalues --   -0.49950  -0.49842  -0.49376  -0.49335  -0.49112
 Alpha  occ. eigenvalues --   -0.48927  -0.48812  -0.48718  -0.48549  -0.48307
 Alpha  occ. eigenvalues --   -0.47975  -0.47875  -0.47834  -0.47498  -0.47315
 Alpha  occ. eigenvalues --   -0.47117  -0.47066  -0.46929  -0.46682  -0.46459
 Alpha  occ. eigenvalues --   -0.46319  -0.46166  -0.46094  -0.45953  -0.45937
 Alpha  occ. eigenvalues --   -0.45729  -0.45676  -0.45518  -0.45339  -0.45059
 Alpha  occ. eigenvalues --   -0.44826  -0.44484  -0.44256  -0.43976  -0.43878
 Alpha  occ. eigenvalues --   -0.43849  -0.43485  -0.43273  -0.43077  -0.42923
 Alpha  occ. eigenvalues --   -0.42517  -0.42410  -0.42204  -0.41942  -0.41808
 Alpha  occ. eigenvalues --   -0.41619  -0.41311  -0.41189  -0.41141  -0.40817
 Alpha  occ. eigenvalues --   -0.40644  -0.40411  -0.40280  -0.40180  -0.39952
 Alpha  occ. eigenvalues --   -0.39892  -0.39533  -0.39429  -0.39265  -0.39170
 Alpha  occ. eigenvalues --   -0.38574  -0.38297  -0.38202  -0.37938  -0.37931
 Alpha  occ. eigenvalues --   -0.37683  -0.37502  -0.37278  -0.35750  -0.35635
 Alpha  occ. eigenvalues --   -0.35196  -0.34803  -0.33765  -0.33362  -0.33231
 Alpha  occ. eigenvalues --   -0.32899  -0.32871  -0.32392  -0.31705  -0.31275
 Alpha  occ. eigenvalues --   -0.31200  -0.30790  -0.30628  -0.30294  -0.30200
 Alpha  occ. eigenvalues --   -0.29791  -0.29631  -0.29176  -0.28758  -0.28168
 Alpha  occ. eigenvalues --   -0.26789  -0.25852
 Alpha virt. eigenvalues --   -0.12123  -0.10257  -0.08055  -0.06579  -0.06292
 Alpha virt. eigenvalues --   -0.05923  -0.05681  -0.05640  -0.05421  -0.05248
 Alpha virt. eigenvalues --   -0.04593  -0.04319  -0.04188  -0.03520  -0.03330

 Mulliken charges:
               1
     1  N   -0.554305
     2  H    0.350216
     3  H    0.368755
     4  H    0.343125
     5  C   -0.091227
     6  H    0.167456
     7  C    0.676026
     8  C   -0.075005
     9  H    0.116840
    10  O   -0.593014
    11  C   -0.351399
    12  H    0.164558
    13  H    0.147838
    14  H    0.078186
    15  C   -0.355943
    16  H    0.181357
    17  H    0.113199
    18  H    0.138643
    19  N   -0.490230
    20  H    0.304069
    21  C   -0.060197
    22  H    0.172121
    23  C    0.665163
    24  C   -0.044538
    25  H    0.095265
    26  O   -0.569083
    27  C   -0.185671
    28  H    0.103612
    29  H    0.108287
    30  C   -0.328846
    31  H    0.136152
    32  H    0.077912
    33  H    0.119414
    34  C   -0.344554
    35  H    0.116301
    36  H    0.124811
    37  H    0.105923
    38  N   -0.560703
    39  H    0.306188
    40  C    0.010223
    41  H    0.150826
    42  C    0.613881
    43  C   -0.262372
    44  H    0.129488
    45  H    0.166455
    46  O   -0.586295
    47  C    0.053555
    48  C   -0.168327
    49  H    0.135506
    50  C   -0.114200
    51  H    0.095145
    52  C   -0.085559
    53  H    0.102018
    54  C   -0.085450
    55  H    0.099924
    56  C   -0.084225
    57  H    0.100347
    58  N   -0.520442
    59  H    0.289937
    60  C   -0.002805
    61  H    0.128200
    62  C    0.601877
    63  C   -0.187514
    64  H    0.115763
    65  H    0.107892
    66  O   -0.550352
    67  C   -0.076204
    68  H    0.107577
    69  C   -0.319818
    70  H    0.105235
    71  H    0.102035
    72  H    0.112330
    73  C   -0.311443
    74  H    0.105532
    75  H    0.108130
    76  H    0.102935
    77  N   -0.515536
    78  H    0.296239
    79  C   -0.021865
    80  H    0.146751
    81  C    0.599805
    82  C   -0.195118
    83  H    0.119374
    84  H    0.156730
    85  O   -0.532990
    86  C   -0.264461
    87  H    0.153704
    88  H    0.138075
    89  C    0.612759
    90  O   -0.528266
    91  O   -0.487803
    92  N   -0.520330
    93  H    0.278726
    94  C   -0.045906
    95  H    0.175320
    96  C    0.602558
    97  C   -0.273929
    98  H    0.149775
    99  H    0.130013
   100  O   -0.557427
   101  C    0.602564
   102  N   -0.606881
   103  H    0.292442
   104  H    0.277436
   105  O   -0.510623
   106  N   -0.526706
   107  H    0.315327
   108  C   -0.015322
   109  H    0.126943
   110  C    0.604951
   111  C   -0.242370
   112  H    0.126675
   113  H    0.110395
   114  O   -0.540712
   115  C    0.132497
   116  C   -0.120354
   117  H    0.076794
   118  C   -0.135237
   119  H    0.105095
   120  C   -0.106886
   121  H    0.077166
   122  C   -0.141255
   123  H    0.099744
   124  O   -0.635675
   125  H    0.367453
   126  C    0.339866
   127  N   -0.536743
   128  H    0.271666
   129  C    0.036120
   130  H    0.132523
   131  C    0.567755
   132  C   -0.200169
   133  H    0.139833
   134  H    0.085478
   135  O   -0.577314
   136  C   -0.191201
   137  H    0.143392
   138  H    0.105965
   139  C   -0.089112
   140  H    0.102332
   141  H    0.134162
   142  N   -0.496386
   143  H    0.295290
   144  N   -0.615980
   145  H    0.300413
   146  H    0.295878
   147  N   -0.596935
   148  H    0.269981
   149  H    0.332208
   150  C    0.746328
   151  O   -0.654218
   152  H    0.342703
 Sum of Mulliken charges =   1.00000

 Dipole moment (field-independent basis, Debye):
    X=              9.4973    Y=             -2.2111    Z=             20.8797  Tot=             23.0445
 Quadrupole moment (field-independent basis, Debye-Ang):
   XX=           -187.2545   YY=           -366.7091   ZZ=           -278.1759
   XY=            -46.4852   XZ=            -21.3944   YZ=            -70.5038

 Normal termination of Gaussian 16 at Thu Sep  8 08:48:12 2022.
