 Gaussian 16, Revision C.01,
 Gaussian 16:  ES64L-G16RevC.01  3-Jul-2019

 ----------------------------------------------------------------------
 # B3LYP/6-31G** empiricaldispersion=gd3bj guess=read geom=check nosymm
  integral(ultrafinegrid)
 ----------------------------------------------------------------------

 ------------------------------------------------------
 Candidate Structure: Conf:779 Charge calc in gas phase
 ------------------------------------------------------
 Structure from the checkpoint file:  "conf-779.chk"
 Charge =  1 Multiplicity = 1

                          Input orientation:
 ---------------------------------------------------------------------
 Center     Atomic      Atomic             Coordinates (Angstroms)
 Number     Number       Type             X           Y           Z
 ---------------------------------------------------------------------
      1          7           0      -10.595301    5.861798    4.439424
      2          1           0      -11.034136    6.350231    3.658412
      3          1           0      -10.979835    4.847949    4.517015
      4          1           0      -10.753548    6.393213    5.296597
      5          6           0       -9.135938    5.543251    4.204567
      6          1           0       -8.812721    6.050377    3.293050
      7          6           0       -9.192987    4.007068    3.998159
      8          6           0       -8.275253    5.996494    5.407916
      9          1           0       -8.525432    7.056452    5.560245
     10          8           0      -10.275610    3.447064    4.265242
     11          6           0       -8.610760    5.215858    6.685913
     12          1           0       -8.338398    4.161449    6.583428
     13          1           0       -8.047924    5.625423    7.527479
     14          1           0       -9.671762    5.258806    6.957110
     15          6           0       -6.775391    5.930018    5.087064
     16          1           0       -6.406876    4.902581    5.027722
     17          1           0       -6.536296    6.440240    4.148452
     18          1           0       -6.215130    6.426998    5.882497
     19          7           0       -8.096888    3.409114    3.579798
     20          1           0       -7.222637    3.909806    3.415622
     21          6           0       -7.931122    1.964910    3.427659
     22          1           0       -8.473463    1.470130    4.236962
     23          6           0       -6.415278    1.761360    3.580713
     24          6           0       -8.489889    1.484477    2.055749
     25          1           0       -9.536378    1.818034    2.062612
     26          8           0       -5.652645    2.725201    3.454550
     27          6           0       -8.489954   -0.047003    1.899081
     28          1           0       -7.458266   -0.396306    1.780581
     29          1           0       -8.978616   -0.262184    0.942338
     30          6           0       -7.752082    2.142123    0.884442
     31          1           0       -6.723753    1.779736    0.821722
     32          1           0       -7.734954    3.233304    0.968116
     33          1           0       -8.250969    1.891464   -0.055697
     34          6           0       -9.222965   -0.817392    3.002443
     35          1           0       -9.296125   -1.878364    2.749457
     36          1           0       -8.724725   -0.759304    3.978817
     37          1           0      -10.240594   -0.437629    3.143691
     38          7           0       -5.992837    0.513529    3.855645
     39          1           0       -6.665196   -0.236561    3.780715
     40          6           0       -4.590096    0.153971    3.672006
     41          1           0       -3.984472    0.805906    4.306358
     42          6           0       -4.212887    0.367248    2.193551
     43          6           0       -4.385414   -1.317915    4.075025
     44          1           0       -5.025125   -1.938234    3.436691
     45          1           0       -4.728673   -1.438212    5.109028
     46          8           0       -5.029448    0.117339    1.303312
     47          6           0       -2.945079   -1.750134    3.936149
     48          6           0       -2.538698   -2.555382    2.867160
     49          1           0       -3.276124   -2.895412    2.144942
     50          6           0       -1.986053   -1.307638    4.855432
     51          1           0       -2.292063   -0.686786    5.694460
     52          6           0       -1.201133   -2.925543    2.727653
     53          1           0       -0.884237   -3.560813    1.907829
     54          6           0       -0.646823   -1.664702    4.709713
     55          1           0        0.086434   -1.313980    5.429127
     56          6           0       -0.253209   -2.479089    3.647983
     57          1           0        0.781994   -2.776980    3.528086
     58          7           0       -2.968377    0.823316    1.982114
     59          1           0       -2.285568    0.840892    2.734393
     60          6           0       -2.387018    0.963667    0.658720
     61          1           0       -2.936768    0.312611   -0.025935
     62          6           0       -0.926406    0.512932    0.779171
     63          6           0       -2.429751    2.426002    0.166643
     64          1           0       -1.889431    2.484920   -0.787276
     65          1           0       -1.862244    3.027013    0.887619
     66          8           0       -0.332824    0.574612    1.856880
     67          6           0       -3.837014    3.018129   -0.009386
     68          1           0       -4.383336    2.873664    0.931165
     69          6           0       -3.732615    4.526824   -0.265000
     70          1           0       -3.182259    4.732196   -1.190689
     71          1           0       -3.212777    5.037162    0.552896
     72          1           0       -4.726480    4.975805   -0.367565
     73          6           0       -4.610248    2.325339   -1.137508
     74          1           0       -4.062715    2.396570   -2.085108
     75          1           0       -5.585769    2.800308   -1.286399
     76          1           0       -4.789564    1.272101   -0.911155
     77          7           0       -0.353893    0.109617   -0.371070
     78          1           0       -0.865128    0.050026   -1.245506
     79          6           0        1.029049   -0.318171   -0.455067
     80          1           0        1.654305    0.387577    0.104526
     81          6           0        1.382762   -0.290015   -1.947475
     82          6           0        1.189047   -1.728135    0.152406
     83          1           0        0.621217   -2.438461   -0.457205
     84          1           0        0.718832   -1.698971    1.135749
     85          8           0        0.500514   -0.339530   -2.805833
     86          6           0        2.632387   -2.199201    0.305635
     87          1           0        3.147287   -2.318699   -0.652334
     88          1           0        3.226571   -1.471959    0.875887
     89          6           0        2.714682   -3.514289    1.046411
     90          8           0        1.793472   -4.077205    1.601253
     91          8           0        3.969170   -4.013354    1.034598
     92          7           0        2.697910   -0.249875   -2.237671
     93          1           0        3.414832   -0.163457   -1.525470
     94          6           0        3.209110   -0.334112   -3.589087
     95          1           0        2.640713   -1.074478   -4.156066
     96          6           0        4.684116   -0.740214   -3.466092
     97          6           0        3.086575    1.023474   -4.329412
     98          1           0        2.020298    1.249891   -4.414211
     99          1           0        3.565548    1.805951   -3.733120
    100          8           0        5.304651   -0.514525   -2.421407
    101          6           0        3.689209    0.902114   -5.723727
    102          7           0        4.601181    1.841576   -6.073579
    103          1           0        5.230377    1.594170   -6.829763
    104          1           0        5.000832    2.429763   -5.358066
    105          8           0        3.379411   -0.039503   -6.454794
    106          7           0        5.231976   -1.298464   -4.568353
    107          1           0        4.675346   -1.283872   -5.420155
    108          6           0        6.687425   -1.349235   -4.721303
    109          1           0        7.098053   -1.549715   -3.730316
    110          6           0        7.158673    0.033768   -5.218796
    111          6           0        7.118947   -2.455649   -5.691176
    112          1           0        6.673233   -3.398135   -5.355450
    113          1           0        6.721772   -2.222867   -6.683037
    114          8           0        7.122632    0.331126   -6.409941
    115          6           0        8.628174   -2.545203   -5.738793
    116          6           0        9.347126   -1.984734   -6.797081
    117          1           0        8.809531   -1.532251   -7.622370
    118          6           0        9.338039   -3.088182   -4.661516
    119          1           0        8.798168   -3.544043   -3.835314
    120          6           0       10.737603   -1.933412   -6.772680
    121          1           0       11.294030   -1.473179   -7.581331
    122          6           0       10.728616   -3.022520   -4.612079
    123          1           0       11.270577   -3.415075   -3.754978
    124          8           0       12.798022   -2.212332   -5.601765
    125          1           0       13.218880   -2.989475   -5.209167
    126          6           0       11.416353   -2.423363   -5.665497
    127          7           0        7.501683    0.904228   -4.233022
    128          1           0        7.535579    0.516144   -3.300658
    129          6           0        8.356369    2.053854   -4.513233
    130          1           0        7.799929    2.816772   -5.064693
    131          6           0        9.605367    1.639107   -5.337333
    132          6           0        8.859561    2.644266   -3.179128
    133          1           0        9.330773    3.605214   -3.408439
    134          1           0        7.994771    2.867360   -2.543742
    135          8           0       10.229076    2.601873   -5.893781
    136          6           0        9.850213    1.724647   -2.411835
    137          1           0        9.556948    1.661046   -1.357940
    138          1           0        9.810904    0.712821   -2.828745
    139          6           0       11.313808    2.205394   -2.429483
    140          1           0       11.374247    3.223335   -2.031555
    141          1           0       11.924860    1.591573   -1.759680
    142          7           0       11.938843    2.240715   -3.751089
    143          1           0       11.478704    2.868699   -4.417956
    144          7           0       12.880134    0.082729   -3.729121
    145          1           0       12.970909   -0.768452   -4.282299
    146          1           0       12.597998   -0.036869   -2.770516
    147          7           0       12.644542    1.279992   -5.713244
    148          1           0       12.850112    0.406113   -6.179762
    149          1           0       11.867788    1.821778   -6.147696
    150          6           0       12.450995    1.173825   -4.388462
    151          8           0        9.968561    0.452696   -5.237348
    152          1           0        3.939055   -4.846284    1.535631
 ---------------------------------------------------------------------

 SCF Done:  E(RB3LYP) =  -3587.12536514     A.U. after    2 cycles

 Alpha  occ. eigenvalues --  -19.27010 -19.24820 -19.23478 -19.22118 -19.19434
 Alpha  occ. eigenvalues --  -19.18195 -19.17677 -19.17585 -19.17312 -19.15566
 Alpha  occ. eigenvalues --  -19.14672 -19.11149 -19.10528 -14.58824 -14.49257
 Alpha  occ. eigenvalues --  -14.45467 -14.42024 -14.41822 -14.41781 -14.41448
 Alpha  occ. eigenvalues --  -14.41156 -14.40906 -14.39448 -14.38892 -14.38693
 Alpha  occ. eigenvalues --  -10.43376 -10.40154 -10.38745 -10.37549 -10.37306
 Alpha  occ. eigenvalues --  -10.35195 -10.34628 -10.34390 -10.34325 -10.34315
 Alpha  occ. eigenvalues --  -10.33813 -10.33423 -10.31617 -10.31175 -10.30482
 Alpha  occ. eigenvalues --  -10.29736 -10.29243 -10.29101 -10.28874 -10.28624
 Alpha  occ. eigenvalues --  -10.28440 -10.28364 -10.28363 -10.27140 -10.26834
 Alpha  occ. eigenvalues --  -10.25818 -10.25675 -10.25648 -10.25221 -10.24965
 Alpha  occ. eigenvalues --  -10.24805 -10.24647 -10.24348 -10.24157 -10.24155
 Alpha  occ. eigenvalues --  -10.23924 -10.23916 -10.23862 -10.23646 -10.23453
 Alpha  occ. eigenvalues --  -10.23414 -10.23246 -10.22951 -10.22800 -10.22711
 Alpha  occ. eigenvalues --  -10.22653 -10.22545 -10.21918 -10.21779 -10.21756
 Alpha  occ. eigenvalues --   -1.19468  -1.15876  -1.14166  -1.12850  -1.10494
 Alpha  occ. eigenvalues --   -1.10258  -1.09977  -1.09306  -1.08803  -1.07435
 Alpha  occ. eigenvalues --   -1.06787  -1.06747  -1.06376  -1.06200  -1.03993
 Alpha  occ. eigenvalues --   -1.02118  -0.98883  -0.98583  -0.98179  -0.97669
 Alpha  occ. eigenvalues --   -0.96280  -0.95759  -0.95069  -0.94769  -0.94552
 Alpha  occ. eigenvalues --   -0.93768  -0.91195  -0.90452  -0.89027  -0.87131
 Alpha  occ. eigenvalues --   -0.86246  -0.86150  -0.85663  -0.84271  -0.83650
 Alpha  occ. eigenvalues --   -0.82656  -0.82197  -0.81498  -0.81355  -0.80166
 Alpha  occ. eigenvalues --   -0.79331  -0.78887  -0.78389  -0.78221  -0.77934
 Alpha  occ. eigenvalues --   -0.76473  -0.74995  -0.73570  -0.73397  -0.73184
 Alpha  occ. eigenvalues --   -0.72840  -0.72611  -0.71548  -0.71388  -0.70729
 Alpha  occ. eigenvalues --   -0.70002  -0.68981  -0.68418  -0.68184  -0.67564
 Alpha  occ. eigenvalues --   -0.66007  -0.65776  -0.65655  -0.65442  -0.65337
 Alpha  occ. eigenvalues --   -0.64804  -0.64474  -0.64079  -0.63556  -0.63284
 Alpha  occ. eigenvalues --   -0.63094  -0.62720  -0.62640  -0.62402  -0.61932
 Alpha  occ. eigenvalues --   -0.61658  -0.61417  -0.60996  -0.60320  -0.59486
 Alpha  occ. eigenvalues --   -0.59267  -0.58647  -0.58274  -0.57616  -0.57019
 Alpha  occ. eigenvalues --   -0.56668  -0.56607  -0.56440  -0.56126  -0.55534
 Alpha  occ. eigenvalues --   -0.55340  -0.54915  -0.54586  -0.54505  -0.54390
 Alpha  occ. eigenvalues --   -0.54084  -0.53636  -0.53265  -0.53133  -0.52994
 Alpha  occ. eigenvalues --   -0.52853  -0.52618  -0.52433  -0.51807  -0.51720
 Alpha  occ. eigenvalues --   -0.51646  -0.51423  -0.51317  -0.51096  -0.50648
 Alpha  occ. eigenvalues --   -0.50621  -0.50362  -0.50339  -0.50281  -0.50245
 Alpha  occ. eigenvalues --   -0.49878  -0.49694  -0.49460  -0.49168  -0.48885
 Alpha  occ. eigenvalues --   -0.48733  -0.48555  -0.48188  -0.48145  -0.47778
 Alpha  occ. eigenvalues --   -0.47735  -0.47630  -0.47390  -0.47171  -0.47069
 Alpha  occ. eigenvalues --   -0.47060  -0.46947  -0.46767  -0.46625  -0.46374
 Alpha  occ. eigenvalues --   -0.45944  -0.45828  -0.45775  -0.45415  -0.45394
 Alpha  occ. eigenvalues --   -0.45102  -0.44848  -0.44823  -0.44790  -0.44501
 Alpha  occ. eigenvalues --   -0.44407  -0.44040  -0.43927  -0.43791  -0.43532
 Alpha  occ. eigenvalues --   -0.43318  -0.43279  -0.43135  -0.42744  -0.42468
 Alpha  occ. eigenvalues --   -0.42358  -0.41972  -0.41911  -0.41607  -0.41407
 Alpha  occ. eigenvalues --   -0.41104  -0.40965  -0.40829  -0.40659  -0.40244
 Alpha  occ. eigenvalues --   -0.40197  -0.40137  -0.40100  -0.39884  -0.39412
 Alpha  occ. eigenvalues --   -0.39362  -0.39254  -0.38877  -0.38828  -0.38611
 Alpha  occ. eigenvalues --   -0.38359  -0.37947  -0.37586  -0.37510  -0.37415
 Alpha  occ. eigenvalues --   -0.37075  -0.36961  -0.35985  -0.35894  -0.35554
 Alpha  occ. eigenvalues --   -0.33186  -0.33149  -0.32857  -0.32543  -0.32101
 Alpha  occ. eigenvalues --   -0.32012  -0.31835  -0.31437  -0.30953  -0.30880
 Alpha  occ. eigenvalues --   -0.30751  -0.30441  -0.29918  -0.29820  -0.29254
 Alpha  occ. eigenvalues --   -0.29128  -0.28548  -0.27699  -0.26706  -0.26255
 Alpha  occ. eigenvalues --   -0.25216  -0.24430
 Alpha virt. eigenvalues --   -0.12216  -0.10557  -0.08020  -0.06270  -0.05570
 Alpha virt. eigenvalues --   -0.05350  -0.04765  -0.04551  -0.04381  -0.04327
 Alpha virt. eigenvalues --   -0.03878  -0.03594  -0.03156  -0.02962  -0.02752

 Mulliken charges:
               1
     1  N   -0.564632
     2  H    0.349065
     3  H    0.378709
     4  H    0.341123
     5  C   -0.079364
     6  H    0.171266
     7  C    0.644826
     8  C   -0.086099
     9  H    0.121947
    10  O   -0.555254
    11  C   -0.334770
    12  H    0.142335
    13  H    0.151977
    14  H    0.098883
    15  C   -0.344859
    16  H    0.148007
    17  H    0.124108
    18  H    0.145188
    19  N   -0.514858
    20  H    0.308730
    21  C   -0.040730
    22  H    0.147070
    23  C    0.639057
    24  C   -0.047594
    25  H    0.107105
    26  O   -0.554696
    27  C   -0.210824
    28  H    0.136811
    29  H    0.117352
    30  C   -0.347754
    31  H    0.175663
    32  H    0.077559
    33  H    0.118744
    34  C   -0.341315
    35  H    0.129565
    36  H    0.085586
    37  H    0.119431
    38  N   -0.527881
    39  H    0.282451
    40  C   -0.001217
    41  H    0.134631
    42  C    0.632589
    43  C   -0.275440
    44  H    0.118864
    45  H    0.124049
    46  O   -0.552162
    47  C    0.104172
    48  C   -0.122641
    49  H    0.088697
    50  C   -0.132802
    51  H    0.075513
    52  C   -0.092016
    53  H    0.114354
    54  C   -0.071292
    55  H    0.091712
    56  C   -0.073087
    57  H    0.102988
    58  N   -0.504610
    59  H    0.290470
    60  C   -0.036440
    61  H    0.135083
    62  C    0.615983
    63  C   -0.145194
    64  H    0.100335
    65  H    0.101275
    66  O   -0.550052
    67  C   -0.068417
    68  H    0.106208
    69  C   -0.309543
    70  H    0.106584
    71  H    0.096837
    72  H    0.085975
    73  C   -0.324800
    74  H    0.096345
    75  H    0.092197
    76  H    0.131311
    77  N   -0.541073
    78  H    0.286499
    79  C   -0.008866
    80  H    0.127274
    81  C    0.600100
    82  C   -0.168879
    83  H    0.118564
    84  H    0.159489
    85  O   -0.540166
    86  C   -0.281801
    87  H    0.150384
    88  H    0.144080
    89  C    0.577484
    90  O   -0.463694
    91  O   -0.479610
    92  N   -0.545612
    93  H    0.282303
    94  C    0.007323
    95  H    0.163737
    96  C    0.583231
    97  C   -0.236775
    98  H    0.168302
    99  H    0.100390
   100  O   -0.562900
   101  C    0.550795
   102  N   -0.581756
   103  H    0.307153
   104  H    0.274594
   105  O   -0.526916
   106  N   -0.526891
   107  H    0.300460
   108  C   -0.015972
   109  H    0.122007
   110  C    0.656846
   111  C   -0.254083
   112  H    0.108444
   113  H    0.129408
   114  O   -0.556629
   115  C    0.113033
   116  C   -0.085863
   117  H    0.113192
   118  C   -0.126980
   119  H    0.080600
   120  C   -0.063391
   121  H    0.092245
   122  C   -0.116604
   123  H    0.069195
   124  O   -0.594489
   125  H    0.328073
   126  C    0.295476
   127  N   -0.529999
   128  H    0.269406
   129  C    0.024635
   130  H    0.104922
   131  C    0.616473
   132  C   -0.230437
   133  H    0.119966
   134  H    0.103560
   135  O   -0.641067
   136  C   -0.201106
   137  H    0.099153
   138  H    0.135996
   139  C   -0.086026
   140  H    0.131244
   141  H    0.102914
   142  N   -0.496422
   143  H    0.301542
   144  N   -0.632818
   145  H    0.310179
   146  H    0.280090
   147  N   -0.595492
   148  H    0.281644
   149  H    0.313535
   150  C    0.739573
   151  O   -0.579463
   152  H    0.327878
 Sum of Mulliken charges =   1.00000

 Dipole moment (field-independent basis, Debye):
    X=            -24.9745    Y=             18.0009    Z=             21.8437  Tot=             37.7479
 Quadrupole moment (field-independent basis, Debye-Ang):
   XX=             88.1496   YY=           -289.2808   ZZ=           -397.3249
   XY=           -249.5400   XZ=           -163.2388   YZ=            110.6262

 Normal termination of Gaussian 16 at Thu Sep  8 08:45:51 2022.
