 Gaussian 16, Revision C.01,
 Gaussian 16:  ES64L-G16RevC.01  3-Jul-2019

 ----------------------------------------------------------------------
 # B3LYP/6-31G** empiricaldispersion=gd3bj guess=read geom=check nosymm
  integral(ultrafinegrid)
 ----------------------------------------------------------------------

 ------------------------------------------------------
 Candidate Structure: Conf:123 Charge calc in gas phase
 ------------------------------------------------------
 Structure from the checkpoint file:  "conf-123.chk"
 Charge =  1 Multiplicity = 1

                          Input orientation:
 ---------------------------------------------------------------------
 Center     Atomic      Atomic             Coordinates (Angstroms)
 Number     Number       Type             X           Y           Z
 ---------------------------------------------------------------------
      1          7           0       -1.662060   -6.405418    3.025588
      2          1           0       -1.309053   -7.247309    3.479785
      3          1           0       -2.294318   -6.650229    2.254731
      4          1           0       -0.748385   -5.890340    2.565722
      5          6           0       -2.463027   -5.543664    3.952304
      6          1           0       -3.231261   -6.190907    4.395137
      7          6           0       -3.231522   -4.600666    2.993038
      8          6           0       -1.633072   -4.930258    5.095136
      9          1           0       -1.113532   -4.048250    4.705953
     10          8           0       -3.659234   -5.091990    1.943787
     11          6           0       -2.561263   -4.502765    6.245798
     12          1           0       -3.001864   -5.385023    6.722665
     13          1           0       -1.992586   -3.963454    7.007487
     14          1           0       -3.385738   -3.860612    5.927910
     15          6           0       -0.578247   -5.909819    5.632449
     16          1           0       -1.052524   -6.827736    6.001911
     17          1           0        0.176710   -6.185692    4.891293
     18          1           0       -0.060894   -5.457921    6.483618
     19          7           0       -3.419614   -3.324778    3.362634
     20          1           0       -2.939560   -2.928493    4.159084
     21          6           0       -4.198454   -2.372284    2.571316
     22          1           0       -4.257943   -2.771542    1.560279
     23          6           0       -3.398998   -1.066463    2.590057
     24          6           0       -5.637483   -2.210729    3.134146
     25          1           0       -6.054040   -3.227240    3.122312
     26          8           0       -2.899832   -0.653295    3.636911
     27          6           0       -6.514329   -1.333427    2.222547
     28          1           0       -6.043072   -0.349219    2.100114
     29          1           0       -7.454993   -1.148140    2.753592
     30          6           0       -5.657959   -1.698034    4.578264
     31          1           0       -5.270617   -0.678842    4.648785
     32          1           0       -5.058599   -2.325254    5.244751
     33          1           0       -6.683810   -1.704179    4.957136
     34          6           0       -6.828141   -1.943567    0.853630
     35          1           0       -7.535516   -1.313387    0.306381
     36          1           0       -5.943098   -2.053265    0.222779
     37          1           0       -7.285745   -2.932505    0.965589
     38          7           0       -3.279696   -0.439791    1.394687
     39          1           0       -3.669151   -0.874724    0.560707
     40          6           0       -2.437237    0.723486    1.229954
     41          1           0       -2.479086    1.294386    2.162174
     42          6           0       -2.883195    1.574558    0.041471
     43          6           0       -0.947865    0.351737    0.931793
     44          1           0       -0.418461    1.283958    0.720498
     45          1           0       -0.915733   -0.249572    0.019753
     46          8           0       -3.334935    1.077177   -0.997339
     47          6           0       -0.299995   -0.365711    2.081863
     48          6           0        0.140733    0.354113    3.201687
     49          1           0        0.073732    1.438767    3.200695
     50          6           0       -0.203513   -1.761555    2.095840
     51          1           0       -0.541906   -2.331614    1.234907
     52          6           0        0.599924   -0.306528    4.341957
     53          1           0        0.883490    0.266213    5.220188
     54          6           0        0.285762   -2.425174    3.220674
     55          1           0        0.366143   -3.504318    3.193734
     56          6           0        0.658831   -1.704224    4.356517
     57          1           0        0.984840   -2.229607    5.250384
     58          7           0       -2.596233    2.889396    0.155546
     59          1           0       -2.232847    3.224057    1.037769
     60          6           0       -2.472982    3.796224   -0.994535
     61          1           0       -2.854045    3.233515   -1.848517
     62          6           0       -0.958978    4.057131   -1.184738
     63          6           0       -3.258069    5.089117   -0.800280
     64          1           0       -3.141730    5.684819   -1.713550
     65          1           0       -2.780610    5.672530   -0.005292
     66          8           0       -0.425507    5.118807   -0.886135
     67          6           0       -4.751196    4.888588   -0.495873
     68          1           0       -4.829445    4.332151    0.448654
     69          6           0       -5.425016    6.251473   -0.299158
     70          1           0       -5.388782    6.840361   -1.222864
     71          1           0       -4.931640    6.833449    0.486192
     72          1           0       -6.476782    6.133022   -0.021749
     73          6           0       -5.465529    4.073405   -1.582070
     74          1           0       -5.354805    4.551800   -2.562784
     75          1           0       -6.536699    4.004841   -1.369084
     76          1           0       -5.078821    3.052721   -1.655567
     77          7           0       -0.270561    2.974406   -1.633038
     78          1           0       -0.740222    2.099636   -1.841823
     79          6           0        1.179937    2.899133   -1.663930
     80          1           0        1.584236    3.723771   -2.259657
     81          6           0        1.508886    1.549401   -2.306058
     82          6           0        1.750136    2.974740   -0.219683
     83          1           0        1.352008    2.123435    0.338764
     84          1           0        1.352577    3.893156    0.217702
     85          8           0        0.670795    0.645300   -2.323878
     86          6           0        3.282476    2.949715   -0.051562
     87          1           0        3.505818    3.049822    1.012786
     88          1           0        3.681235    1.994673   -0.399068
     89          6           0        3.964737    4.103477   -0.743088
     90          8           0        4.232212    5.175393   -0.264691
     91          8           0        4.244509    3.813371   -2.058793
     92          7           0        2.762562    1.374481   -2.786034
     93          1           0        3.437477    2.125177   -2.689601
     94          6           0        3.202853    0.022315   -3.075654
     95          1           0        2.576174   -0.393174   -3.867366
     96          6           0        2.994795   -0.846694   -1.811483
     97          6           0        4.655602    0.010882   -3.553123
     98          1           0        4.801535    0.822582   -4.276278
     99          1           0        5.344782    0.192974   -2.720347
    100          8           0        3.068887   -0.335513   -0.682707
    101          6           0        4.996557   -1.313029   -4.242658
    102          7           0        6.284814   -1.446639   -4.631211
    103          1           0        6.551437   -2.287751   -5.121471
    104          1           0        6.968823   -0.717493   -4.508227
    105          8           0        4.154567   -2.186105   -4.443653
    106          7           0        2.676706   -2.126746   -2.029687
    107          1           0        2.829023   -2.480708   -2.970910
    108          6           0        2.062182   -2.957219   -1.019345
    109          1           0        1.500753   -2.282719   -0.364699
    110          6           0        3.049924   -3.704609   -0.115010
    111          6           0        1.051552   -3.941584   -1.680637
    112          1           0        1.389039   -4.154631   -2.701509
    113          1           0        1.066177   -4.894099   -1.146499
    114          8           0        4.256284   -3.799229   -0.359030
    115          6           0       -0.345713   -3.375188   -1.657834
    116          6           0       -1.345856   -3.970208   -0.880517
    117          1           0       -1.132487   -4.888822   -0.341721
    118          6           0       -0.635286   -2.177025   -2.319896
    119          1           0        0.123824   -1.677604   -2.908832
    120          6           0       -2.602746   -3.381924   -0.750240
    121          1           0       -3.365634   -3.852721   -0.140774
    122          6           0       -1.877574   -1.567857   -2.185757
    123          1           0       -2.076895   -0.619808   -2.672416
    124          8           0       -4.071210   -1.564204   -1.174113
    125          1           0       -3.993235   -0.615818   -1.406432
    126          6           0       -2.857593   -2.167256   -1.389918
    127          7           0        2.424686   -4.198041    0.977207
    128          1           0        1.415892   -4.066460    1.018312
    129          6           0        2.784022   -5.372776    1.771012
    130          1           0        3.208486   -6.138364    1.108821
    131          6           0        1.454341   -5.949039    2.344699
    132          6           0        3.781238   -5.133743    2.918050
    133          1           0        3.397206   -4.315037    3.538528
    134          1           0        3.733608   -6.033978    3.534359
    135          8           0        1.498374   -6.906238    3.118041
    136          6           0        5.237865   -4.874366    2.472250
    137          1           0        5.919365   -5.545540    3.005810
    138          1           0        5.341044   -5.097442    1.407350
    139          6           0        5.751061   -3.447454    2.704637
    140          1           0        5.843863   -3.223869    3.770588
    141          1           0        6.759072   -3.344900    2.292861
    142          7           0        4.914033   -2.427151    2.068755
    143          1           0        4.809193   -2.559795    1.062858
    144          7           0        3.888885   -1.656906    4.027834
    145          1           0        3.045068   -1.255616    4.412342
    146          1           0        4.304125   -2.397690    4.567536
    147          7           0        3.153788   -0.929189    1.969494
    148          1           0        2.385904   -0.461921    2.432857
    149          1           0        3.191927   -0.852125    0.942573
    150          6           0        3.976594   -1.696577    2.677124
    151          8           0        0.377325   -5.331332    1.963124
    152          1           0        4.629657    4.618832   -2.445543
 ---------------------------------------------------------------------

 SCF Done:  E(RB3LYP) =  -3587.22106340     A.U. after    3 cycles

 Alpha  occ. eigenvalues --  -19.28895 -19.24208 -19.22519 -19.22364 -19.22202
 Alpha  occ. eigenvalues --  -19.21444 -19.21347 -19.21129 -19.21097 -19.20679
 Alpha  occ. eigenvalues --  -19.19544 -19.19189 -19.18461 -14.49338 -14.47888
 Alpha  occ. eigenvalues --  -14.47303 -14.45941 -14.45927 -14.45346 -14.45293
 Alpha  occ. eigenvalues --  -14.45116 -14.45115 -14.43937 -14.43781 -14.43504
 Alpha  occ. eigenvalues --  -10.43785 -10.40453 -10.39219 -10.38938 -10.38765
 Alpha  occ. eigenvalues --  -10.38570 -10.38013 -10.37656 -10.37033 -10.36683
 Alpha  occ. eigenvalues --  -10.36250 -10.34179 -10.33229 -10.32897 -10.32875
 Alpha  occ. eigenvalues --  -10.32259 -10.32203 -10.31321 -10.31231 -10.30885
 Alpha  occ. eigenvalues --  -10.30713 -10.30532 -10.29394 -10.29287 -10.29087
 Alpha  occ. eigenvalues --  -10.28890 -10.28631 -10.28307 -10.28248 -10.28173
 Alpha  occ. eigenvalues --  -10.28081 -10.27922 -10.27712 -10.27268 -10.27198
 Alpha  occ. eigenvalues --  -10.26581 -10.26216 -10.26077 -10.26052 -10.25700
 Alpha  occ. eigenvalues --  -10.25356 -10.25197 -10.24935 -10.24692 -10.24639
 Alpha  occ. eigenvalues --  -10.24238 -10.23581 -10.22532 -10.22526 -10.22434
 Alpha  occ. eigenvalues --   -1.19013  -1.14519  -1.13930  -1.13447  -1.13218
 Alpha  occ. eigenvalues --   -1.13183  -1.12972  -1.12544  -1.12166  -1.12136
 Alpha  occ. eigenvalues --   -1.11531  -1.11033  -1.10131  -1.05259  -1.03928
 Alpha  occ. eigenvalues --   -1.02401  -1.02388  -1.02122  -1.02053  -1.01729
 Alpha  occ. eigenvalues --   -1.00948  -1.00839  -1.00205  -1.00153  -1.00151
 Alpha  occ. eigenvalues --   -0.95349  -0.92387  -0.90268  -0.89804  -0.89078
 Alpha  occ. eigenvalues --   -0.88764  -0.88015  -0.87674  -0.87212  -0.86556
 Alpha  occ. eigenvalues --   -0.84145  -0.83989  -0.83568  -0.82644  -0.81657
 Alpha  occ. eigenvalues --   -0.81362  -0.80801  -0.80310  -0.78967  -0.77775
 Alpha  occ. eigenvalues --   -0.77498  -0.77241  -0.76701  -0.74939  -0.74347
 Alpha  occ. eigenvalues --   -0.74127  -0.73545  -0.73064  -0.71458  -0.70419
 Alpha  occ. eigenvalues --   -0.70324  -0.70055  -0.69783  -0.69177  -0.69011
 Alpha  occ. eigenvalues --   -0.68635  -0.68393  -0.68129  -0.68016  -0.67815
 Alpha  occ. eigenvalues --   -0.67406  -0.67357  -0.66799  -0.66134  -0.65917
 Alpha  occ. eigenvalues --   -0.65571  -0.65544  -0.65136  -0.64688  -0.64213
 Alpha  occ. eigenvalues --   -0.63317  -0.62845  -0.62492  -0.61963  -0.61713
 Alpha  occ. eigenvalues --   -0.61278  -0.60954  -0.60826  -0.60419  -0.59925
 Alpha  occ. eigenvalues --   -0.59401  -0.59091  -0.58453  -0.58176  -0.57788
 Alpha  occ. eigenvalues --   -0.57552  -0.57158  -0.56903  -0.56781  -0.56344
 Alpha  occ. eigenvalues --   -0.55922  -0.55737  -0.55620  -0.55447  -0.55311
 Alpha  occ. eigenvalues --   -0.55167  -0.54941  -0.54885  -0.54725  -0.54443
 Alpha  occ. eigenvalues --   -0.54148  -0.54028  -0.53653  -0.53448  -0.53367
 Alpha  occ. eigenvalues --   -0.53052  -0.52795  -0.52603  -0.52149  -0.51977
 Alpha  occ. eigenvalues --   -0.51778  -0.51676  -0.51526  -0.51371  -0.51193
 Alpha  occ. eigenvalues --   -0.50882  -0.50720  -0.50553  -0.50195  -0.49827
 Alpha  occ. eigenvalues --   -0.49726  -0.49571  -0.49400  -0.49328  -0.49079
 Alpha  occ. eigenvalues --   -0.48908  -0.48766  -0.48732  -0.48474  -0.48414
 Alpha  occ. eigenvalues --   -0.48164  -0.48006  -0.47913  -0.47672  -0.47499
 Alpha  occ. eigenvalues --   -0.47375  -0.47192  -0.47052  -0.46786  -0.46605
 Alpha  occ. eigenvalues --   -0.46446  -0.46334  -0.45967  -0.45825  -0.45760
 Alpha  occ. eigenvalues --   -0.45492  -0.45394  -0.45234  -0.44765  -0.44667
 Alpha  occ. eigenvalues --   -0.44324  -0.44143  -0.43855  -0.43697  -0.43669
 Alpha  occ. eigenvalues --   -0.43596  -0.43348  -0.43250  -0.42992  -0.42933
 Alpha  occ. eigenvalues --   -0.42858  -0.42578  -0.42506  -0.42218  -0.42094
 Alpha  occ. eigenvalues --   -0.41977  -0.41502  -0.40588  -0.40293  -0.39631
 Alpha  occ. eigenvalues --   -0.39373  -0.39049  -0.38964  -0.38537  -0.38468
 Alpha  occ. eigenvalues --   -0.38201  -0.38057  -0.37321  -0.36831  -0.36571
 Alpha  occ. eigenvalues --   -0.36429  -0.36236  -0.36131  -0.35929  -0.35826
 Alpha  occ. eigenvalues --   -0.35626  -0.35477  -0.35337  -0.35184  -0.34988
 Alpha  occ. eigenvalues --   -0.34784  -0.34656  -0.34562  -0.34338  -0.33641
 Alpha  occ. eigenvalues --   -0.33360  -0.33019  -0.32160  -0.32075  -0.31909
 Alpha  occ. eigenvalues --   -0.31773  -0.28749
 Alpha virt. eigenvalues --   -0.11152  -0.10572  -0.09111  -0.08463  -0.08110
 Alpha virt. eigenvalues --   -0.08043  -0.07883  -0.07688  -0.07285  -0.06932
 Alpha virt. eigenvalues --   -0.06599  -0.05922  -0.05462  -0.04529  -0.04441

 Mulliken charges:
               1
     1  N   -0.609857
     2  H    0.319645
     3  H    0.325812
     4  H    0.431936
     5  C   -0.043559
     6  H    0.157676
     7  C    0.634541
     8  C   -0.096546
     9  H    0.106589
    10  O   -0.542374
    11  C   -0.331877
    12  H    0.121863
    13  H    0.125047
    14  H    0.115837
    15  C   -0.363139
    16  H    0.110124
    17  H    0.150181
    18  H    0.116375
    19  N   -0.541180
    20  H    0.293134
    21  C   -0.018657
    22  H    0.142861
    23  C    0.627443
    24  C   -0.045186
    25  H    0.103900
    26  O   -0.555438
    27  C   -0.181043
    28  H    0.092823
    29  H    0.106411
    30  C   -0.330637
    31  H    0.127027
    32  H    0.095510
    33  H    0.113518
    34  C   -0.347134
    35  H    0.110357
    36  H    0.130071
    37  H    0.109911
    38  N   -0.560444
    39  H    0.307374
    40  C   -0.006026
    41  H    0.136772
    42  C    0.618082
    43  C   -0.256554
    44  H    0.103681
    45  H    0.155202
    46  O   -0.572143
    47  C    0.123322
    48  C   -0.127713
    49  H    0.091949
    50  C   -0.141064
    51  H    0.119141
    52  C   -0.107429
    53  H    0.110689
    54  C   -0.087359
    55  H    0.115865
    56  C   -0.135878
    57  H    0.096440
    58  N   -0.499710
    59  H    0.274704
    60  C   -0.055622
    61  H    0.156724
    62  C    0.600323
    63  C   -0.157742
    64  H    0.115909
    65  H    0.112779
    66  O   -0.515035
    67  C   -0.061827
    68  H    0.082160
    69  C   -0.309969
    70  H    0.108435
    71  H    0.102547
    72  H    0.106967
    73  C   -0.328398
    74  H    0.103854
    75  H    0.108419
    76  H    0.112847
    77  N   -0.556281
    78  H    0.292525
    79  C    0.008628
    80  H    0.142514
    81  C    0.619856
    82  C   -0.198717
    83  H    0.113225
    84  H    0.162468
    85  O   -0.547949
    86  C   -0.270235
    87  H    0.141010
    88  H    0.142731
    89  C    0.569651
    90  O   -0.426760
    91  O   -0.509476
    92  N   -0.569937
    93  H    0.301740
    94  C    0.032017
    95  H    0.163021
    96  C    0.615016
    97  C   -0.320093
    98  H    0.155008
    99  H    0.146678
   100  O   -0.576976
   101  C    0.610435
   102  N   -0.601829
   103  H    0.299572
   104  H    0.285484
   105  O   -0.519471
   106  N   -0.494987
   107  H    0.311438
   108  C   -0.020480
   109  H    0.143764
   110  C    0.567985
   111  C   -0.276553
   112  H    0.133662
   113  H    0.125721
   114  O   -0.548053
   115  C    0.104920
   116  C   -0.155758
   117  H    0.093067
   118  C   -0.112511
   119  H    0.102521
   120  C   -0.120332
   121  H    0.134266
   122  C   -0.130775
   123  H    0.108104
   124  O   -0.585883
   125  H    0.354968
   126  C    0.304073
   127  N   -0.525316
   128  H    0.308771
   129  C   -0.010925
   130  H    0.145242
   131  C    0.595921
   132  C   -0.184222
   133  H    0.067507
   134  H    0.151332
   135  O   -0.534308
   136  C   -0.198367
   137  H    0.119445
   138  H    0.149050
   139  C   -0.092981
   140  H    0.113458
   141  H    0.146650
   142  N   -0.515885
   143  H    0.307314
   144  N   -0.613238
   145  H    0.287191
   146  H    0.291684
   147  N   -0.652461
   148  H    0.288082
   149  H    0.353292
   150  C    0.773120
   151  O   -0.652812
   152  H    0.336208
 Sum of Mulliken charges =   1.00000

 Dipole moment (field-independent basis, Debye):
    X=             10.3905    Y=             -7.8621    Z=              6.9022  Tot=             14.7450
 Quadrupole moment (field-independent basis, Debye-Ang):
   XX=           -327.4074   YY=           -399.0597   ZZ=           -352.6028
   XY=             -9.0650   XZ=            -38.7123   YZ=            -56.9112

 Normal termination of Gaussian 16 at Thu Sep  8 08:52:21 2022.
