 Gaussian 16, Revision C.01,
 Gaussian 16:  ES64L-G16RevC.01  3-Jul-2019

 ----------------------------------------------------------------------
 # B3LYP/6-31G** empiricaldispersion=gd3bj guess=read geom=check nosymm
  integral(ultrafinegrid)
 ----------------------------------------------------------------------

 ------------------------------------------------------
 Candidate Structure: Conf:288 Charge calc in gas phase
 ------------------------------------------------------
 Structure from the checkpoint file:  "conf-288.chk"
 Charge =  1 Multiplicity = 1

                          Input orientation:
 ---------------------------------------------------------------------
 Center     Atomic      Atomic             Coordinates (Angstroms)
 Number     Number       Type             X           Y           Z
 ---------------------------------------------------------------------
      1          7           0        2.010020   -3.288193    3.686522
      2          1           0        2.005708   -4.151106    4.231227
      3          1           0        1.739286   -3.522128    2.704995
      4          1           0        2.974824   -2.924728    3.653580
      5          6           0        0.978565   -2.287831    4.133595
      6          1           0        0.797117   -2.420763    5.203691
      7          6           0       -0.249925   -2.645838    3.279216
      8          6           0        1.496098   -0.861468    3.829353
      9          1           0        1.858909   -0.869412    2.796791
     10          8           0       -0.050634   -3.149805    2.169371
     11          6           0        0.383448    0.187698    3.909670
     12          1           0       -0.113843    0.192138    4.886487
     13          1           0        0.822848    1.172086    3.745343
     14          1           0       -0.371065    0.038987    3.136712
     15          6           0        2.657773   -0.491641    4.758370
     16          1           0        2.316610   -0.386145    5.793941
     17          1           0        3.476145   -1.219718    4.743479
     18          1           0        3.074031    0.462263    4.429739
     19          7           0       -1.449037   -2.351455    3.795182
     20          1           0       -1.508611   -1.863816    4.682455
     21          6           0       -2.661047   -2.235848    2.972939
     22          1           0       -2.362776   -2.433536    1.941821
     23          6           0       -3.098480   -0.776635    3.167508
     24          6           0       -3.768396   -3.211008    3.412635
     25          1           0       -4.016491   -2.943534    4.447621
     26          8           0       -3.329959   -0.359439    4.305247
     27          6           0       -3.292582   -4.675606    3.404543
     28          1           0       -4.104797   -5.285204    3.817667
     29          1           0       -2.453986   -4.776349    4.104166
     30          6           0       -5.021399   -2.988759    2.555107
     31          1           0       -4.810553   -3.114915    1.488335
     32          1           0       -5.430570   -1.984822    2.698927
     33          1           0       -5.800271   -3.706097    2.827610
     34          6           0       -2.881339   -5.233411    2.037746
     35          1           0       -2.605355   -6.288315    2.127643
     36          1           0       -3.698143   -5.173921    1.312536
     37          1           0       -2.017907   -4.703284    1.625499
     38          7           0       -3.130466   -0.020531    2.057526
     39          1           0       -2.909717   -0.394046    1.138145
     40          6           0       -3.448094    1.394384    2.056221
     41          1           0       -4.438479    1.553382    2.496463
     42          6           0       -3.434251    1.813699    0.580414
     43          6           0       -2.407306    2.229780    2.864932
     44          1           0       -1.486673    2.308662    2.278836
     45          1           0       -2.188457    1.653224    3.765040
     46          8           0       -3.042899    1.026940   -0.289214
     47          6           0       -2.919894    3.593283    3.262424
     48          6           0       -2.468462    4.764983    2.640129
     49          1           0       -1.720505    4.717163    1.855071
     50          6           0       -3.905185    3.690960    4.255919
     51          1           0       -4.250156    2.785715    4.749355
     52          6           0       -2.999724    6.006683    2.996323
     53          1           0       -2.643413    6.901642    2.496349
     54          6           0       -4.431717    4.930165    4.614297
     55          1           0       -5.192350    4.990439    5.386414
     56          6           0       -3.982012    6.092044    3.982439
     57          1           0       -4.395346    7.056769    4.258825
     58          7           0       -3.801610    3.084031    0.319731
     59          1           0       -3.962128    3.705700    1.103597
     60          6           0       -3.486801    3.717785   -0.967051
     61          1           0       -3.703247    2.979094   -1.740665
     62          6           0       -1.976173    4.036361   -0.963699
     63          6           0       -4.335660    4.972132   -1.146033
     64          1           0       -4.118161    5.652676   -0.314746
     65          1           0       -5.389690    4.677957   -1.067191
     66          8           0       -1.532627    5.124032   -0.596720
     67          6           0       -4.103952    5.718938   -2.470596
     68          1           0       -3.063880    6.065507   -2.472046
     69          6           0       -4.319780    4.820252   -3.695076
     70          1           0       -5.326175    4.384526   -3.691304
     71          1           0       -3.597528    3.998735   -3.739899
     72          1           0       -4.212521    5.396239   -4.619327
     73          6           0       -5.014215    6.950776   -2.530906
     74          1           0       -6.070671    6.657280   -2.538303
     75          1           0       -4.825322    7.534523   -3.436979
     76          1           0       -4.854246    7.606449   -1.668816
     77          7           0       -1.182289    3.005078   -1.346749
     78          1           0       -1.578482    2.073491   -1.441955
     79          6           0        0.262929    3.106725   -1.255425
     80          1           0        0.542601    4.117022   -1.568553
     81          6           0        0.846200    2.034578   -2.174735
     82          6           0        0.770754    2.847631    0.182869
     83          1           0        0.602613    1.792677    0.416407
     84          1           0        0.165225    3.449941    0.865363
     85          8           0        0.437922    0.879929   -2.115690
     86          6           0        2.252169    3.195327    0.350827
     87          1           0        2.830539    2.871560   -0.525567
     88          1           0        2.407808    4.271147    0.467111
     89          6           0        2.932164    2.473867    1.481619
     90          8           0        2.613485    1.389930    1.943576
     91          8           0        4.013909    3.144772    1.920707
     92          7           0        1.848468    2.417548   -3.019087
     93          1           0        2.284274    3.312427   -2.844542
     94          6           0        2.677923    1.372857   -3.604957
     95          1           0        2.015850    0.652384   -4.084639
     96          6           0        3.445429    0.673740   -2.462622
     97          6           0        3.623490    1.956053   -4.652093
     98          1           0        3.064773    2.645125   -5.297315
     99          1           0        4.424586    2.532051   -4.173101
    100          8           0        3.864394    1.325859   -1.499026
    101          6           0        4.215025    0.848373   -5.525672
    102          7           0        5.225101    1.240432   -6.346068
    103          1           0        5.589666    0.566823   -7.002858
    104          1           0        5.507767    2.203337   -6.431614
    105          8           0        3.801723   -0.304130   -5.492251
    106          7           0        3.592231   -0.655688   -2.562410
    107          1           0        3.277895   -1.159266   -3.385958
    108          6           0        4.044018   -1.431190   -1.427735
    109          1           0        4.883098   -0.913391   -0.954834
    110          6           0        4.457937   -2.815381   -1.935239
    111          6           0        2.885867   -1.552453   -0.379313
    112          1           0        2.619329   -0.539092   -0.070714
    113          1           0        2.024561   -2.003583   -0.878053
    114          8           0        3.830244   -3.346200   -2.850343
    115          6           0        3.363162   -2.383702    0.775183
    116          6           0        3.205882   -3.778381    0.762215
    117          1           0        2.551900   -4.229147    0.021504
    118          6           0        4.198799   -1.816448    1.746930
    119          1           0        4.288227   -0.734836    1.796871
    120          6           0        3.961819   -4.593066    1.603642
    121          1           0        3.921415   -5.674258    1.520013
    122          6           0        4.967666   -2.624848    2.591482
    123          1           0        5.696310   -2.195220    3.271472
    124          8           0        5.856769   -4.799298    3.064498
    125          1           0        6.481709   -4.995149    2.318461
    126          6           0        4.918056   -4.019324    2.454839
    127          7           0        5.493529   -3.415011   -1.298135
    128          1           0        5.896676   -3.017783   -0.457403
    129          6           0        5.743765   -4.839945   -1.479475
    130          1           0        4.786614   -5.337296   -1.655828
    131          6           0        6.385937   -5.419364   -0.210102
    132          6           0        6.656998   -5.109953   -2.701203
    133          1           0        6.498439   -6.140693   -3.034484
    134          1           0        6.310161   -4.460825   -3.508020
    135          8           0        6.398936   -6.685368   -0.131139
    136          6           0        8.152799   -4.875927   -2.407093
    137          1           0        8.658921   -4.504006   -3.303142
    138          1           0        8.248789   -4.099137   -1.641251
    139          6           0        8.863040   -6.162413   -1.918366
    140          1           0        8.133499   -6.887410   -1.565560
    141          1           0        9.415941   -6.627796   -2.741185
    142          7           0        9.811027   -5.920803   -0.823247
    143          1           0       10.503800   -5.201204   -0.973009
    144          7           0        8.751403   -7.165970    0.848930
    145          1           0        8.865176   -7.628779    1.738438
    146          1           0        7.737536   -7.020686    0.491082
    147          7           0       10.848120   -6.217496    1.205953
    148          1           0       10.822763   -6.494183    2.173600
    149          1           0       11.755659   -6.058103    0.798339
    150          6           0        9.769842   -6.445252    0.409878
    151          8           0        6.930224   -4.626846    0.604657
    152          1           0        4.441054    2.586733    2.591760
 ---------------------------------------------------------------------

 SCF Done:  E(RB3LYP) =  -3587.15783516     A.U. after    3 cycles

 Alpha  occ. eigenvalues --  -19.26754 -19.23148 -19.21518 -19.21186 -19.19752
 Alpha  occ. eigenvalues --  -19.19242 -19.18445 -19.18272 -19.17781 -19.17395
 Alpha  occ. eigenvalues --  -19.17131 -19.17100 -19.16794 -14.54999 -14.47342
 Alpha  occ. eigenvalues --  -14.47038 -14.46668 -14.44087 -14.43642 -14.43231
 Alpha  occ. eigenvalues --  -14.43061 -14.42518 -14.41536 -14.41523 -14.41132
 Alpha  occ. eigenvalues --  -10.42691 -10.40036 -10.39439 -10.36439 -10.36429
 Alpha  occ. eigenvalues --  -10.36363 -10.36105 -10.35309 -10.34626 -10.34489
 Alpha  occ. eigenvalues --  -10.34303 -10.34209 -10.32041 -10.31183 -10.31035
 Alpha  occ. eigenvalues --  -10.30364 -10.29914 -10.29894 -10.29704 -10.29480
 Alpha  occ. eigenvalues --  -10.29096 -10.27839 -10.27450 -10.27286 -10.27191
 Alpha  occ. eigenvalues --  -10.27127 -10.26995 -10.26978 -10.26548 -10.26213
 Alpha  occ. eigenvalues --  -10.26190 -10.26042 -10.25902 -10.25790 -10.25690
 Alpha  occ. eigenvalues --  -10.25561 -10.25317 -10.24693 -10.24627 -10.24622
 Alpha  occ. eigenvalues --  -10.24602 -10.24535 -10.24516 -10.24493 -10.23912
 Alpha  occ. eigenvalues --  -10.23635 -10.23384 -10.22982 -10.21838 -10.21468
 Alpha  occ. eigenvalues --   -1.17830  -1.15542  -1.11974  -1.11415  -1.11066
 Alpha  occ. eigenvalues --   -1.10934  -1.10717  -1.10164  -1.09832  -1.09676
 Alpha  occ. eigenvalues --   -1.09559  -1.09100  -1.08791  -1.08558  -1.03185
 Alpha  occ. eigenvalues --   -1.01515  -1.00903  -1.00328  -0.99914  -0.99472
 Alpha  occ. eigenvalues --   -0.98516  -0.98410  -0.98236  -0.97618  -0.97273
 Alpha  occ. eigenvalues --   -0.93525  -0.91638  -0.91472  -0.88603  -0.87405
 Alpha  occ. eigenvalues --   -0.86729  -0.86516  -0.85772  -0.85337  -0.84767
 Alpha  occ. eigenvalues --   -0.83223  -0.82920  -0.81543  -0.81258  -0.80737
 Alpha  occ. eigenvalues --   -0.80084  -0.79553  -0.79221  -0.78413  -0.77905
 Alpha  occ. eigenvalues --   -0.76872  -0.74968  -0.74769  -0.73230  -0.72786
 Alpha  occ. eigenvalues --   -0.72438  -0.72106  -0.71318  -0.70716  -0.70432
 Alpha  occ. eigenvalues --   -0.69465  -0.69302  -0.69199  -0.68845  -0.68690
 Alpha  occ. eigenvalues --   -0.67318  -0.66959  -0.66394  -0.66173  -0.65730
 Alpha  occ. eigenvalues --   -0.65613  -0.65478  -0.65406  -0.65286  -0.64323
 Alpha  occ. eigenvalues --   -0.63990  -0.63936  -0.63758  -0.63612  -0.63006
 Alpha  occ. eigenvalues --   -0.62658  -0.61900  -0.61299  -0.60436  -0.60339
 Alpha  occ. eigenvalues --   -0.60200  -0.60067  -0.59491  -0.59065  -0.58068
 Alpha  occ. eigenvalues --   -0.57562  -0.57238  -0.57102  -0.56444  -0.56336
 Alpha  occ. eigenvalues --   -0.56121  -0.55988  -0.55764  -0.55515  -0.55267
 Alpha  occ. eigenvalues --   -0.55117  -0.55030  -0.54392  -0.54072  -0.53829
 Alpha  occ. eigenvalues --   -0.53694  -0.53243  -0.52978  -0.52906  -0.52815
 Alpha  occ. eigenvalues --   -0.52560  -0.52363  -0.52215  -0.51709  -0.51614
 Alpha  occ. eigenvalues --   -0.51559  -0.51338  -0.51290  -0.50924  -0.50570
 Alpha  occ. eigenvalues --   -0.50377  -0.50155  -0.50116  -0.49856  -0.49696
 Alpha  occ. eigenvalues --   -0.49142  -0.48981  -0.48945  -0.48695  -0.48489
 Alpha  occ. eigenvalues --   -0.48342  -0.48057  -0.47769  -0.47641  -0.47584
 Alpha  occ. eigenvalues --   -0.47290  -0.47265  -0.47162  -0.46858  -0.46799
 Alpha  occ. eigenvalues --   -0.46575  -0.46527  -0.46374  -0.46289  -0.45746
 Alpha  occ. eigenvalues --   -0.45657  -0.45587  -0.45337  -0.45052  -0.44739
 Alpha  occ. eigenvalues --   -0.44701  -0.44619  -0.44368  -0.44340  -0.44176
 Alpha  occ. eigenvalues --   -0.44036  -0.43838  -0.43617  -0.43496  -0.43370
 Alpha  occ. eigenvalues --   -0.43186  -0.42906  -0.42809  -0.42766  -0.42509
 Alpha  occ. eigenvalues --   -0.42303  -0.41986  -0.41882  -0.41401  -0.41260
 Alpha  occ. eigenvalues --   -0.41091  -0.41021  -0.40787  -0.40683  -0.40302
 Alpha  occ. eigenvalues --   -0.39816  -0.39398  -0.39255  -0.39152  -0.39017
 Alpha  occ. eigenvalues --   -0.38931  -0.38823  -0.38006  -0.37656  -0.37201
 Alpha  occ. eigenvalues --   -0.37185  -0.36824  -0.36353  -0.35281  -0.35104
 Alpha  occ. eigenvalues --   -0.35075  -0.34944  -0.34143  -0.33850  -0.33766
 Alpha  occ. eigenvalues --   -0.33597  -0.33316  -0.33051  -0.32744  -0.32606
 Alpha  occ. eigenvalues --   -0.32578  -0.32345  -0.32074  -0.31823  -0.31290
 Alpha  occ. eigenvalues --   -0.30972  -0.30668  -0.30392  -0.30156  -0.30147
 Alpha  occ. eigenvalues --   -0.29915  -0.29636
 Alpha virt. eigenvalues --   -0.09762  -0.09544  -0.08545  -0.07188  -0.07177
 Alpha virt. eigenvalues --   -0.06469  -0.06065  -0.05748  -0.05578  -0.05332
 Alpha virt. eigenvalues --   -0.05032  -0.04308  -0.04168  -0.03904  -0.03277

 Mulliken charges:
               1
     1  N   -0.555739
     2  H    0.337709
     3  H    0.362460
     4  H    0.332296
     5  C   -0.066605
     6  H    0.143195
     7  C    0.622935
     8  C   -0.075830
     9  H    0.156392
    10  O   -0.533678
    11  C   -0.335655
    12  H    0.107016
    13  H    0.143264
    14  H    0.124570
    15  C   -0.328959
    16  H    0.116908
    17  H    0.091913
    18  H    0.137230
    19  N   -0.508806
    20  H    0.286800
    21  C   -0.014260
    22  H    0.140876
    23  C    0.609742
    24  C   -0.052863
    25  H    0.109727
    26  O   -0.555019
    27  C   -0.175792
    28  H    0.107586
    29  H    0.080221
    30  C   -0.333790
    31  H    0.113413
    32  H    0.119050
    33  H    0.121035
    34  C   -0.342989
    35  H    0.108268
    36  H    0.113867
    37  H    0.125713
    38  N   -0.546958
    39  H    0.296946
    40  C    0.014727
    41  H    0.148092
    42  C    0.597252
    43  C   -0.261320
    44  H    0.110225
    45  H    0.154519
    46  O   -0.551361
    47  C    0.072493
    48  C   -0.165380
    49  H    0.118440
    50  C   -0.121426
    51  H    0.107104
    52  C   -0.087395
    53  H    0.107415
    54  C   -0.085364
    55  H    0.100204
    56  C   -0.084706
    57  H    0.100158
    58  N   -0.526477
    59  H    0.284020
    60  C   -0.022861
    61  H    0.138767
    62  C    0.618948
    63  C   -0.173356
    64  H    0.112641
    65  H    0.100536
    66  O   -0.548770
    67  C   -0.071832
    68  H    0.114005
    69  C   -0.317000
    70  H    0.104255
    71  H    0.098408
    72  H    0.108100
    73  C   -0.311916
    74  H    0.101959
    75  H    0.105039
    76  H    0.103797
    77  N   -0.542660
    78  H    0.305865
    79  C    0.008374
    80  H    0.122623
    81  C    0.604101
    82  C   -0.191057
    83  H    0.137308
    84  H    0.127496
    85  O   -0.528906
    86  C   -0.283548
    87  H    0.183241
    88  H    0.137494
    89  C    0.592901
    90  O   -0.495171
    91  O   -0.466940
    92  N   -0.530912
    93  H    0.265674
    94  C    0.012381
    95  H    0.164818
    96  C    0.614254
    97  C   -0.310332
    98  H    0.150954
    99  H    0.134407
   100  O   -0.565496
   101  C    0.595515
   102  N   -0.608785
   103  H    0.289556
   104  H    0.278107
   105  O   -0.503793
   106  N   -0.513432
   107  H    0.309317
   108  C    0.023068
   109  H    0.124092
   110  C    0.583858
   111  C   -0.244228
   112  H    0.147222
   113  H    0.135096
   114  O   -0.538555
   115  C    0.077330
   116  C   -0.152267
   117  H    0.126561
   118  C   -0.148120
   119  H    0.117963
   120  C   -0.160139
   121  H    0.126019
   122  C   -0.175518
   123  H    0.107716
   124  O   -0.612810
   125  H    0.341991
   126  C    0.340964
   127  N   -0.520822
   128  H    0.276290
   129  C    0.008933
   130  H    0.136684
   131  C    0.600809
   132  C   -0.177264
   133  H    0.116889
   134  H    0.134642
   135  O   -0.611556
   136  C   -0.219807
   137  H    0.107679
   138  H    0.126123
   139  C   -0.075385
   140  H    0.168231
   141  H    0.131129
   142  N   -0.528637
   143  H    0.279293
   144  N   -0.632026
   145  H    0.275726
   146  H    0.381618
   147  N   -0.631327
   148  H    0.297839
   149  H    0.296413
   150  C    0.771197
   151  O   -0.620188
   152  H    0.319788
 Sum of Mulliken charges =   1.00000

 Dipole moment (field-independent basis, Debye):
    X=             24.0343    Y=             -8.7387    Z=              7.9873  Tot=             26.7920
 Quadrupole moment (field-independent basis, Debye-Ang):
   XX=           -136.4324   YY=           -331.7782   ZZ=           -351.5776
   XY=           -126.5624   XZ=            -12.5727   YZ=            -59.3214

 Normal termination of Gaussian 16 at Thu Sep  8 08:50:03 2022.
