 Gaussian 16, Revision C.01,
 Gaussian 16:  ES64L-G16RevC.01  3-Jul-2019

 ----------------------------------------------------------------------
 # B3LYP/6-31G** empiricaldispersion=gd3bj guess=read geom=check nosymm
  integral(ultrafinegrid)
 ----------------------------------------------------------------------

 ------------------------------------------------------
 Candidate Structure: Conf:981 Charge calc in gas phase
 ------------------------------------------------------
 Structure from the checkpoint file:  "conf-981.chk"
 Charge =  1 Multiplicity = 1

                          Input orientation:
 ---------------------------------------------------------------------
 Center     Atomic      Atomic             Coordinates (Angstroms)
 Number     Number       Type             X           Y           Z
 ---------------------------------------------------------------------
      1          7           0      -11.275237    2.936415    5.437301
      2          1           0      -11.621010    3.895133    5.458889
      3          1           0      -11.288629    2.528460    4.427191
      4          1           0      -11.840164    2.365008    6.067245
      5          6           0       -9.795169    2.816040    5.714319
      6          1           0       -9.396713    3.823977    5.853036
      7          6           0       -9.277376    2.217602    4.380263
      8          6           0       -9.496804    1.948783    6.952031
      9          1           0       -8.402660    1.909629    7.013386
     10          8           0      -10.133547    1.972502    3.506229
     11          6           0      -10.015429    2.613623    8.233176
     12          1           0      -11.111207    2.664872    8.256589
     13          1           0       -9.709713    2.034333    9.107331
     14          1           0       -9.625582    3.629302    8.350038
     15          6           0      -10.011307    0.511752    6.793890
     16          1           0      -11.107030    0.459696    6.754144
     17          1           0       -9.616981    0.030215    5.895476
     18          1           0       -9.706309   -0.085965    7.655451
     19          7           0       -7.982431    2.002439    4.279447
     20          1           0       -7.318960    2.178279    5.038736
     21          6           0       -7.317600    1.396016    3.126955
     22          1           0       -7.918945    0.550465    2.784718
     23          6           0       -5.970555    0.922524    3.700383
     24          6           0       -7.156183    2.424367    1.967446
     25          1           0       -8.166527    2.828740    1.823500
     26          8           0       -5.571276    1.388032    4.773853
     27          6           0       -6.726114    1.791298    0.630921
     28          1           0       -5.681329    1.468375    0.674048
     29          1           0       -6.750358    2.594949   -0.113883
     30          6           0       -6.213102    3.568666    2.354717
     31          1           0       -5.184563    3.213669    2.473843
     32          1           0       -6.510424    4.050746    3.290870
     33          1           0       -6.208031    4.331000    1.571323
     34          6           0       -7.606394    0.638878    0.140069
     35          1           0       -7.321387    0.348818   -0.874000
     36          1           0       -7.513587   -0.261268    0.759381
     37          1           0       -8.665401    0.919234    0.128217
     38          7           0       -5.299402    0.030936    2.956915
     39          1           0       -5.636737   -0.202375    2.027878
     40          6           0       -3.868855   -0.217680    3.105213
     41          1           0       -3.493972    0.432661    3.897351
     42          6           0       -3.257122    0.132505    1.743211
     43          6           0       -3.574380   -1.699717    3.442411
     44          1           0       -4.128003   -2.320654    2.731352
     45          1           0       -3.968252   -1.904483    4.442778
     46          8           0       -3.874724   -0.177766    0.717649
     47          6           0       -2.096145   -1.997112    3.354716
     48          6           0       -1.548009   -2.498468    2.167519
     49          1           0       -2.205939   -2.734658    1.335830
     50          6           0       -1.238098   -1.676711    4.412407
     51          1           0       -1.651931   -1.289252    5.340379
     52          6           0       -0.170895   -2.672106    2.038138
     53          1           0        0.241026   -3.052618    1.109127
     54          6           0        0.140166   -1.847598    4.284317
     55          1           0        0.795197   -1.589652    5.110315
     56          6           0        0.676252   -2.342701    3.096091
     57          1           0        1.749173   -2.467616    2.993414
     58          7           0       -2.073787    0.759595    1.768969
     59          1           0       -1.550538    0.825981    2.637550
     60          6           0       -1.247847    0.932373    0.583985
     61          1           0       -1.611312    0.246423   -0.185178
     62          6           0        0.183413    0.608961    1.007627
     63          6           0       -1.241003    2.393111    0.075479
     64          1           0       -0.588929    2.450355   -0.805313
     65          1           0       -0.760515    3.012250    0.839706
     66          8           0        0.553179    0.824659    2.159380
     67          6           0       -2.617912    2.981159   -0.265475
     68          1           0       -3.259930    2.857528    0.619047
     69          6           0       -2.469504    4.483898   -0.537568
     70          1           0       -1.864319    4.654361   -1.434963
     71          1           0       -1.967716    4.993987    0.289597
     72          1           0       -3.447068    4.950728   -0.701240
     73          6           0       -3.287223    2.269484   -1.446577
     74          1           0       -2.657539    2.335390   -2.341934
     75          1           0       -4.247279    2.740457   -1.686097
     76          1           0       -3.480584    1.217073   -1.227309
     77          7           0        1.009060    0.164441    0.018215
     78          1           0        0.652349    0.235341   -0.928252
     79          6           0        2.437355    0.469458    0.116563
     80          1           0        2.701098    0.390166    1.173374
     81          6           0        2.582391    1.907405   -0.395658
     82          6           0        3.288322   -0.467191   -0.744171
     83          1           0        3.025256   -0.323495   -1.795834
     84          1           0        3.057002   -1.504630   -0.487180
     85          8           0        2.194332    2.194514   -1.530002
     86          6           0        4.778628   -0.181561   -0.564075
     87          1           0        4.977285    0.895135   -0.592737
     88          1           0        5.140256   -0.525202    0.412861
     89          6           0        5.646254   -0.809235   -1.643012
     90          8           0        5.218303   -1.537188   -2.518783
     91          8           0        6.916505   -0.432583   -1.512218
     92          7           0        3.136846    2.816409    0.436326
     93          1           0        3.478767    2.517425    1.338004
     94          6           0        3.350999    4.197366    0.013003
     95          1           0        2.568701    4.399491   -0.724857
     96          6           0        4.733215    4.360181   -0.660330
     97          6           0        3.181010    5.150923    1.184013
     98          1           0        3.852556    4.881005    2.007352
     99          1           0        3.492805    6.149921    0.863368
    100          8           0        5.523021    5.242240   -0.327474
    101          6           0        1.728044    5.200645    1.647348
    102          7           0        1.555570    5.532220    2.957313
    103          1           0        0.614073    5.674180    3.289864
    104          1           0        2.324823    5.806574    3.546496
    105          8           0        0.785661    4.969397    0.899199
    106          7           0        4.984127    3.426194   -1.605860
    107          1           0        4.231224    2.845093   -1.972698
    108          6           0        6.258812    3.282923   -2.278132
    109          1           0        6.512927    4.212966   -2.804792
    110          6           0        6.047328    2.171313   -3.325269
    111          6           0        7.410948    2.968285   -1.274617
    112          1           0        7.258786    3.634069   -0.422394
    113          1           0        7.314364    1.933568   -0.936606
    114          8           0        4.941926    1.672383   -3.500553
    115          6           0        8.777137    3.206255   -1.873084
    116          6           0        9.658140    2.147209   -2.135044
    117          1           0        9.389147    1.135580   -1.847303
    118          6           0        9.154974    4.496665   -2.271976
    119          1           0        8.501270    5.335777   -2.049195
    120          6           0       10.849493    2.351891   -2.828526
    121          1           0       11.487431    1.514529   -3.083344
    122          6           0       10.343010    4.714764   -2.963820
    123          1           0       10.609982    5.717966   -3.289131
    124          8           0       12.297510    3.772654   -4.053543
    125          1           0       12.509973    4.712466   -4.129249
    126          6           0       11.176501    3.633682   -3.267047
    127          7           0        7.149707    1.795201   -4.052047
    128          1           0        8.034139    2.082879   -3.638443
    129          6           0        7.182199    0.441286   -4.675507
    130          1           0        6.390701   -0.140876   -4.205169
    131          6           0        8.575006   -0.122474   -4.270962
    132          6           0        6.966066    0.421095   -6.206724
    133          1           0        7.941194    0.492425   -6.698510
    134          1           0        6.581118   -0.574834   -6.443780
    135          8           0        8.624171   -0.938683   -3.321113
    136          6           0        6.007362    1.492730   -6.769055
    137          1           0        5.361301    1.062171   -7.540649
    138          1           0        5.339715    1.849932   -5.979325
    139          6           0        6.748005    2.681916   -7.410109
    140          1           0        7.200434    2.380926   -8.360527
    141          1           0        6.054267    3.504858   -7.613799
    142          7           0        7.827724    3.129394   -6.514511
    143          1           0        7.654272    2.879624   -5.537786
    144          7           0        9.486119    3.763802   -8.007694
    145          1           0       10.385498    3.582696   -8.422510
    146          1           0        8.832257    4.350208   -8.500218
    147          7           0       10.028000    2.648142   -6.029376
    148          1           0       10.997718    2.932293   -6.074432
    149          1           0        9.782456    1.752305   -5.488072
    150          6           0        9.129406    3.169174   -6.848271
    151          8           0        9.573351    0.353570   -4.886082
    152          1           0        7.511525   -0.791437   -2.270181
 ---------------------------------------------------------------------

 SCF Done:  E(RB3LYP) =  -3587.12857381     A.U. after    2 cycles

 Alpha  occ. eigenvalues --  -19.27033 -19.22632 -19.21526 -19.18431 -19.17771
 Alpha  occ. eigenvalues --  -19.17490 -19.17170 -19.16618 -19.16616 -19.15866
 Alpha  occ. eigenvalues --  -19.13913 -19.12707 -19.12418 -14.58637 -14.49144
 Alpha  occ. eigenvalues --  -14.45164 -14.44825 -14.42483 -14.42174 -14.41916
 Alpha  occ. eigenvalues --  -14.41207 -14.41199 -14.41166 -14.40340 -14.39256
 Alpha  occ. eigenvalues --  -10.43306 -10.40094 -10.39533 -10.38400 -10.35311
 Alpha  occ. eigenvalues --  -10.34401 -10.34357 -10.34115 -10.33727 -10.33603
 Alpha  occ. eigenvalues --  -10.33547 -10.32814 -10.32352 -10.30840 -10.30750
 Alpha  occ. eigenvalues --  -10.30748 -10.30541 -10.28987 -10.28654 -10.28408
 Alpha  occ. eigenvalues --  -10.28378 -10.28111 -10.27970 -10.27914 -10.25924
 Alpha  occ. eigenvalues --  -10.25599 -10.25467 -10.25007 -10.24985 -10.24937
 Alpha  occ. eigenvalues --  -10.24787 -10.24005 -10.23834 -10.23775 -10.23687
 Alpha  occ. eigenvalues --  -10.23572 -10.23425 -10.23322 -10.23230 -10.23157
 Alpha  occ. eigenvalues --  -10.22957 -10.22542 -10.22480 -10.22421 -10.22417
 Alpha  occ. eigenvalues --  -10.22349 -10.22160 -10.22047 -10.20729 -10.20715
 Alpha  occ. eigenvalues --   -1.19438  -1.13626  -1.12702  -1.10474  -1.10346
 Alpha  occ. eigenvalues --   -1.09605  -1.09502  -1.09109  -1.08705  -1.08343
 Alpha  occ. eigenvalues --   -1.08261  -1.07341  -1.06034  -1.05984  -1.01596
 Alpha  occ. eigenvalues --   -1.00890  -0.98958  -0.98271  -0.98152  -0.97925
 Alpha  occ. eigenvalues --   -0.97404  -0.96488  -0.96135  -0.95806  -0.95545
 Alpha  occ. eigenvalues --   -0.95273  -0.91035  -0.90417  -0.89544  -0.86449
 Alpha  occ. eigenvalues --   -0.86364  -0.85133  -0.84541  -0.83879  -0.83049
 Alpha  occ. eigenvalues --   -0.82409  -0.82288  -0.81931  -0.80607  -0.79980
 Alpha  occ. eigenvalues --   -0.79302  -0.78830  -0.78592  -0.78374  -0.77071
 Alpha  occ. eigenvalues --   -0.75937  -0.73878  -0.73419  -0.73015  -0.72865
 Alpha  occ. eigenvalues --   -0.72398  -0.71911  -0.71772  -0.70753  -0.70315
 Alpha  occ. eigenvalues --   -0.70238  -0.69384  -0.69333  -0.67793  -0.67086
 Alpha  occ. eigenvalues --   -0.66276  -0.66203  -0.65538  -0.65461  -0.65221
 Alpha  occ. eigenvalues --   -0.65046  -0.64575  -0.64070  -0.63724  -0.63506
 Alpha  occ. eigenvalues --   -0.63222  -0.62822  -0.62184  -0.61874  -0.61528
 Alpha  occ. eigenvalues --   -0.61416  -0.60694  -0.60273  -0.59863  -0.59773
 Alpha  occ. eigenvalues --   -0.59501  -0.59056  -0.58339  -0.58204  -0.58163
 Alpha  occ. eigenvalues --   -0.57887  -0.57174  -0.56841  -0.56529  -0.56386
 Alpha  occ. eigenvalues --   -0.55464  -0.55000  -0.54728  -0.54535  -0.54359
 Alpha  occ. eigenvalues --   -0.53882  -0.53759  -0.53477  -0.53091  -0.52735
 Alpha  occ. eigenvalues --   -0.52137  -0.52075  -0.52020  -0.51765  -0.51366
 Alpha  occ. eigenvalues --   -0.51120  -0.51001  -0.50955  -0.50862  -0.50714
 Alpha  occ. eigenvalues --   -0.50346  -0.50290  -0.50229  -0.49859  -0.49420
 Alpha  occ. eigenvalues --   -0.49407  -0.49365  -0.48896  -0.48773  -0.48290
 Alpha  occ. eigenvalues --   -0.48173  -0.48033  -0.47827  -0.47711  -0.47596
 Alpha  occ. eigenvalues --   -0.47375  -0.47336  -0.47270  -0.47078  -0.47018
 Alpha  occ. eigenvalues --   -0.46649  -0.46400  -0.46245  -0.46123  -0.45983
 Alpha  occ. eigenvalues --   -0.45707  -0.45610  -0.45511  -0.45380  -0.45191
 Alpha  occ. eigenvalues --   -0.44777  -0.44596  -0.44528  -0.44356  -0.44057
 Alpha  occ. eigenvalues --   -0.43850  -0.43568  -0.43378  -0.43056  -0.43041
 Alpha  occ. eigenvalues --   -0.42806  -0.42553  -0.42424  -0.42164  -0.42057
 Alpha  occ. eigenvalues --   -0.41780  -0.41709  -0.41554  -0.41506  -0.41185
 Alpha  occ. eigenvalues --   -0.41019  -0.40806  -0.40716  -0.40286  -0.40040
 Alpha  occ. eigenvalues --   -0.39735  -0.39588  -0.39284  -0.39177  -0.39072
 Alpha  occ. eigenvalues --   -0.38827  -0.38713  -0.38298  -0.38158  -0.37976
 Alpha  occ. eigenvalues --   -0.37708  -0.37271  -0.36691  -0.36563  -0.36398
 Alpha  occ. eigenvalues --   -0.36370  -0.36199  -0.35585  -0.35197  -0.35036
 Alpha  occ. eigenvalues --   -0.33097  -0.33002  -0.32780  -0.32302  -0.32070
 Alpha  occ. eigenvalues --   -0.32038  -0.31870  -0.31387  -0.30810  -0.30627
 Alpha  occ. eigenvalues --   -0.30489  -0.30064  -0.29676  -0.29372  -0.29251
 Alpha  occ. eigenvalues --   -0.29099  -0.28252  -0.28226  -0.27576  -0.27213
 Alpha  occ. eigenvalues --   -0.26188  -0.25973
 Alpha virt. eigenvalues --   -0.12250  -0.10619  -0.07343  -0.06304  -0.05860
 Alpha virt. eigenvalues --   -0.05611  -0.05338  -0.05229  -0.04247  -0.04184
 Alpha virt. eigenvalues --   -0.03913  -0.03878  -0.03290  -0.02586  -0.02151

 Mulliken charges:
               1
     1  N   -0.563961
     2  H    0.347935
     3  H    0.379452
     4  H    0.338895
     5  C   -0.074110
     6  H    0.175118
     7  C    0.644470
     8  C   -0.100699
     9  H    0.150812
    10  O   -0.555950
    11  C   -0.325495
    12  H    0.098255
    13  H    0.155526
    14  H    0.129077
    15  C   -0.340132
    16  H    0.100953
    17  H    0.142645
    18  H    0.157049
    19  N   -0.521397
    20  H    0.304671
    21  C   -0.028804
    22  H    0.147551
    23  C    0.610955
    24  C   -0.055113
    25  H    0.111750
    26  O   -0.556135
    27  C   -0.210239
    28  H    0.139813
    29  H    0.114579
    30  C   -0.328218
    31  H    0.130718
    32  H    0.088510
    33  H    0.125285
    34  C   -0.332851
    35  H    0.134176
    36  H    0.091662
    37  H    0.112359
    38  N   -0.521122
    39  H    0.295951
    40  C   -0.027421
    41  H    0.140229
    42  C    0.617729
    43  C   -0.230827
    44  H    0.118003
    45  H    0.118888
    46  O   -0.559956
    47  C    0.092870
    48  C   -0.122720
    49  H    0.096745
    50  C   -0.133128
    51  H    0.079736
    52  C   -0.089877
    53  H    0.100366
    54  C   -0.066444
    55  H    0.092920
    56  C   -0.069679
    57  H    0.094413
    58  N   -0.497092
    59  H    0.289033
    60  C   -0.042811
    61  H    0.133429
    62  C    0.620385
    63  C   -0.165113
    64  H    0.119513
    65  H    0.130149
    66  O   -0.543515
    67  C   -0.066331
    68  H    0.073934
    69  C   -0.308327
    70  H    0.111578
    71  H    0.115368
    72  H    0.080977
    73  C   -0.327257
    74  H    0.099523
    75  H    0.087201
    76  H    0.129124
    77  N   -0.519147
    78  H    0.278543
    79  C   -0.028884
    80  H    0.120392
    81  C    0.621236
    82  C   -0.176927
    83  H    0.149976
    84  H    0.115477
    85  O   -0.551304
    86  C   -0.275592
    87  H    0.120081
    88  H    0.122396
    89  C    0.609304
    90  O   -0.491569
    91  O   -0.561897
    92  N   -0.509709
    93  H    0.269876
    94  C   -0.031074
    95  H    0.183981
    96  C    0.614353
    97  C   -0.280367
    98  H    0.109489
    99  H    0.169563
   100  O   -0.541756
   101  C    0.589298
   102  N   -0.609170
   103  H    0.277572
   104  H    0.275736
   105  O   -0.505036
   106  N   -0.573524
   107  H    0.320724
   108  C    0.021436
   109  H    0.130280
   110  C    0.597176
   111  C   -0.266762
   112  H    0.147510
   113  H    0.145074
   114  O   -0.516462
   115  C    0.056288
   116  C   -0.179410
   117  H    0.137046
   118  C   -0.126426
   119  H    0.107597
   120  C   -0.085118
   121  H    0.127755
   122  C   -0.130772
   123  H    0.076980
   124  O   -0.575204
   125  H    0.318455
   126  C    0.319426
   127  N   -0.617748
   128  H    0.296953
   129  C    0.004406
   130  H    0.167477
   131  C    0.574121
   132  C   -0.214463
   133  H    0.105842
   134  H    0.128238
   135  O   -0.569926
   136  C   -0.221665
   137  H    0.115233
   138  H    0.143670
   139  C   -0.068588
   140  H    0.117633
   141  H    0.120242
   142  N   -0.520534
   143  H    0.310875
   144  N   -0.604073
   145  H    0.298463
   146  H    0.300121
   147  N   -0.635115
   148  H    0.279150
   149  H    0.394627
   150  C    0.700018
   151  O   -0.597129
   152  H    0.389706
 Sum of Mulliken charges =   1.00000

 Dipole moment (field-independent basis, Debye):
    X=            -30.3065    Y=             22.2931    Z=             15.0009  Tot=             40.5030
 Quadrupole moment (field-independent basis, Debye-Ang):
   XX=             76.4173   YY=           -363.9255   ZZ=           -173.3373
   XY=              0.2748   XZ=           -340.4323   YZ=              2.2627

 Normal termination of Gaussian 16 at Thu Sep  8 08:46:14 2022.
