 Gaussian 16, Revision C.01,
 Gaussian 16:  ES64L-G16RevC.01  3-Jul-2019

 ----------------------------------------------------------------------
 # B3LYP/6-31G** empiricaldispersion=gd3bj guess=read geom=check nosymm
  integral(ultrafinegrid)
 ----------------------------------------------------------------------

 -----------------------------------------------------
 Candidate Structure: Conf:34 Charge calc in gas phase
 -----------------------------------------------------
 Structure from the checkpoint file:  "conf-34.chk"
 Charge =  1 Multiplicity = 1

                          Input orientation:
 ---------------------------------------------------------------------
 Center     Atomic      Atomic             Coordinates (Angstroms)
 Number     Number       Type             X           Y           Z
 ---------------------------------------------------------------------
      1          7           0        0.913235   -4.301057    1.868542
      2          1           0        1.056730   -5.307011    1.808975
      3          1           0        0.935794   -3.845322    0.915637
      4          1           0        1.704592   -3.897122    2.390836
      5          6           0       -0.433195   -3.891202    2.395267
      6          1           0       -1.103333   -4.740854    2.231892
      7          6           0       -0.849047   -2.761227    1.416747
      8          6           0       -0.408261   -3.539673    3.891570
      9          1           0       -1.454816   -3.359974    4.166498
     10          8           0       -0.156473   -2.605697    0.399195
     11          6           0        0.092241   -4.730857    4.720286
     12          1           0        1.150318   -4.943892    4.523472
     13          1           0        0.003566   -4.512897    5.787118
     14          1           0       -0.482735   -5.639916    4.516804
     15          6           0        0.384401   -2.260666    4.189828
     16          1           0        1.451542   -2.402049    3.977111
     17          1           0        0.022224   -1.409656    3.607455
     18          1           0        0.295787   -2.015233    5.251245
     19          7           0       -1.950109   -2.087227    1.715733
     20          1           0       -2.397203   -2.154350    2.629357
     21          6           0       -2.428075   -0.926131    0.966541
     22          1           0       -1.578923   -0.499474    0.426110
     23          6           0       -2.910571    0.037882    2.068370
     24          6           0       -3.564071   -1.296412   -0.029279
     25          1           0       -4.416485   -1.637657    0.575525
     26          8           0       -3.294230   -0.419332    3.152841
     27          6           0       -3.132089   -2.458242   -0.944035
     28          1           0       -2.814866   -3.299654   -0.319173
     29          1           0       -2.249291   -2.153165   -1.519037
     30          6           0       -3.997951   -0.069013   -0.841627
     31          1           0       -3.161261    0.326615   -1.429842
     32          1           0       -4.377544    0.735870   -0.210640
     33          1           0       -4.794302   -0.334075   -1.539049
     34          6           0       -4.232233   -2.949635   -1.888475
     35          1           0       -3.907284   -3.848553   -2.420510
     36          1           0       -5.144689   -3.201415   -1.336516
     37          1           0       -4.493889   -2.203238   -2.642681
     38          7           0       -2.875427    1.333709    1.746083
     39          1           0       -2.562967    1.635713    0.826291
     40          6           0       -3.266218    2.445314    2.596228
     41          1           0       -4.327074    2.360734    2.863366
     42          6           0       -3.066193    3.686221    1.692509
     43          6           0       -2.427908    2.472143    3.905099
     44          1           0       -1.386519    2.670154    3.647042
     45          1           0       -2.476594    1.456984    4.305633
     46          8           0       -2.776012    3.533697    0.500730
     47          6           0       -2.919478    3.450996    4.944925
     48          6           0       -2.194415    4.612184    5.251691
     49          1           0       -1.264765    4.826435    4.732587
     50          6           0       -4.134840    3.220821    5.605251
     51          1           0       -4.698016    2.317267    5.385774
     52          6           0       -2.681132    5.525018    6.190098
     53          1           0       -2.109326    6.420942    6.410150
     54          6           0       -4.619475    4.131138    6.542569
     55          1           0       -5.562068    3.938120    7.045131
     56          6           0       -3.894066    5.287776    6.836191
     57          1           0       -4.272799    5.997961    7.564190
     58          7           0       -3.177477    4.900809    2.267096
     59          1           0       -3.284398    4.944399    3.273938
     60          6           0       -2.608740    6.099099    1.625082
     61          1           0       -2.933660    6.096484    0.583403
     62          6           0       -1.077908    5.918285    1.713630
     63          6           0       -3.087954    7.349559    2.353971
     64          1           0       -2.826413    7.247977    3.413419
     65          1           0       -4.182316    7.385977    2.286100
     66          8           0       -0.453800    6.186221    2.739541
     67          6           0       -2.486819    8.660461    1.820097
     68          1           0       -1.403735    8.615461    1.989228
     69          6           0       -2.734312    8.850217    0.318058
     70          1           0       -3.806208    8.817311    0.088663
     71          1           0       -2.235969    8.083314   -0.283354
     72          1           0       -2.354047    9.820490   -0.015453
     73          6           0       -3.041306    9.844324    2.620304
     74          1           0       -4.124185    9.940012    2.477509
     75          1           0       -2.579693   10.783909    2.301999
     76          1           0       -2.853772    9.723301    3.692224
     77          7           0       -0.512993    5.333206    0.624911
     78          1           0       -1.135832    4.931447   -0.071641
     79          6           0        0.740855    4.601848    0.750011
     80          1           0        1.515116    5.262707    1.149508
     81          6           0        1.083774    4.067021   -0.641605
     82          6           0        0.502242    3.389072    1.689401
     83          1           0       -0.187022    2.715523    1.175878
     84          1           0       -0.009849    3.783636    2.567866
     85          8           0        0.188868    3.729572   -1.407495
     86          6           0        1.731251    2.610385    2.154833
     87          1           0        2.464485    2.448547    1.354938
     88          1           0        2.267848    3.127973    2.955072
     89          6           0        1.365509    1.228999    2.631510
     90          8           0        0.389873    0.582365    2.292777
     91          8           0        2.286959    0.726777    3.488880
     92          7           0        2.413208    3.912959   -0.931594
     93          1           0        3.074254    4.037904   -0.173898
     94          6           0        2.801082    2.898443   -1.900211
     95          1           0        1.893127    2.608452   -2.430531
     96          6           0        3.361002    1.706871   -1.112128
     97          6           0        3.828967    3.394011   -2.930831
     98          1           0        3.547714    4.404206   -3.245773
     99          1           0        4.833617    3.459183   -2.496561
    100          8           0        3.901872    1.868612   -0.012608
    101          6           0        3.874496    2.499930   -4.170360
    102          7           0        4.765838    2.876217   -5.119130
    103          1           0        4.883592    2.229377   -5.886490
    104          1           0        5.598374    3.373176   -4.833261
    105          8           0        3.112496    1.541013   -4.329371
    106          7           0        3.233014    0.506023   -1.710037
    107          1           0        2.908723    0.513687   -2.676757
    108          6           0        3.827899   -0.689358   -1.132811
    109          1           0        4.385637   -0.340875   -0.258036
    110          6           0        4.825547   -1.288227   -2.143677
    111          6           0        2.760551   -1.697253   -0.685462
    112          1           0        1.916059   -1.131990   -0.282591
    113          1           0        2.400616   -2.254873   -1.552889
    114          8           0        4.782219   -2.462796   -2.505137
    115          6           0        3.265149   -2.646614    0.373456
    116          6           0        3.577172   -3.983473    0.084838
    117          1           0        3.511238   -4.322416   -0.943356
    118          6           0        3.432659   -2.204028    1.691508
    119          1           0        3.229620   -1.165476    1.937178
    120          6           0        3.995935   -4.864824    1.080665
    121          1           0        4.247364   -5.895098    0.852383
    122          6           0        3.858055   -3.072398    2.703143
    123          1           0        4.003077   -2.703457    3.716022
    124          8           0        4.525545   -5.321704    3.339047
    125          1           0        4.773673   -4.866901    4.155343
    126          6           0        4.139765   -4.413091    2.399204
    127          7           0        5.718980   -0.379302   -2.589664
    128          1           0        5.625915    0.591886   -2.316475
    129          6           0        6.602275   -0.571206   -3.723904
    130          1           0        7.259796   -1.422589   -3.536174
    131          6           0        7.429624    0.719537   -3.839543
    132          6           0        5.809977   -0.794115   -5.056787
    133          1           0        4.792169   -0.436950   -4.883336
    134          1           0        6.221839   -0.140026   -5.836533
    135          8           0        6.950211    1.785565   -3.472729
    136          6           0        5.800830   -2.250809   -5.563257
    137          1           0        5.985897   -2.926942   -4.724306
    138          1           0        4.806229   -2.505875   -5.945387
    139          6           0        6.812262   -2.505636   -6.690782
    140          1           0        6.836223   -3.569029   -6.944074
    141          1           0        6.506989   -1.978382   -7.599890
    142          7           0        8.174046   -2.044101   -6.392631
    143          1           0        8.282969   -1.037979   -6.420565
    144          7           0        8.915379   -3.952299   -5.292032
    145          1           0        9.531825   -4.375138   -4.615041
    146          1           0        8.817277   -4.465798   -6.156022
    147          7           0        9.549163   -1.778782   -4.566691
    148          1           0       10.213426   -2.236749   -3.949965
    149          1           0        9.005922   -0.340818   -4.440434
    150          6           0        8.925423   -2.582983   -5.375062
    151          8           0        8.605233    0.628105   -4.418393
    152          1           0        1.969571   -0.153497    3.748307
 ---------------------------------------------------------------------

 SCF Done:  E(RB3LYP) =  -3587.15364242     A.U. after    1 cycles

 Alpha  occ. eigenvalues --  -19.28073 -19.27880 -19.24357 -19.22619 -19.22162
 Alpha  occ. eigenvalues --  -19.19982 -19.19765 -19.19745 -19.19602 -19.19084
 Alpha  occ. eigenvalues --  -19.18785 -19.18723 -19.17511 -14.55964 -14.46968
 Alpha  occ. eigenvalues --  -14.43851 -14.43482 -14.43430 -14.43131 -14.43065
 Alpha  occ. eigenvalues --  -14.42634 -14.42258 -14.42197 -14.41312 -14.38444
 Alpha  occ. eigenvalues --  -10.41082 -10.40482 -10.37925 -10.37697 -10.37344
 Alpha  occ. eigenvalues --  -10.36881 -10.36777 -10.36534 -10.36362 -10.35788
 Alpha  occ. eigenvalues --  -10.35576 -10.35521 -10.34311 -10.32783 -10.31726
 Alpha  occ. eigenvalues --  -10.31396 -10.30498 -10.30451 -10.30117 -10.29956
 Alpha  occ. eigenvalues --  -10.29691 -10.29600 -10.29513 -10.29296 -10.29213
 Alpha  occ. eigenvalues --  -10.28954 -10.28812 -10.28755 -10.28702 -10.27222
 Alpha  occ. eigenvalues --  -10.27206 -10.26676 -10.26589 -10.26090 -10.26001
 Alpha  occ. eigenvalues --  -10.25932 -10.25826 -10.25214 -10.25073 -10.25010
 Alpha  occ. eigenvalues --  -10.24991 -10.24929 -10.24828 -10.24754 -10.24234
 Alpha  occ. eigenvalues --  -10.23923 -10.23722 -10.23526 -10.21829 -10.21548
 Alpha  occ. eigenvalues --   -1.18953  -1.16783  -1.16059  -1.14244  -1.12263
 Alpha  occ. eigenvalues --   -1.11977  -1.11462  -1.10936  -1.10791  -1.10637
 Alpha  occ. eigenvalues --   -1.10227  -1.09736  -1.09179  -1.06932  -1.06008
 Alpha  occ. eigenvalues --   -1.03827  -1.00921  -1.00598  -0.99777  -0.99692
 Alpha  occ. eigenvalues --   -0.98829  -0.98362  -0.97521  -0.97311  -0.95602
 Alpha  occ. eigenvalues --   -0.93571  -0.93559  -0.91871  -0.89235  -0.88023
 Alpha  occ. eigenvalues --   -0.87443  -0.86672  -0.86072  -0.85512  -0.85415
 Alpha  occ. eigenvalues --   -0.85031  -0.84738  -0.82231  -0.81920  -0.81451
 Alpha  occ. eigenvalues --   -0.80650  -0.80428  -0.80213  -0.79931  -0.78670
 Alpha  occ. eigenvalues --   -0.77542  -0.75891  -0.74897  -0.73586  -0.73237
 Alpha  occ. eigenvalues --   -0.72811  -0.72351  -0.71888  -0.71830  -0.71548
 Alpha  occ. eigenvalues --   -0.70742  -0.70099  -0.69838  -0.69207  -0.68426
 Alpha  occ. eigenvalues --   -0.67938  -0.67127  -0.66893  -0.66596  -0.66398
 Alpha  occ. eigenvalues --   -0.66151  -0.65639  -0.65450  -0.65038  -0.64805
 Alpha  occ. eigenvalues --   -0.64553  -0.64399  -0.64235  -0.63760  -0.63435
 Alpha  occ. eigenvalues --   -0.63154  -0.62967  -0.62004  -0.61251  -0.60761
 Alpha  occ. eigenvalues --   -0.60162  -0.59962  -0.59677  -0.59021  -0.58446
 Alpha  occ. eigenvalues --   -0.58201  -0.57755  -0.57635  -0.57258  -0.56761
 Alpha  occ. eigenvalues --   -0.56601  -0.56516  -0.56326  -0.56196  -0.56017
 Alpha  occ. eigenvalues --   -0.55905  -0.55664  -0.55283  -0.55162  -0.54778
 Alpha  occ. eigenvalues --   -0.54161  -0.54116  -0.53894  -0.53602  -0.53253
 Alpha  occ. eigenvalues --   -0.53104  -0.52677  -0.52432  -0.52305  -0.52232
 Alpha  occ. eigenvalues --   -0.52087  -0.51930  -0.51861  -0.51508  -0.51381
 Alpha  occ. eigenvalues --   -0.51152  -0.51029  -0.50958  -0.50645  -0.50579
 Alpha  occ. eigenvalues --   -0.50411  -0.49994  -0.49915  -0.49772  -0.49377
 Alpha  occ. eigenvalues --   -0.49149  -0.49117  -0.48515  -0.48287  -0.48254
 Alpha  occ. eigenvalues --   -0.48219  -0.47955  -0.47882  -0.47795  -0.47593
 Alpha  occ. eigenvalues --   -0.47332  -0.47200  -0.47049  -0.46991  -0.46949
 Alpha  occ. eigenvalues --   -0.46857  -0.46453  -0.46214  -0.46017  -0.45928
 Alpha  occ. eigenvalues --   -0.45752  -0.45678  -0.45539  -0.45213  -0.45163
 Alpha  occ. eigenvalues --   -0.44858  -0.44650  -0.44351  -0.44199  -0.43669
 Alpha  occ. eigenvalues --   -0.43509  -0.43432  -0.43268  -0.43011  -0.42902
 Alpha  occ. eigenvalues --   -0.42762  -0.42582  -0.42375  -0.42199  -0.41980
 Alpha  occ. eigenvalues --   -0.41827  -0.41619  -0.41579  -0.41395  -0.41122
 Alpha  occ. eigenvalues --   -0.40878  -0.40802  -0.40405  -0.40263  -0.40057
 Alpha  occ. eigenvalues --   -0.39807  -0.39599  -0.39405  -0.38729  -0.37663
 Alpha  occ. eigenvalues --   -0.37293  -0.36895  -0.36629  -0.36530  -0.36116
 Alpha  occ. eigenvalues --   -0.36035  -0.35874  -0.35046  -0.34803  -0.34421
 Alpha  occ. eigenvalues --   -0.34317  -0.34102  -0.34091  -0.33720  -0.33513
 Alpha  occ. eigenvalues --   -0.33117  -0.33012  -0.32940  -0.32684  -0.32220
 Alpha  occ. eigenvalues --   -0.31959  -0.31499  -0.31289  -0.31070  -0.30996
 Alpha  occ. eigenvalues --   -0.30441  -0.29823
 Alpha virt. eigenvalues --   -0.11346  -0.10430  -0.09481  -0.07627  -0.07326
 Alpha virt. eigenvalues --   -0.06903  -0.06469  -0.06426  -0.05695  -0.05565
 Alpha virt. eigenvalues --   -0.05469  -0.05217  -0.04770  -0.04289  -0.03957

 Mulliken charges:
               1
     1  N   -0.562461
     2  H    0.338261
     3  H    0.365905
     4  H    0.339528
     5  C   -0.069381
     6  H    0.172976
     7  C    0.644119
     8  C   -0.102205
     9  H    0.142191
    10  O   -0.550472
    11  C   -0.331730
    12  H    0.101786
    13  H    0.147290
    14  H    0.123356
    15  C   -0.366758
    16  H    0.084250
    17  H    0.165229
    18  H    0.141719
    19  N   -0.519564
    20  H    0.296198
    21  C   -0.029328
    22  H    0.153252
    23  C    0.631835
    24  C   -0.042077
    25  H    0.098351
    26  O   -0.569322
    27  C   -0.166282
    28  H    0.076473
    29  H    0.110705
    30  C   -0.339725
    31  H    0.118530
    32  H    0.121305
    33  H    0.123319
    34  C   -0.327455
    35  H    0.107926
    36  H    0.108690
    37  H    0.119997
    38  N   -0.539813
    39  H    0.305723
    40  C    0.004792
    41  H    0.149608
    42  C    0.603745
    43  C   -0.248227
    44  H    0.104870
    45  H    0.154451
    46  O   -0.549298
    47  C    0.064494
    48  C   -0.170340
    49  H    0.125708
    50  C   -0.115290
    51  H    0.096547
    52  C   -0.082989
    53  H    0.107035
    54  C   -0.084554
    55  H    0.100487
    56  C   -0.084486
    57  H    0.101621
    58  N   -0.533525
    59  H    0.288351
    60  C   -0.014693
    61  H    0.133523
    62  C    0.606108
    63  C   -0.178455
    64  H    0.113026
    65  H    0.102341
    66  O   -0.545344
    67  C   -0.074002
    68  H    0.113336
    69  C   -0.317098
    70  H    0.103699
    71  H    0.100384
    72  H    0.109842
    73  C   -0.311468
    74  H    0.102441
    75  H    0.106768
    76  H    0.102523
    77  N   -0.518964
    78  H    0.306765
    79  C   -0.013149
    80  H    0.130672
    81  C    0.591756
    82  C   -0.201119
    83  H    0.135885
    84  H    0.140430
    85  O   -0.513531
    86  C   -0.295662
    87  H    0.183695
    88  H    0.145194
    89  C    0.581749
    90  O   -0.486578
    91  O   -0.481567
    92  N   -0.524648
    93  H    0.273798
    94  C   -0.035049
    95  H    0.174336
    96  C    0.585456
    97  C   -0.284889
    98  H    0.166085
    99  H    0.156686
   100  O   -0.546984
   101  C    0.594844
   102  N   -0.583848
   103  H    0.279015
   104  H    0.297001
   105  O   -0.540564
   106  N   -0.524357
   107  H    0.307062
   108  C   -0.038930
   109  H    0.160116
   110  C    0.600663
   111  C   -0.220398
   112  H    0.134938
   113  H    0.121830
   114  O   -0.538631
   115  C    0.079699
   116  C   -0.128612
   117  H    0.132686
   118  C   -0.138568
   119  H    0.113389
   120  C   -0.135807
   121  H    0.120883
   122  C   -0.191684
   123  H    0.099099
   124  O   -0.547392
   125  H    0.329137
   126  C    0.312362
   127  N   -0.537391
   128  H    0.287067
   129  C    0.016308
   130  H    0.133064
   131  C    0.570926
   132  C   -0.210190
   133  H    0.141912
   134  H    0.089965
   135  O   -0.512970
   136  C   -0.186976
   137  H    0.142101
   138  H    0.110043
   139  C   -0.077931
   140  H    0.112750
   141  H    0.124796
   142  N   -0.514831
   143  H    0.272372
   144  N   -0.608638
   145  H    0.279452
   146  H    0.287613
   147  N   -0.681809
   148  H    0.236763
   149  H    0.402189
   150  C    0.660646
   151  O   -0.533954
   152  H    0.324149
 Sum of Mulliken charges =   1.00000

 Dipole moment (field-independent basis, Debye):
    X=              9.6165    Y=            -13.8183    Z=              3.9104  Tot=             17.2833
 Quadrupole moment (field-independent basis, Debye-Ang):
   XX=           -325.1548   YY=           -327.4059   ZZ=           -338.6913
   XY=            -70.5224   XZ=            -66.3858   YZ=              3.3488

 Normal termination of Gaussian 16 at Thu Sep  8 08:46:22 2022.
