 Gaussian 16, Revision C.01,
 Gaussian 16:  ES64L-G16RevC.01  3-Jul-2019

 ----------------------------------------------------------------------
 # B3LYP/6-31G** empiricaldispersion=gd3bj guess=read geom=check nosymm
  integral(ultrafinegrid)
 ----------------------------------------------------------------------

 ------------------------------------------------------
 Candidate Structure: Conf:883 Charge calc in gas phase
 ------------------------------------------------------
 Structure from the checkpoint file:  "conf-883.chk"
 Charge =  1 Multiplicity = 1

                          Input orientation:
 ---------------------------------------------------------------------
 Center     Atomic      Atomic             Coordinates (Angstroms)
 Number     Number       Type             X           Y           Z
 ---------------------------------------------------------------------
      1          7           0      -10.035667    5.865557    2.067716
      2          1           0      -10.637602    5.506837    1.325411
      3          1           0      -10.260426    5.363642    2.999430
      4          1           0      -10.158433    6.876652    2.129872
      5          6           0       -8.586889    5.456325    1.916164
      6          1           0       -8.435650    5.062762    0.907814
      7          6           0       -8.490259    4.328010    2.979638
      8          6           0       -7.654503    6.665924    2.162603
      9          1           0       -7.864138    7.032234    3.177640
     10          8           0       -9.417265    4.264379    3.811757
     11          6           0       -6.175135    6.260063    2.088004
     12          1           0       -5.936282    5.809144    1.118125
     13          1           0       -5.552295    7.151249    2.192071
     14          1           0       -5.883305    5.562477    2.873326
     15          6           0       -7.937839    7.786840    1.149423
     16          1           0       -7.750671    7.444768    0.126168
     17          1           0       -8.960775    8.180724    1.189989
     18          1           0       -7.276601    8.634174    1.343310
     19          7           0       -7.450903    3.520742    2.920686
     20          1           0       -6.694954    3.639669    2.244058
     21          6           0       -7.166231    2.440085    3.863285
     22          1           0       -7.429987    2.777540    4.868571
     23          6           0       -5.648011    2.244160    3.731431
     24          6           0       -7.992138    1.167776    3.505853
     25          1           0       -9.034580    1.512311    3.531787
     26          8           0       -5.055093    2.712491    2.754779
     27          6           0       -7.852012    0.034897    4.538838
     28          1           0       -6.852966   -0.407401    4.454986
     29          1           0       -8.542872   -0.756702    4.228195
     30          6           0       -7.660075    0.652959    2.100647
     31          1           0       -6.648620    0.242205    2.064513
     32          1           0       -7.746145    1.437406    1.342495
     33          1           0       -8.352743   -0.147482    1.826494
     34          6           0       -8.177679    0.423254    5.984966
     35          1           0       -8.186626   -0.459476    6.629786
     36          1           0       -7.455585    1.125995    6.420324
     37          1           0       -9.162321    0.897582    6.056186
     38          7           0       -5.023988    1.550491    4.704432
     39          1           0       -5.595321    1.062992    5.379590
     40          6           0       -3.690968    1.010902    4.452416
     41          1           0       -3.011207    1.846071    4.264113
     42          6           0       -3.749836    0.090526    3.220640
     43          6           0       -3.204130    0.197985    5.669718
     44          1           0       -3.968460   -0.550885    5.906010
     45          1           0       -3.111026    0.870294    6.529032
     46          8           0       -4.683845   -0.703883    3.086390
     47          6           0       -1.892449   -0.487456    5.362868
     48          6           0       -1.880408   -1.800523    4.877569
     49          1           0       -2.816204   -2.345180    4.792133
     50          6           0       -0.685753    0.215307    5.444991
     51          1           0       -0.682614    1.235104    5.822083
     52          6           0       -0.686409   -2.396432    4.474079
     53          1           0       -0.692316   -3.412163    4.091990
     54          6           0        0.509229   -0.378059    5.039569
     55          1           0        1.437232    0.181176    5.100505
     56          6           0        0.510319   -1.683844    4.550138
     57          1           0        1.439268   -2.143330    4.228238
     58          7           0       -2.713423    0.206710    2.378315
     59          1           0       -1.914488    0.780990    2.625438
     60          6           0       -2.453117   -0.722862    1.294983
     61          1           0       -2.994492   -1.649482    1.502911
     62          6           0       -0.944302   -0.953946    1.275560
     63          6           0       -2.863487   -0.138846   -0.076350
     64          1           0       -2.543991   -0.828941   -0.865353
     65          1           0       -2.274208    0.772384   -0.230169
     66          8           0       -0.172698   -0.076358    1.666223
     67          6           0       -4.358995    0.178739   -0.220883
     68          1           0       -4.648951    0.824204    0.618365
     69          6           0       -4.589546    0.960308   -1.520332
     70          1           0       -4.302132    0.363808   -2.393394
     71          1           0       -4.000729    1.883135   -1.543141
     72          1           0       -5.646338    1.225976   -1.634402
     73          6           0       -5.221270   -1.088375   -0.183236
     74          1           0       -4.918950   -1.786482   -0.973152
     75          1           0       -6.275915   -0.843616   -0.349092
     76          1           0       -5.151163   -1.593434    0.782855
     77          7           0       -0.519204   -2.131466    0.750262
     78          1           0       -1.212403   -2.671931    0.248836
     79          6           0        0.831351   -2.190847    0.200298
     80          1           0        1.527471   -1.932345    1.003495
     81          6           0        0.924455   -1.147829   -0.931930
     82          6           0        1.112966   -3.600493   -0.329472
     83          1           0        0.451160   -3.801517   -1.178798
     84          1           0        0.858559   -4.326978    0.448318
     85          8           0       -0.036295   -0.933270   -1.664277
     86          6           0        2.565539   -3.804196   -0.758302
     87          1           0        2.883093   -3.092720   -1.528803
     88          1           0        3.256432   -3.649111    0.079642
     89          6           0        2.791917   -5.200094   -1.293123
     90          8           0        1.938663   -6.051112   -1.417067
     91          8           0        4.085733   -5.398673   -1.627161
     92          7           0        2.109397   -0.500906   -1.024358
     93          1           0        2.929275   -0.869457   -0.552008
     94          6           0        2.440278    0.360757   -2.144891
     95          1           0        1.651589    0.254982   -2.894786
     96          6           0        3.786724   -0.126304   -2.697516
     97          6           0        2.545025    1.841308   -1.709113
     98          1           0        3.212080    1.897617   -0.842678
     99          1           0        2.992877    2.431548   -2.509553
    100          8           0        4.537138   -0.808466   -1.996760
    101          6           0        1.174109    2.433241   -1.394315
    102          7           0        0.678067    2.146185   -0.150100
    103          1           0       -0.293777    2.382820   -0.011509
    104          1           0        1.003461    1.342640    0.369974
    105          8           0        0.573261    3.134899   -2.195777
    106          7           0        4.036795    0.231844   -3.974212
    107          1           0        3.430272    0.935974   -4.377937
    108          6           0        5.384687    0.228873   -4.512385
    109          1           0        5.908912   -0.614398   -4.054586
    110          6           0        6.088283    1.537430   -4.071417
    111          6           0        5.341021    0.043503   -6.048539
    112          1           0        6.361367   -0.056710   -6.427659
    113          1           0        4.832814   -0.906037   -6.246112
    114          8           0        5.530774    2.327260   -3.303482
    115          6           0        4.640322    1.179588   -6.758844
    116          6           0        3.243421    1.200267   -6.886778
    117          1           0        2.660642    0.351551   -6.536146
    118          6           0        5.371815    2.261826   -7.266605
    119          1           0        6.459073    2.258023   -7.210067
    120          6           0        2.583360    2.275387   -7.476191
    121          1           0        1.503680    2.290162   -7.576902
    122          6           0        4.720518    3.339178   -7.861915
    123          1           0        5.303919    4.168718   -8.255909
    124          8           0        2.639276    4.389816   -8.533721
    125          1           0        3.275414    5.050845   -8.836828
    126          6           0        3.326305    3.354638   -7.961519
    127          7           0        7.328965    1.710267   -4.566564
    128          1           0        7.632149    1.199892   -5.407788
    129          6           0        7.965758    3.016320   -4.637631
    130          1           0        7.191234    3.791326   -4.693875
    131          6           0        8.821956    3.038436   -5.969095
    132          6           0        8.883160    3.325737   -3.460043
    133          1           0        9.674448    2.555757   -3.479587
    134          1           0        9.364634    4.278984   -3.704235
    135          8           0        9.602820    3.998797   -6.075020
    136          6           0        8.202973    3.360346   -2.088683
    137          1           0        7.269995    3.926006   -2.145484
    138          1           0        7.920041    2.351168   -1.774400
    139          6           0        9.095681    4.010055   -1.028069
    140          1           0        9.194499    5.084477   -1.231092
    141          1           0        8.690889    3.871298   -0.018966
    142          7           0       10.439203    3.399299   -1.081010
    143          1           0       10.644472    2.909088   -1.945123
    144          7           0       11.290323    4.511323    0.761758
    145          1           0       11.928916    4.515194    1.540756
    146          1           0       10.452189    5.065367    0.834198
    147          7           0       12.594769    2.954241   -0.349043
    148          1           0       13.439020    3.344686    0.040491
    149          1           0       12.711570    2.280213   -1.090882
    150          6           0       11.430361    3.627523   -0.239520
    151          8           0        8.607515    2.057793   -6.739355
    152          1           0        4.144059   -6.306028   -1.971484
 ---------------------------------------------------------------------

 SCF Done:  E(RB3LYP) =  -3587.05090335     A.U. after    2 cycles

 Alpha  occ. eigenvalues --  -19.26825 -19.23613 -19.22241 -19.18974 -19.18834
 Alpha  occ. eigenvalues --  -19.18494 -19.18115 -19.16420 -19.15572 -19.13363
 Alpha  occ. eigenvalues --  -19.12838 -19.06316 -19.05367 -14.58752 -14.50270
 Alpha  occ. eigenvalues --  -14.49873 -14.49156 -14.49145 -14.45669 -14.42410
 Alpha  occ. eigenvalues --  -14.42317 -14.40625 -14.38781 -14.37328 -14.34950
 Alpha  occ. eigenvalues --  -10.46006 -10.43286 -10.40117 -10.38876 -10.36342
 Alpha  occ. eigenvalues --  -10.35462 -10.35269 -10.34328 -10.33910 -10.33457
 Alpha  occ. eigenvalues --  -10.32302 -10.31950 -10.31547 -10.31042 -10.30959
 Alpha  occ. eigenvalues --  -10.29591 -10.29414 -10.29253 -10.29052 -10.28482
 Alpha  occ. eigenvalues --  -10.27425 -10.27359 -10.26051 -10.26042 -10.25886
 Alpha  occ. eigenvalues --  -10.25825 -10.25268 -10.25089 -10.25023 -10.24972
 Alpha  occ. eigenvalues --  -10.24864 -10.24814 -10.24760 -10.24720 -10.24680
 Alpha  occ. eigenvalues --  -10.24213 -10.23896 -10.23573 -10.23544 -10.22393
 Alpha  occ. eigenvalues --  -10.21931 -10.21609 -10.21584 -10.21389 -10.21156
 Alpha  occ. eigenvalues --  -10.20337 -10.20110 -10.19685 -10.19639 -10.19009
 Alpha  occ. eigenvalues --   -1.19300  -1.14736  -1.14641  -1.14363  -1.12825
 Alpha  occ. eigenvalues --   -1.11010  -1.10092  -1.08494  -1.07195  -1.07005
 Alpha  occ. eigenvalues --   -1.06088  -1.05640  -1.05156  -1.04244  -1.03645
 Alpha  occ. eigenvalues --   -1.03076  -1.02258  -0.99387  -0.99323  -0.99037
 Alpha  occ. eigenvalues --   -0.97350  -0.95824  -0.95011  -0.92524  -0.92147
 Alpha  occ. eigenvalues --   -0.92008  -0.90697  -0.90431  -0.87283  -0.86476
 Alpha  occ. eigenvalues --   -0.86396  -0.86298  -0.86239  -0.85584  -0.82823
 Alpha  occ. eigenvalues --   -0.82469  -0.81599  -0.81250  -0.80414  -0.80344
 Alpha  occ. eigenvalues --   -0.80100  -0.79040  -0.78691  -0.77604  -0.76579
 Alpha  occ. eigenvalues --   -0.75592  -0.74608  -0.74460  -0.73653  -0.73241
 Alpha  occ. eigenvalues --   -0.72750  -0.72397  -0.72374  -0.71853  -0.71173
 Alpha  occ. eigenvalues --   -0.70576  -0.70462  -0.69511  -0.69417  -0.68435
 Alpha  occ. eigenvalues --   -0.68207  -0.66900  -0.66553  -0.65852  -0.65641
 Alpha  occ. eigenvalues --   -0.65506  -0.64473  -0.63939  -0.63811  -0.63297
 Alpha  occ. eigenvalues --   -0.63070  -0.62972  -0.62780  -0.62650  -0.62376
 Alpha  occ. eigenvalues --   -0.61890  -0.61428  -0.60758  -0.60294  -0.59610
 Alpha  occ. eigenvalues --   -0.59492  -0.59117  -0.58566  -0.58400  -0.57545
 Alpha  occ. eigenvalues --   -0.57465  -0.57351  -0.56785  -0.56347  -0.56027
 Alpha  occ. eigenvalues --   -0.55916  -0.55483  -0.55246  -0.55160  -0.54757
 Alpha  occ. eigenvalues --   -0.54122  -0.54017  -0.53490  -0.53112  -0.52948
 Alpha  occ. eigenvalues --   -0.52844  -0.52516  -0.52370  -0.52045  -0.51969
 Alpha  occ. eigenvalues --   -0.51866  -0.51540  -0.51483  -0.51233  -0.50872
 Alpha  occ. eigenvalues --   -0.50701  -0.50329  -0.50218  -0.50002  -0.49670
 Alpha  occ. eigenvalues --   -0.49262  -0.49158  -0.48932  -0.48558  -0.48220
 Alpha  occ. eigenvalues --   -0.47988  -0.47936  -0.47792  -0.47702  -0.47494
 Alpha  occ. eigenvalues --   -0.47484  -0.47065  -0.47023  -0.46810  -0.46777
 Alpha  occ. eigenvalues --   -0.46730  -0.46554  -0.46338  -0.45677  -0.45516
 Alpha  occ. eigenvalues --   -0.45322  -0.44919  -0.44634  -0.44432  -0.44359
 Alpha  occ. eigenvalues --   -0.44208  -0.43927  -0.43755  -0.43618  -0.43363
 Alpha  occ. eigenvalues --   -0.43221  -0.42828  -0.42763  -0.42559  -0.42504
 Alpha  occ. eigenvalues --   -0.42409  -0.42269  -0.42178  -0.41918  -0.41610
 Alpha  occ. eigenvalues --   -0.41403  -0.41376  -0.41268  -0.41209  -0.41153
 Alpha  occ. eigenvalues --   -0.40894  -0.40755  -0.40563  -0.40378  -0.40304
 Alpha  occ. eigenvalues --   -0.40158  -0.40058  -0.39895  -0.39640  -0.38935
 Alpha  occ. eigenvalues --   -0.38366  -0.38294  -0.38168  -0.37691  -0.37606
 Alpha  occ. eigenvalues --   -0.37258  -0.37244  -0.37033  -0.36532  -0.36152
 Alpha  occ. eigenvalues --   -0.35937  -0.35768  -0.35692  -0.35392  -0.34496
 Alpha  occ. eigenvalues --   -0.33809  -0.33763  -0.33328  -0.32831  -0.32196
 Alpha  occ. eigenvalues --   -0.31892  -0.31621  -0.30936  -0.30894  -0.30234
 Alpha  occ. eigenvalues --   -0.30158  -0.29504  -0.29159  -0.28960  -0.26943
 Alpha  occ. eigenvalues --   -0.26710  -0.26254  -0.26082  -0.22860  -0.21581
 Alpha  occ. eigenvalues --   -0.21044  -0.19640
 Alpha virt. eigenvalues --   -0.12234  -0.10429  -0.10105  -0.08150  -0.06533
 Alpha virt. eigenvalues --   -0.06328  -0.06224  -0.05953  -0.04969  -0.04431
 Alpha virt. eigenvalues --   -0.03989  -0.03105  -0.02621  -0.02343  -0.01856

 Mulliken charges:
               1
     1  N   -0.561652
     2  H    0.349386
     3  H    0.375962
     4  H    0.339338
     5  C   -0.073119
     6  H    0.168608
     7  C    0.638728
     8  C   -0.086887
     9  H    0.126246
    10  O   -0.553457
    11  C   -0.339548
    12  H    0.132213
    13  H    0.144429
    14  H    0.140513
    15  C   -0.332227
    16  H    0.138542
    17  H    0.092343
    18  H    0.157995
    19  N   -0.515307
    20  H    0.309034
    21  C   -0.036439
    22  H    0.149029
    23  C    0.635894
    24  C   -0.049850
    25  H    0.108411
    26  O   -0.550728
    27  C   -0.210501
    28  H    0.132967
    29  H    0.118070
    30  C   -0.348216
    31  H    0.175752
    32  H    0.078793
    33  H    0.118624
    34  C   -0.341672
    35  H    0.129012
    36  H    0.086343
    37  H    0.120703
    38  N   -0.529696
    39  H    0.281258
    40  C    0.008494
    41  H    0.130701
    42  C    0.630481
    43  C   -0.274411
    44  H    0.121186
    45  H    0.124234
    46  O   -0.557432
    47  C    0.094558
    48  C   -0.116907
    49  H    0.100332
    50  C   -0.127917
    51  H    0.081397
    52  C   -0.091126
    53  H    0.097031
    54  C   -0.066236
    55  H    0.094219
    56  C   -0.072800
    57  H    0.091225
    58  N   -0.491865
    59  H    0.284970
    60  C   -0.047445
    61  H    0.132372
    62  C    0.640871
    63  C   -0.147938
    64  H    0.125672
    65  H    0.103314
    66  O   -0.561656
    67  C   -0.070764
    68  H    0.098243
    69  C   -0.310145
    70  H    0.115915
    71  H    0.104679
    72  H    0.081065
    73  C   -0.325062
    74  H    0.096158
    75  H    0.092099
    76  H    0.126211
    77  N   -0.522724
    78  H    0.275793
    79  C   -0.014393
    80  H    0.123952
    81  C    0.598743
    82  C   -0.194638
    83  H    0.135996
    84  H    0.127904
    85  O   -0.534036
    86  C   -0.281983
    87  H    0.166569
    88  H    0.137321
    89  C    0.575978
    90  O   -0.462736
    91  O   -0.480744
    92  N   -0.520040
    93  H    0.276879
    94  C   -0.062227
    95  H    0.159032
    96  C    0.623889
    97  C   -0.230813
    98  H    0.109278
    99  H    0.165845
   100  O   -0.554211
   101  C    0.541873
   102  N   -0.604698
   103  H    0.260228
   104  H    0.287463
   105  O   -0.504121
   106  N   -0.499913
   107  H    0.279029
   108  C   -0.038888
   109  H    0.145877
   110  C    0.604167
   111  C   -0.267438
   112  H    0.135684
   113  H    0.109762
   114  O   -0.560715
   115  C    0.090313
   116  C   -0.155780
   117  H    0.078702
   118  C   -0.134686
   119  H    0.144404
   120  C   -0.097780
   121  H    0.089899
   122  C   -0.144046
   123  H    0.085996
   124  O   -0.562622
   125  H    0.316909
   126  C    0.326812
   127  N   -0.528035
   128  H    0.283353
   129  C   -0.045990
   130  H    0.115728
   131  C    0.578999
   132  C   -0.191658
   133  H    0.073602
   134  H    0.130174
   135  O   -0.588998
   136  C   -0.214176
   137  H    0.153086
   138  H    0.131602
   139  C   -0.080135
   140  H    0.142592
   141  H    0.126114
   142  N   -0.515276
   143  H    0.301890
   144  N   -0.615493
   145  H    0.311856
   146  H    0.320697
   147  N   -0.621069
   148  H    0.311029
   149  H    0.319572
   150  C    0.801452
   151  O   -0.605682
   152  H    0.327089
 Sum of Mulliken charges =   1.00000

 Dipole moment (field-independent basis, Debye):
    X=            -15.5281    Y=             23.6817    Z=             28.9272  Tot=             40.4812
 Quadrupole moment (field-independent basis, Debye-Ang):
   XX=            180.7283   YY=           -273.8884   ZZ=           -505.4340
   XY=           -125.4172   XZ=             69.5890   YZ=             97.3873

 Normal termination of Gaussian 16 at Thu Sep  8 08:45:47 2022.
