 Gaussian 16, Revision C.01,
 Gaussian 16:  ES64L-G16RevC.01  3-Jul-2019

 ----------------------------------------------------------------------
 # B3LYP/6-31G** empiricaldispersion=gd3bj guess=read geom=check nosymm
  integral(ultrafinegrid)
 ----------------------------------------------------------------------

 ------------------------------------------------------
 Candidate Structure: Conf:535 Charge calc in gas phase
 ------------------------------------------------------
 Structure from the checkpoint file:  "conf-535.chk"
 Charge =  1 Multiplicity = 1

                          Input orientation:
 ---------------------------------------------------------------------
 Center     Atomic      Atomic             Coordinates (Angstroms)
 Number     Number       Type             X           Y           Z
 ---------------------------------------------------------------------
      1          7           0       -3.970792   -5.430104    6.720639
      2          1           0       -3.897463   -6.444145    6.809244
      3          1           0       -3.083203   -5.033588    6.249326
      4          1           0       -4.127597   -5.028814    7.645656
      5          6           0       -5.003631   -4.983730    5.708552
      6          1           0       -5.626947   -5.841918    5.442972
      7          6           0       -4.093870   -4.555141    4.527012
      8          6           0       -5.877653   -3.849639    6.296204
      9          1           0       -5.202597   -3.020853    6.546797
     10          8           0       -2.885611   -4.420171    4.780851
     11          6           0       -6.888622   -3.332253    5.263218
     12          1           0       -7.486315   -4.151643    4.843595
     13          1           0       -7.585998   -2.649394    5.753942
     14          1           0       -6.388610   -2.774630    4.471170
     15          6           0       -6.608396   -4.329738    7.560237
     16          1           0       -7.285596   -5.159599    7.331021
     17          1           0       -5.944261   -4.654800    8.370806
     18          1           0       -7.208174   -3.513277    7.968164
     19          7           0       -4.644827   -4.417639    3.323127
     20          1           0       -5.653427   -4.458342    3.268254
     21          6           0       -3.969162   -3.655690    2.271677
     22          1           0       -2.910550   -3.921584    2.331425
     23          6           0       -4.045817   -2.157167    2.669971
     24          6           0       -4.530824   -4.069867    0.890640
     25          1           0       -4.532418   -5.167531    0.921915
     26          8           0       -4.422676   -1.818784    3.794559
     27          6           0       -3.643861   -3.672872   -0.311846
     28          1           0       -3.810905   -2.624808   -0.586826
     29          1           0       -4.014707   -4.247376   -1.167965
     30          6           0       -5.971355   -3.583304    0.685072
     31          1           0       -6.014752   -2.490216    0.674268
     32          1           0       -6.660073   -3.938452    1.461656
     33          1           0       -6.361536   -3.944482   -0.270003
     34          6           0       -2.144434   -3.935859   -0.140874
     35          1           0       -1.623317   -3.766628   -1.086365
     36          1           0       -1.676900   -3.277642    0.597650
     37          1           0       -1.952107   -4.970474    0.163966
     38          7           0       -3.612508   -1.299345    1.735641
     39          1           0       -3.238521   -1.633144    0.853750
     40          6           0       -3.197815    0.063361    2.013959
     41          1           0       -4.040851    0.648487    2.395328
     42          6           0       -2.731586    0.622808    0.659966
     43          6           0       -2.038704    0.098192    3.057858
     44          1           0       -2.470296   -0.116105    4.036455
     45          1           0       -1.624304    1.110006    3.104209
     46          8           0       -2.566922   -0.125946   -0.305279
     47          6           0       -0.968445   -0.916289    2.736125
     48          6           0       -0.877893   -2.100419    3.475485
     49          1           0       -1.555740   -2.261448    4.306651
     50          6           0       -0.090312   -0.732355    1.661728
     51          1           0       -0.126822    0.178910    1.076727
     52          6           0        0.065183   -3.077772    3.151805
     53          1           0        0.112253   -3.990200    3.738564
     54          6           0        0.851033   -1.705891    1.337768
     55          1           0        1.521931   -1.546257    0.504534
     56          6           0        0.937582   -2.884670    2.079241
     57          1           0        1.675395   -3.635373    1.816122
     58          7           0       -2.464926    1.947030    0.640622
     59          1           0       -2.512256    2.471149    1.507250
     60          6           0       -1.573228    2.549086   -0.355592
     61          1           0       -1.314597    1.756610   -1.059038
     62          6           0       -0.347726    3.003210    0.449644
     63          6           0       -2.222260    3.733212   -1.080583
     64          1           0       -1.493872    4.123989   -1.803922
     65          1           0       -2.392060    4.529051   -0.346245
     66          8           0       -0.503011    3.682764    1.465850
     67          6           0       -3.535127    3.395577   -1.804629
     68          1           0       -4.244648    3.035692   -1.047294
     69          6           0       -4.116428    4.664919   -2.438110
     70          1           0       -3.446144    5.056807   -3.212058
     71          1           0       -4.263947    5.454188   -1.693621
     72          1           0       -5.082697    4.460646   -2.909399
     73          6           0       -3.355794    2.288039   -2.851045
     74          1           0       -2.591349    2.567858   -3.586529
     75          1           0       -4.289976    2.121828   -3.396726
     76          1           0       -3.065558    1.336808   -2.396328
     77          7           0        0.848516    2.549620    0.020082
     78          1           0        0.945298    2.081062   -0.875293
     79          6           0        2.115167    2.875414    0.655862
     80          1           0        2.054586    3.886098    1.072275
     81          6           0        3.187879    2.791864   -0.439231
     82          6           0        2.493201    1.858835    1.760156
     83          1           0        3.537852    2.011431    2.047071
     84          1           0        2.433676    0.861422    1.319491
     85          8           0        2.957954    2.202504   -1.504633
     86          6           0        1.607069    1.927133    3.004204
     87          1           0        1.832596    2.823417    3.593649
     88          1           0        0.553387    2.022709    2.743508
     89          6           0        1.710244    0.738722    3.934437
     90          8           0        0.956123    0.529678    4.859558
     91          8           0        2.739307   -0.088867    3.633275
     92          7           0        4.374980    3.321552   -0.105700
     93          1           0        4.543209    3.710439    0.827220
     94          6           0        5.607772    3.084598   -0.859710
     95          1           0        5.394680    3.224330   -1.923874
     96          6           0        6.080392    1.635616   -0.607251
     97          6           0        6.684998    4.072564   -0.400061
     98          1           0        7.609653    3.869183   -0.943424
     99          1           0        6.364243    5.088638   -0.651772
    100          8           0        6.972596    1.382422    0.199430
    101          6           0        6.904760    4.038698    1.111713
    102          7           0        8.190821    3.980176    1.532554
    103          1           0        8.324646    3.863593    2.527732
    104          1           0        8.883702    3.562546    0.930565
    105          8           0        5.961257    4.161906    1.898870
    106          7           0        5.401270    0.701579   -1.314807
    107          1           0        4.594958    1.003324   -1.856769
    108          6           0        5.433626   -0.699556   -0.947289
    109          1           0        6.379136   -0.890089   -0.436008
    110          6           0        5.297360   -1.552028   -2.205570
    111          6           0        4.243137   -1.021828    0.009016
    112          1           0        4.412049   -0.480851    0.944479
    113          1           0        3.343174   -0.610798   -0.459406
    114          8           0        4.512327   -1.208381   -3.099524
    115          6           0        4.106794   -2.501607    0.235526
    116          6           0        3.270593   -3.271562   -0.582600
    117          1           0        2.611204   -2.771160   -1.286500
    118          6           0        4.947616   -3.160123    1.140071
    119          1           0        5.588098   -2.575359    1.795648
    120          6           0        3.320845   -4.662924   -0.553682
    121          1           0        2.713662   -5.265953   -1.219497
    122          6           0        5.018383   -4.550569    1.164113
    123          1           0        5.710050   -5.068231    1.819740
    124          8           0        4.416043   -6.663903    0.195749
    125          1           0        5.105850   -6.799164   -0.478471
    126          6           0        4.242386   -5.303361    0.279169
    127          7           0        6.013180   -2.696880   -2.241096
    128          1           0        6.529905   -3.007761   -1.427253
    129          6           0        5.726915   -3.705677   -3.251578
    130          1           0        4.735458   -3.476223   -3.612114
    131          6           0        5.702525   -5.086708   -2.588132
    132          6           0        6.742052   -3.633438   -4.415194
    133          1           0        6.829217   -2.577291   -4.693022
    134          1           0        7.716944   -3.941918   -4.023519
    135          8           0        4.838790   -5.975263   -3.053157
    136          6           0        6.383551   -4.476275   -5.648661
    137          1           0        7.298407   -4.694651   -6.209898
    138          1           0        5.993405   -5.447231   -5.332614
    139          6           0        5.419898   -3.801365   -6.647802
    140          1           0        5.946465   -2.991926   -7.160128
    141          1           0        5.143945   -4.526198   -7.424127
    142          7           0        4.218042   -3.194182   -6.081824
    143          1           0        4.147142   -2.188094   -6.098665
    144          7           0        3.304600   -5.149770   -5.091634
    145          1           0        4.190460   -5.625470   -3.762216
    146          1           0        3.778026   -5.626640   -5.857042
    147          7           0        2.568191   -3.033778   -4.480223
    148          1           0        1.960951   -3.552344   -3.861340
    149          1           0        3.023474   -2.225280   -4.059204
    150          6           0        3.367416   -3.852416   -5.244226
    151          8           0        6.461078   -5.357280   -1.670790
    152          1           0        2.672016   -0.838746    4.247871
 ---------------------------------------------------------------------

 SCF Done:  E(RB3LYP) =  -3587.13756131     A.U. after    2 cycles

 Alpha  occ. eigenvalues --  -19.26821 -19.24787 -19.22384 -19.20792 -19.20121
 Alpha  occ. eigenvalues --  -19.19498 -19.19200 -19.18665 -19.18534 -19.18368
 Alpha  occ. eigenvalues --  -19.18349 -19.18137 -19.17869 -14.58482 -14.49249
 Alpha  occ. eigenvalues --  -14.43974 -14.43693 -14.43056 -14.42574 -14.42553
 Alpha  occ. eigenvalues --  -14.41867 -14.41540 -14.41531 -14.39961 -14.35174
 Alpha  occ. eigenvalues --  -10.43271 -10.39883 -10.37766 -10.37080 -10.36905
 Alpha  occ. eigenvalues --  -10.36691 -10.36103 -10.35746 -10.35525 -10.35491
 Alpha  occ. eigenvalues --  -10.35070 -10.34810 -10.33622 -10.33237 -10.31657
 Alpha  occ. eigenvalues --  -10.30663 -10.30612 -10.30334 -10.29909 -10.29555
 Alpha  occ. eigenvalues --  -10.29086 -10.29010 -10.28901 -10.28879 -10.28818
 Alpha  occ. eigenvalues --  -10.26737 -10.26721 -10.26396 -10.26311 -10.25935
 Alpha  occ. eigenvalues --  -10.25501 -10.25396 -10.25203 -10.25187 -10.25169
 Alpha  occ. eigenvalues --  -10.24945 -10.24890 -10.24876 -10.24830 -10.24822
 Alpha  occ. eigenvalues --  -10.24741 -10.24645 -10.24538 -10.24401 -10.24381
 Alpha  occ. eigenvalues --  -10.24151 -10.23767 -10.23695 -10.22107 -10.21935
 Alpha  occ. eigenvalues --   -1.19374  -1.15487  -1.13976  -1.13080  -1.12492
 Alpha  occ. eigenvalues --   -1.11847  -1.11424  -1.10459  -1.10219  -1.09872
 Alpha  occ. eigenvalues --   -1.09296  -1.07639  -1.06269  -1.06088  -1.05686
 Alpha  occ. eigenvalues --   -1.04578  -1.01289  -1.00344  -0.99854  -0.99468
 Alpha  occ. eigenvalues --   -0.99094  -0.98547  -0.96591  -0.95111  -0.94554
 Alpha  occ. eigenvalues --   -0.91942  -0.90938  -0.90847  -0.90408  -0.87748
 Alpha  occ. eigenvalues --   -0.86842  -0.86127  -0.86070  -0.85656  -0.85029
 Alpha  occ. eigenvalues --   -0.84041  -0.82373  -0.81982  -0.80891  -0.80735
 Alpha  occ. eigenvalues --   -0.80526  -0.80431  -0.80027  -0.79588  -0.78609
 Alpha  occ. eigenvalues --   -0.78190  -0.74194  -0.74118  -0.73832  -0.73674
 Alpha  occ. eigenvalues --   -0.73276  -0.73055  -0.71990  -0.71861  -0.71114
 Alpha  occ. eigenvalues --   -0.70806  -0.69756  -0.68959  -0.67951  -0.67865
 Alpha  occ. eigenvalues --   -0.67084  -0.66857  -0.66633  -0.66495  -0.66059
 Alpha  occ. eigenvalues --   -0.65849  -0.65605  -0.65302  -0.64961  -0.64666
 Alpha  occ. eigenvalues --   -0.64361  -0.64037  -0.63761  -0.63701  -0.63388
 Alpha  occ. eigenvalues --   -0.62917  -0.62357  -0.61716  -0.61043  -0.60612
 Alpha  occ. eigenvalues --   -0.59775  -0.59353  -0.58388  -0.58176  -0.58125
 Alpha  occ. eigenvalues --   -0.57991  -0.57766  -0.57177  -0.56406  -0.56231
 Alpha  occ. eigenvalues --   -0.56162  -0.56106  -0.55786  -0.55133  -0.54924
 Alpha  occ. eigenvalues --   -0.54707  -0.54363  -0.54202  -0.53777  -0.53584
 Alpha  occ. eigenvalues --   -0.53258  -0.53206  -0.52922  -0.52842  -0.52525
 Alpha  occ. eigenvalues --   -0.52431  -0.52171  -0.51987  -0.51871  -0.51784
 Alpha  occ. eigenvalues --   -0.51648  -0.51520  -0.51352  -0.51177  -0.50987
 Alpha  occ. eigenvalues --   -0.50903  -0.50711  -0.50497  -0.50358  -0.50164
 Alpha  occ. eigenvalues --   -0.49881  -0.49745  -0.49379  -0.49024  -0.48809
 Alpha  occ. eigenvalues --   -0.48626  -0.48382  -0.48224  -0.48000  -0.47753
 Alpha  occ. eigenvalues --   -0.47497  -0.47366  -0.47250  -0.47211  -0.46794
 Alpha  occ. eigenvalues --   -0.46670  -0.46592  -0.46531  -0.46330  -0.46165
 Alpha  occ. eigenvalues --   -0.46070  -0.46003  -0.45760  -0.45739  -0.45416
 Alpha  occ. eigenvalues --   -0.45298  -0.45012  -0.44791  -0.44673  -0.44403
 Alpha  occ. eigenvalues --   -0.44308  -0.44228  -0.44170  -0.44033  -0.43883
 Alpha  occ. eigenvalues --   -0.43517  -0.42993  -0.42891  -0.42779  -0.42676
 Alpha  occ. eigenvalues --   -0.42354  -0.42334  -0.41882  -0.41687  -0.41669
 Alpha  occ. eigenvalues --   -0.41480  -0.41420  -0.41038  -0.40945  -0.40830
 Alpha  occ. eigenvalues --   -0.40553  -0.40261  -0.40111  -0.39779  -0.39631
 Alpha  occ. eigenvalues --   -0.39125  -0.38960  -0.38707  -0.37927  -0.37706
 Alpha  occ. eigenvalues --   -0.37566  -0.36571  -0.35556  -0.35094  -0.34944
 Alpha  occ. eigenvalues --   -0.34564  -0.34240  -0.34117  -0.33821  -0.33547
 Alpha  occ. eigenvalues --   -0.33371  -0.33181  -0.32905  -0.32865  -0.32549
 Alpha  occ. eigenvalues --   -0.32036  -0.31891  -0.31762  -0.31503  -0.31303
 Alpha  occ. eigenvalues --   -0.31261  -0.31039  -0.30743  -0.30385  -0.30228
 Alpha  occ. eigenvalues --   -0.29327  -0.27995
 Alpha virt. eigenvalues --   -0.12196  -0.10154  -0.07941  -0.06815  -0.06453
 Alpha virt. eigenvalues --   -0.06291  -0.06121  -0.06019  -0.05679  -0.05134
 Alpha virt. eigenvalues --   -0.04878  -0.04867  -0.04191  -0.04022  -0.03749

 Mulliken charges:
               1
     1  N   -0.561119
     2  H    0.347462
     3  H    0.377216
     4  H    0.340876
     5  C   -0.088939
     6  H    0.161426
     7  C    0.668637
     8  C   -0.073145
     9  H    0.144520
    10  O   -0.540889
    11  C   -0.355867
    12  H    0.103941
    13  H    0.141163
    14  H    0.165075
    15  C   -0.333744
    16  H    0.131538
    17  H    0.090393
    18  H    0.157727
    19  N   -0.506564
    20  H    0.281080
    21  C   -0.053185
    22  H    0.179805
    23  C    0.631019
    24  C   -0.080077
    25  H    0.111502
    26  O   -0.553386
    27  C   -0.214583
    28  H    0.129238
    29  H    0.113653
    30  C   -0.333785
    31  H    0.133430
    32  H    0.081736
    33  H    0.133151
    34  C   -0.339364
    35  H    0.122294
    36  H    0.129833
    37  H    0.106925
    38  N   -0.542249
    39  H    0.317680
    40  C    0.002757
    41  H    0.142552
    42  C    0.610476
    43  C   -0.273074
    44  H    0.143418
    45  H    0.129122
    46  O   -0.544971
    47  C    0.127535
    48  C   -0.128500
    49  H    0.095013
    50  C   -0.128672
    51  H    0.081023
    52  C   -0.107287
    53  H    0.085387
    54  C   -0.069842
    55  H    0.079775
    56  C   -0.103428
    57  H    0.112420
    58  N   -0.512787
    59  H    0.281707
    60  C   -0.037886
    61  H    0.136257
    62  C    0.600911
    63  C   -0.160966
    64  H    0.103138
    65  H    0.114767
    66  O   -0.547910
    67  C   -0.056886
    68  H    0.090517
    69  C   -0.310646
    70  H    0.105070
    71  H    0.102918
    72  H    0.105310
    73  C   -0.332372
    74  H    0.098147
    75  H    0.103508
    76  H    0.124900
    77  N   -0.525599
    78  H    0.287339
    79  C   -0.024069
    80  H    0.148767
    81  C    0.605935
    82  C   -0.179831
    83  H    0.133590
    84  H    0.124522
    85  O   -0.566197
    86  C   -0.270248
    87  H    0.153387
    88  H    0.156169
    89  C    0.591812
    90  O   -0.482551
    91  O   -0.483188
    92  N   -0.528658
    93  H    0.315367
    94  C   -0.036738
    95  H    0.141079
    96  C    0.615940
    97  C   -0.269044
    98  H    0.122248
    99  H    0.152273
   100  O   -0.536183
   101  C    0.614309
   102  N   -0.588848
   103  H    0.285973
   104  H    0.286250
   105  O   -0.539726
   106  N   -0.522371
   107  H    0.304032
   108  C   -0.019665
   109  H    0.140811
   110  C    0.625012
   111  C   -0.249145
   112  H    0.138511
   113  H    0.110810
   114  O   -0.578278
   115  C    0.098549
   116  C   -0.136343
   117  H    0.076857
   118  C   -0.153803
   119  H    0.093029
   120  C   -0.123296
   121  H    0.102069
   122  C   -0.087583
   123  H    0.102477
   124  O   -0.602678
   125  H    0.339300
   126  C    0.327860
   127  N   -0.517114
   128  H    0.287408
   129  C   -0.001598
   130  H    0.115575
   131  C    0.620178
   132  C   -0.168249
   133  H    0.111833
   134  H    0.122501
   135  O   -0.526853
   136  C   -0.208625
   137  H    0.118825
   138  H    0.111351
   139  C   -0.060548
   140  H    0.120183
   141  H    0.124833
   142  N   -0.492982
   143  H    0.276825
   144  N   -0.678305
   145  H    0.376876
   146  H    0.237065
   147  N   -0.610089
   148  H    0.276342
   149  H    0.303406
   150  C    0.571019
   151  O   -0.509466
   152  H    0.323549
 Sum of Mulliken charges =   1.00000

 Dipole moment (field-independent basis, Debye):
    X=            -10.8247    Y=            -15.2908    Z=             14.9985  Tot=             23.9988
 Quadrupole moment (field-independent basis, Debye-Ang):
   XX=           -255.6356   YY=           -344.4984   ZZ=           -263.4390
   XY=            120.0970   XZ=           -140.2252   YZ=           -118.0091

 Normal termination of Gaussian 16 at Thu Sep  8 08:46:50 2022.
