 Gaussian 16, Revision C.01,
 Gaussian 16:  ES64L-G16RevC.01  3-Jul-2019

 ----------------------------------------------------------------------
 # B3LYP/6-31G** empiricaldispersion=gd3bj guess=read geom=check nosymm
  integral(ultrafinegrid)
 ----------------------------------------------------------------------

 ------------------------------------------------------
 Candidate Structure: Conf:831 Charge calc in gas phase
 ------------------------------------------------------
 Structure from the checkpoint file:  "conf-831.chk"
 Charge =  1 Multiplicity = 1

                          Input orientation:
 ---------------------------------------------------------------------
 Center     Atomic      Atomic             Coordinates (Angstroms)
 Number     Number       Type             X           Y           Z
 ---------------------------------------------------------------------
      1          7           0       -8.418606    1.078673    7.518954
      2          1           0       -9.085153    0.485604    8.013525
      3          1           0       -7.705684    0.478876    6.982287
      4          1           0       -7.940411    1.686954    8.185523
      5          6           0       -9.029688    1.857281    6.373932
      6          1           0      -10.112137    1.708977    6.395089
      7          6           0       -8.407930    1.144174    5.149207
      8          6           0       -8.697192    3.364627    6.517861
      9          1           0       -9.167861    3.661377    7.466354
     10          8           0       -7.518101    0.309066    5.369220
     11          6           0       -7.188548    3.634069    6.592906
     12          1           0       -6.689583    3.361358    5.660253
     13          1           0       -7.024192    4.701009    6.762477
     14          1           0       -6.682435    3.108476    7.408936
     15          6           0       -9.340466    4.198174    5.400313
     16          1           0       -8.773821    4.095863    4.470922
     17          1           0      -10.392627    3.936109    5.236809
     18          1           0       -9.313176    5.253849    5.679725
     19          7           0       -8.858963    1.450904    3.932724
     20          1           0       -9.480559    2.243191    3.847365
     21          6           0       -8.039759    1.144478    2.752841
     22          1           0       -7.833134    0.070370    2.757613
     23          6           0       -6.729616    1.941167    2.909524
     24          6           0       -8.806599    1.531649    1.469352
     25          1           0       -9.067021    2.596744    1.569083
     26          8           0       -6.746721    3.070884    3.400518
     27          6           0      -10.105659    0.710720    1.351631
     28          1           0      -10.639072    0.731320    2.309590
     29          1           0       -9.838576   -0.340116    1.178407
     30          6           0       -7.917051    1.376484    0.229024
     31          1           0       -7.580339    0.340651    0.109660
     32          1           0       -7.029404    2.010126    0.268937
     33          1           0       -8.471663    1.647803   -0.670707
     34          6           0      -11.050763    1.196242    0.250152
     35          1           0      -11.981172    0.622143    0.261559
     36          1           0      -11.308697    2.252159    0.387407
     37          1           0      -10.612642    1.086704   -0.745102
     38          7           0       -5.617078    1.313553    2.487897
     39          1           0       -5.694368    0.483200    1.908464
     40          6           0       -4.346106    1.996525    2.345948
     41          1           0       -4.518336    3.061145    2.521961
     42          6           0       -3.868305    1.735028    0.908864
     43          6           0       -3.289339    1.459146    3.343934
     44          1           0       -2.345479    1.981275    3.154018
     45          1           0       -3.118224    0.402668    3.111182
     46          8           0       -4.314665    0.776414    0.275695
     47          6           0       -3.679170    1.608538    4.794852
     48          6           0       -3.386133    2.785507    5.496294
     49          1           0       -2.892560    3.605544    4.981757
     50          6           0       -4.312649    0.563531    5.475166
     51          1           0       -4.555191   -0.350631    4.943492
     52          6           0       -3.687116    2.903919    6.851777
     53          1           0       -3.429721    3.813973    7.384440
     54          6           0       -4.611224    0.674902    6.834045
     55          1           0       -5.059346   -0.168616    7.352834
     56          6           0       -4.289596    1.840750    7.529461
     57          1           0       -4.481913    1.916535    8.596311
     58          7           0       -2.938622    2.592408    0.447730
     59          1           0       -2.494156    3.250050    1.081535
     60          6           0       -2.162417    2.352474   -0.758602
     61          1           0       -2.288467    1.301947   -1.034455
     62          6           0       -0.701326    2.632938   -0.379101
     63          6           0       -2.595631    3.264443   -1.923934
     64          1           0       -1.925566    3.082115   -2.773849
     65          1           0       -2.430602    4.303469   -1.612685
     66          8           0       -0.422390    3.303295    0.617618
     67          6           0       -4.052553    3.085386   -2.379982
     68          1           0       -4.696000    3.220453   -1.499844
     69          6           0       -4.408329    4.173991   -3.400019
     70          1           0       -3.787912    4.083883   -4.299270
     71          1           0       -4.256701    5.177366   -2.988348
     72          1           0       -5.454071    4.091340   -3.711594
     73          6           0       -4.312462    1.687399   -2.953820
     74          1           0       -3.641328    1.481845   -3.796615
     75          1           0       -5.338757    1.612535   -3.327246
     76          1           0       -4.181875    0.909670   -2.198202
     77          7           0        0.226594    2.138516   -1.222195
     78          1           0       -0.015198    1.531181   -1.996955
     79          6           0        1.649726    2.333280   -1.010305
     80          1           0        1.821218    3.369832   -0.710194
     81          6           0        2.328822    2.016576   -2.341335
     82          6           0        2.160061    1.372904    0.093302
     83          1           0        1.944808    0.349859   -0.230028
     84          1           0        1.568810    1.577246    0.989507
     85          8           0        1.847747    1.159267   -3.089907
     86          6           0        3.660523    1.469680    0.435807
     87          1           0        3.885431    0.733823    1.210033
     88          1           0        4.274856    1.243154   -0.438784
     89          6           0        4.024318    2.820943    1.003027
     90          8           0        4.019343    3.132633    2.166792
     91          8           0        4.337662    3.728255    0.019611
     92          7           0        3.479078    2.675304   -2.600586
     93          1           0        3.876599    3.254064   -1.866306
     94          6           0        4.340618    2.271137   -3.709657
     95          1           0        3.672136    1.901637   -4.492524
     96          6           0        5.255449    1.099509   -3.288989
     97          6           0        5.155733    3.447356   -4.217928
     98          1           0        4.478515    4.243539   -4.545792
     99          1           0        5.779249    3.857437   -3.419946
    100          8           0        6.478056    1.221047   -3.213872
    101          6           0        6.097150    3.161803   -5.377160
    102          7           0        5.882480    2.091597   -6.162378
    103          1           0        6.549294    1.957070   -6.910682
    104          1           0        5.440779    1.222080   -5.846407
    105          8           0        7.014688    3.978899   -5.588478
    106          7           0        4.574145   -0.042554   -3.029423
    107          1           0        3.593296   -0.019674   -3.293606
    108          6           0        5.222732   -1.336194   -3.186983
    109          1           0        6.012844   -1.440703   -2.439476
    110          6           0        5.868142   -1.386324   -4.600705
    111          6           0        4.160502   -2.443797   -2.957687
    112          1           0        3.725828   -2.274076   -1.964779
    113          1           0        3.360126   -2.315778   -3.696552
    114          8           0        5.461672   -0.621431   -5.497597
    115          6           0        4.790168   -3.803683   -3.079565
    116          6           0        4.732413   -4.505909   -4.287934
    117          1           0        4.050034   -4.173705   -5.066617
    118          6           0        5.667440   -4.252726   -2.083577
    119          1           0        5.703649   -3.733988   -1.127243
    120          6           0        5.621864   -5.542705   -4.549911
    121          1           0        5.650484   -6.027102   -5.519770
    122          6           0        6.561564   -5.287546   -2.338064
    123          1           0        7.304835   -5.584947   -1.606262
    124          8           0        7.657905   -6.660564   -3.959965
    125          1           0        8.251705   -6.009606   -4.428441
    126          6           0        6.604859   -5.872352   -3.609527
    127          7           0        6.855576   -2.263392   -4.768689
    128          1           0        7.124386   -2.942165   -4.054870
    129          6           0        7.522389   -2.521431   -6.043684
    130          1           0        6.777814   -2.550010   -6.841332
    131          6           0        8.267184   -3.897825   -5.983039
    132          6           0        8.559346   -1.430048   -6.351007
    133          1           0        9.076760   -1.734874   -7.267249
    134          1           0        8.041617   -0.483168   -6.547381
    135          8           0        8.532566   -4.298261   -4.801493
    136          6           0        9.550962   -1.266750   -5.194573
    137          1           0        9.001565   -0.945847   -4.300509
    138          1           0        9.961778   -2.244377   -4.923681
    139          6           0       10.720721   -0.321825   -5.493535
    140          1           0       11.207596    0.016048   -4.573044
    141          1           0       11.476891   -0.838846   -6.087136
    142          7           0       10.363008    0.869666   -6.287021
    143          1           0       10.541042    0.817777   -7.278912
    144          7           0        8.962654    1.807583   -4.679682
    145          1           0        8.320106    2.552272   -4.443708
    146          1           0        8.778098    0.928089   -4.218631
    147          7           0        9.227399    2.845429   -6.723060
    148          1           0        8.449640    3.474532   -6.467668
    149          1           0        9.811148    3.037578   -7.520979
    150          6           0        9.514490    1.827567   -5.899481
    151          8           0        8.568548   -4.384856   -7.076757
    152          1           0        4.522958    4.570253    0.470488
 ---------------------------------------------------------------------

 SCF Done:  E(RB3LYP) =  -3587.10803204     A.U. after    1 cycles

 Alpha  occ. eigenvalues --  -19.28069 -19.27471 -19.21678 -19.21593 -19.20659
 Alpha  occ. eigenvalues --  -19.20533 -19.19906 -19.19673 -19.19240 -19.15542
 Alpha  occ. eigenvalues --  -19.12667 -19.08160 -19.06742 -14.58996 -14.49852
 Alpha  occ. eigenvalues --  -14.45847 -14.45502 -14.44728 -14.44580 -14.44499
 Alpha  occ. eigenvalues --  -14.44229 -14.44107 -14.42071 -14.41508 -14.38130
 Alpha  occ. eigenvalues --  -10.43700 -10.41469 -10.40271 -10.39713 -10.38701
 Alpha  occ. eigenvalues --  -10.37481 -10.37422 -10.37172 -10.36842 -10.35578
 Alpha  occ. eigenvalues --  -10.34339 -10.33839 -10.32358 -10.32245 -10.31737
 Alpha  occ. eigenvalues --  -10.31202 -10.31031 -10.29803 -10.29562 -10.29497
 Alpha  occ. eigenvalues --  -10.28616 -10.28178 -10.28112 -10.28010 -10.27712
 Alpha  occ. eigenvalues --  -10.27628 -10.27627 -10.27603 -10.27498 -10.27377
 Alpha  occ. eigenvalues --  -10.27355 -10.27224 -10.27218 -10.26352 -10.25828
 Alpha  occ. eigenvalues --  -10.25695 -10.25664 -10.25252 -10.23988 -10.23754
 Alpha  occ. eigenvalues --  -10.23231 -10.23068 -10.22751 -10.22680 -10.21823
 Alpha  occ. eigenvalues --  -10.20838 -10.20518 -10.20194 -10.19200 -10.18813
 Alpha  occ. eigenvalues --   -1.19995  -1.18246  -1.13917  -1.13141  -1.12877
 Alpha  occ. eigenvalues --   -1.12412  -1.11538  -1.11303  -1.10579  -1.10125
 Alpha  occ. eigenvalues --   -1.09319  -1.06691  -1.06659  -1.02387  -1.01940
 Alpha  occ. eigenvalues --   -1.01510  -1.01174  -1.00707  -1.00689  -0.99683
 Alpha  occ. eigenvalues --   -0.98587  -0.97854  -0.97358  -0.94796  -0.94727
 Alpha  occ. eigenvalues --   -0.94059  -0.92133  -0.91585  -0.89246  -0.88314
 Alpha  occ. eigenvalues --   -0.87303  -0.87063  -0.86198  -0.86142  -0.84287
 Alpha  occ. eigenvalues --   -0.83978  -0.83287  -0.82784  -0.82060  -0.81761
 Alpha  occ. eigenvalues --   -0.80596  -0.80040  -0.79495  -0.78313  -0.76472
 Alpha  occ. eigenvalues --   -0.75627  -0.75389  -0.74784  -0.74104  -0.74011
 Alpha  occ. eigenvalues --   -0.73613  -0.73259  -0.73047  -0.72698  -0.71947
 Alpha  occ. eigenvalues --   -0.71368  -0.70319  -0.69159  -0.68847  -0.68294
 Alpha  occ. eigenvalues --   -0.68266  -0.67882  -0.67817  -0.67245  -0.67113
 Alpha  occ. eigenvalues --   -0.66813  -0.66552  -0.66004  -0.65595  -0.65335
 Alpha  occ. eigenvalues --   -0.64895  -0.64190  -0.63665  -0.62557  -0.62482
 Alpha  occ. eigenvalues --   -0.62166  -0.62081  -0.61603  -0.60837  -0.60455
 Alpha  occ. eigenvalues --   -0.59560  -0.59512  -0.59322  -0.59154  -0.58701
 Alpha  occ. eigenvalues --   -0.58487  -0.58105  -0.57959  -0.57647  -0.56943
 Alpha  occ. eigenvalues --   -0.56729  -0.56206  -0.56138  -0.56005  -0.55604
 Alpha  occ. eigenvalues --   -0.55348  -0.55293  -0.54491  -0.54362  -0.54275
 Alpha  occ. eigenvalues --   -0.54044  -0.54023  -0.53845  -0.53372  -0.53171
 Alpha  occ. eigenvalues --   -0.53149  -0.52994  -0.52615  -0.52535  -0.52246
 Alpha  occ. eigenvalues --   -0.51745  -0.51531  -0.51426  -0.51290  -0.50994
 Alpha  occ. eigenvalues --   -0.50821  -0.50551  -0.50272  -0.49953  -0.49872
 Alpha  occ. eigenvalues --   -0.49647  -0.49372  -0.49231  -0.49135  -0.49052
 Alpha  occ. eigenvalues --   -0.48683  -0.48458  -0.48221  -0.48159  -0.47947
 Alpha  occ. eigenvalues --   -0.47766  -0.47542  -0.47376  -0.47266  -0.47179
 Alpha  occ. eigenvalues --   -0.47121  -0.46680  -0.46618  -0.46557  -0.46415
 Alpha  occ. eigenvalues --   -0.46240  -0.45858  -0.45752  -0.45629  -0.45332
 Alpha  occ. eigenvalues --   -0.45129  -0.44958  -0.44753  -0.44608  -0.44586
 Alpha  occ. eigenvalues --   -0.44121  -0.43985  -0.43552  -0.43544  -0.43500
 Alpha  occ. eigenvalues --   -0.43150  -0.42984  -0.42783  -0.42621  -0.42403
 Alpha  occ. eigenvalues --   -0.42297  -0.42197  -0.42108  -0.41925  -0.41774
 Alpha  occ. eigenvalues --   -0.41503  -0.41251  -0.40906  -0.40168  -0.39859
 Alpha  occ. eigenvalues --   -0.39777  -0.39309  -0.39089  -0.38724  -0.38626
 Alpha  occ. eigenvalues --   -0.38117  -0.38011  -0.37782  -0.37115  -0.36590
 Alpha  occ. eigenvalues --   -0.36277  -0.35856  -0.35750  -0.35686  -0.35209
 Alpha  occ. eigenvalues --   -0.35063  -0.34966  -0.34754  -0.34655  -0.34311
 Alpha  occ. eigenvalues --   -0.34265  -0.33944  -0.33666  -0.33354  -0.33306
 Alpha  occ. eigenvalues --   -0.32932  -0.32809  -0.32584  -0.31376  -0.29641
 Alpha  occ. eigenvalues --   -0.28771  -0.26751  -0.26019  -0.24264  -0.23216
 Alpha  occ. eigenvalues --   -0.22093  -0.20964
 Alpha virt. eigenvalues --   -0.13021  -0.10506  -0.09279  -0.08586  -0.07994
 Alpha virt. eigenvalues --   -0.07679  -0.07059  -0.06439  -0.06132  -0.05940
 Alpha virt. eigenvalues --   -0.05719  -0.05576  -0.04980  -0.04612  -0.02070

 Mulliken charges:
               1
     1  N   -0.561505
     2  H    0.347473
     3  H    0.379451
     4  H    0.343445
     5  C   -0.090212
     6  H    0.169629
     7  C    0.660826
     8  C   -0.077965
     9  H    0.118443
    10  O   -0.538712
    11  C   -0.352317
    12  H    0.189224
    13  H    0.139599
    14  H    0.082051
    15  C   -0.363090
    16  H    0.161591
    17  H    0.106437
    18  H    0.146317
    19  N   -0.510028
    20  H    0.285536
    21  C   -0.007474
    22  H    0.140620
    23  C    0.613309
    24  C   -0.084924
    25  H    0.100807
    26  O   -0.545050
    27  C   -0.175101
    28  H    0.087398
    29  H    0.109518
    30  C   -0.337305
    31  H    0.120759
    32  H    0.127127
    33  H    0.128289
    34  C   -0.325552
    35  H    0.121126
    36  H    0.107788
    37  H    0.123560
    38  N   -0.499646
    39  H    0.288122
    40  C   -0.039303
    41  H    0.149620
    42  C    0.612381
    43  C   -0.253031
    44  H    0.131347
    45  H    0.122948
    46  O   -0.541423
    47  C    0.129568
    48  C   -0.112209
    49  H    0.095113
    50  C   -0.095673
    51  H    0.092632
    52  C   -0.082856
    53  H    0.101755
    54  C   -0.104465
    55  H    0.077689
    56  C   -0.107265
    57  H    0.083908
    58  N   -0.508358
    59  H    0.284563
    60  C   -0.047968
    61  H    0.143325
    62  C    0.612669
    63  C   -0.147635
    64  H    0.102311
    65  H    0.101832
    66  O   -0.550265
    67  C   -0.057181
    68  H    0.088408
    69  C   -0.311670
    70  H    0.107534
    71  H    0.100531
    72  H    0.104979
    73  C   -0.328388
    74  H    0.098406
    75  H    0.101701
    76  H    0.131173
    77  N   -0.537427
    78  H    0.289834
    79  C    0.005656
    80  H    0.139492
    81  C    0.600306
    82  C   -0.190265
    83  H    0.128492
    84  H    0.151359
    85  O   -0.557417
    86  C   -0.268524
    87  H    0.155338
    88  H    0.143650
    89  C    0.573810
    90  O   -0.433094
    91  O   -0.505116
    92  N   -0.544636
    93  H    0.301055
    94  C   -0.054519
    95  H    0.165927
    96  C    0.618756
    97  C   -0.241829
    98  H    0.152266
    99  H    0.141943
   100  O   -0.556869
   101  C    0.581312
   102  N   -0.602412
   103  H    0.275000
   104  H    0.338303
   105  O   -0.578760
   106  N   -0.536518
   107  H    0.298123
   108  C    0.002606
   109  H    0.133076
   110  C    0.613974
   111  C   -0.263620
   112  H    0.103103
   113  H    0.109970
   114  O   -0.601910
   115  C    0.087355
   116  C   -0.124552
   117  H    0.076055
   118  C   -0.149794
   119  H    0.061368
   120  C   -0.105631
   121  H    0.105249
   122  C   -0.095143
   123  H    0.089072
   124  O   -0.619173
   125  H    0.351482
   126  C    0.351155
   127  N   -0.501928
   128  H    0.298880
   129  C   -0.004428
   130  H    0.116636
   131  C    0.585136
   132  C   -0.180133
   133  H    0.119697
   134  H    0.068926
   135  O   -0.647885
   136  C   -0.226723
   137  H    0.099371
   138  H    0.169022
   139  C   -0.088337
   140  H    0.141060
   141  H    0.146497
   142  N   -0.516279
   143  H    0.288710
   144  N   -0.605501
   145  H    0.311727
   146  H    0.321881
   147  N   -0.649284
   148  H    0.339993
   149  H    0.289747
   150  C    0.756407
   151  O   -0.562555
   152  H    0.335226
 Sum of Mulliken charges =   1.00000

 Dipole moment (field-independent basis, Debye):
    X=            -32.3742    Y=             25.1644    Z=             22.7206  Tot=             46.8782
 Quadrupole moment (field-independent basis, Debye-Ang):
   XX=            -50.7031   YY=           -484.2680   ZZ=           -238.3367
   XY=             81.0575   XZ=           -253.6612   YZ=            -61.1969

 Normal termination of Gaussian 16 at Thu Sep  8 08:44:53 2022.
