 Gaussian 16, Revision C.01,
 Gaussian 16:  ES64L-G16RevC.01  3-Jul-2019

 ----------------------------------------------------------------------
 # B3LYP/6-31G** empiricaldispersion=gd3bj guess=read geom=check nosymm
  integral(ultrafinegrid)
 ----------------------------------------------------------------------

 ------------------------------------------------------
 Candidate Structure: Conf:549 Charge calc in gas phase
 ------------------------------------------------------
 Structure from the checkpoint file:  "conf-549.chk"
 Charge =  1 Multiplicity = 1

                          Input orientation:
 ---------------------------------------------------------------------
 Center     Atomic      Atomic             Coordinates (Angstroms)
 Number     Number       Type             X           Y           Z
 ---------------------------------------------------------------------
      1          7           0       -9.423402    1.557541    7.440395
      2          1           0      -10.353096    1.917380    7.660734
      3          1           0       -9.471429    0.967332    6.544385
      4          1           0       -9.074935    1.029638    8.241271
      5          6           0       -8.459594    2.633444    6.987708
      6          1           0       -8.848221    3.605836    7.299959
      7          6           0       -8.517449    2.448889    5.447037
      8          6           0       -7.051652    2.396695    7.594122
      9          1           0       -6.654862    1.469320    7.160688
     10          8           0       -8.964767    1.361553    5.039091
     11          6           0       -6.101471    3.547531    7.231407
     12          1           0       -6.484052    4.503575    7.607797
     13          1           0       -5.134381    3.373991    7.708787
     14          1           0       -5.913831    3.642967    6.161305
     15          6           0       -7.120837    2.250456    9.123242
     16          1           0       -7.577046    3.131049    9.588248
     17          1           0       -7.661767    1.360309    9.469675
     18          1           0       -6.109011    2.151459    9.522096
     19          7           0       -8.100005    3.446697    4.678840
     20          1           0       -7.597471    4.225694    5.095913
     21          6           0       -7.795941    3.281184    3.250065
     22          1           0       -8.004105    2.239439    3.000007
     23          6           0       -6.281764    3.557329    3.163425
     24          6           0       -8.658617    4.204278    2.358709
     25          1           0       -9.699478    3.927178    2.576015
     26          8           0       -5.771427    4.376065    3.940806
     27          6           0       -8.388718    3.895793    0.873966
     28          1           0       -8.423326    2.808167    0.725622
     29          1           0       -7.369581    4.208034    0.616773
     30          6           0       -8.467642    5.686387    2.699441
     31          1           0       -7.439509    6.009072    2.513229
     32          1           0       -8.698344    5.892827    3.749308
     33          1           0       -9.135169    6.306429    2.097960
     34          6           0       -9.385076    4.554399   -0.082733
     35          1           0       -9.190768    4.242757   -1.112416
     36          1           0      -10.414611    4.272151    0.162592
     37          1           0       -9.319686    5.645497   -0.053300
     38          7           0       -5.608720    2.822347    2.276607
     39          1           0       -6.071760    2.149451    1.666262
     40          6           0       -4.161572    2.721502    2.200916
     41          1           0       -3.732375    3.686949    1.908916
     42          6           0       -3.909506    1.693236    1.077965
     43          6           0       -3.526947    2.294141    3.553703
     44          1           0       -3.764559    3.079080    4.274921
     45          1           0       -2.439259    2.289816    3.438361
     46          8           0       -4.857145    1.189111    0.468894
     47          6           0       -4.001860    0.946695    4.042296
     48          6           0       -5.261371    0.808541    4.643569
     49          1           0       -5.869969    1.689534    4.803490
     50          6           0       -3.212686   -0.198077    3.879747
     51          1           0       -2.227726   -0.118757    3.429431
     52          6           0       -5.737032   -0.438972    5.041614
     53          1           0       -6.733269   -0.524053    5.467639
     54          6           0       -3.675239   -1.446125    4.301769
     55          1           0       -3.029837   -2.310276    4.194267
     56          6           0       -4.941668   -1.573586    4.871857
     57          1           0       -5.303945   -2.547716    5.185311
     58          7           0       -2.623882    1.406678    0.829878
     59          1           0       -1.883212    1.693237    1.460971
     60          6           0       -2.234524    0.344888   -0.085133
     61          1           0       -3.033624   -0.403494   -0.077752
     62          6           0       -0.964793   -0.270637    0.523667
     63          6           0       -2.067586    0.905526   -1.516684
     64          1           0       -1.200828    1.572024   -1.538446
     65          1           0       -2.961296    1.516020   -1.691371
     66          8           0       -0.445133    0.215024    1.532032
     67          6           0       -1.952677   -0.103739   -2.673554
     68          1           0       -0.986894   -0.616967   -2.603396
     69          6           0       -3.080676   -1.144827   -2.666738
     70          1           0       -4.060845   -0.654837   -2.658748
     71          1           0       -3.048447   -1.809910   -1.795085
     72          1           0       -3.028476   -1.779250   -3.556759
     73          6           0       -1.931712    0.666961   -3.999426
     74          1           0       -2.873945    1.206222   -4.153019
     75          1           0       -1.797781   -0.015488   -4.845325
     76          1           0       -1.111540    1.388716   -4.004776
     77          7           0       -0.477807   -1.362762   -0.106519
     78          1           0       -0.970381   -1.711629   -0.915616
     79          6           0        0.753223   -2.040213    0.291809
     80          1           0        1.259729   -1.366397    0.989640
     81          6           0        1.692073   -2.226444   -0.908564
     82          6           0        0.483100   -3.373114    0.996311
     83          1           0        1.448945   -3.821574    1.232968
     84          1           0       -0.026446   -4.055281    0.306987
     85          8           0        2.465106   -3.172493   -0.984060
     86          6           0       -0.356373   -3.205647    2.260010
     87          1           0       -1.312837   -2.715507    2.050346
     88          1           0       -0.605533   -4.184813    2.687024
     89          6           0        0.356731   -2.419435    3.336306
     90          8           0        1.534063   -2.145588    3.358652
     91          8           0       -0.491721   -2.061911    4.335378
     92          7           0        1.593118   -1.267356   -1.871334
     93          1           0        1.132558   -0.387017   -1.656950
     94          6           0        2.617836   -1.184342   -2.886932
     95          1           0        2.711397   -2.160750   -3.371622
     96          6           0        3.973824   -0.787031   -2.274535
     97          6           0        2.230527   -0.118889   -3.937552
     98          1           0        3.014851   -0.060442   -4.694470
     99          1           0        1.292338   -0.415351   -4.413943
    100          8           0        4.049339   -0.095357   -1.269706
    101          6           0        2.006127    1.236498   -3.273941
    102          7           0        2.944235    2.172318   -3.516908
    103          1           0        2.884569    3.018443   -2.968693
    104          1           0        3.845514    1.902868   -3.909247
    105          8           0        1.014946    1.436033   -2.559455
    106          7           0        5.055018   -1.209617   -2.990755
    107          1           0        4.887221   -1.635377   -3.892369
    108          6           0        6.340462   -0.569652   -2.830822
    109          1           0        6.360366   -0.181081   -1.807608
    110          6           0        6.422221    0.641885   -3.785803
    111          6           0        7.490285   -1.589268   -3.017309
    112          1           0        8.445617   -1.115257   -2.771286
    113          1           0        7.335070   -2.375899   -2.273301
    114          8           0        5.438143    1.041328   -4.422644
    115          6           0        7.544621   -2.178377   -4.407902
    116          6           0        6.713121   -3.251353   -4.765252
    117          1           0        6.073870   -3.703975   -4.011845
    118          6           0        8.395001   -1.649989   -5.386434
    119          1           0        9.073129   -0.840365   -5.136214
    120          6           0        6.706656   -3.765668   -6.057881
    121          1           0        6.070099   -4.600249   -6.330358
    122          6           0        8.402191   -2.159139   -6.683239
    123          1           0        9.077288   -1.739670   -7.425679
    124          8           0        7.509946   -3.754389   -8.278811
    125          1           0        8.171493   -3.319702   -8.832758
    126          6           0        7.552242   -3.214770   -7.025784
    127          7           0        7.619381    1.245926   -3.868720
    128          1           0        8.450688    0.850825   -3.444913
    129          6           0        7.895592    2.300323   -4.831720
    130          1           0        7.210656    2.176256   -5.675571
    131          6           0        9.348697    2.065190   -5.286307
    132          6           0        7.645987    3.693407   -4.189714
    133          1           0        6.799851    3.549227   -3.512337
    134          1           0        8.502244    3.968728   -3.561751
    135          8           0        9.729814    2.570109   -6.441536
    136          6           0        7.285331    4.813524   -5.174465
    137          1           0        6.609224    4.400599   -5.929283
    138          1           0        6.720628    5.586019   -4.640373
    139          6           0        8.481902    5.475750   -5.888395
    140          1           0        8.848356    6.331910   -5.315924
    141          1           0        9.320862    4.788182   -5.983450
    142          7           0        8.158636    5.960465   -7.229380
    143          1           0        7.614324    6.811461   -7.268070
    144          7           0        8.081810    3.791790   -8.065425
    145          1           0        7.934840    3.267817   -8.923675
    146          1           0        8.995758    3.029638   -6.996696
    147          7           0        7.361522    5.642264   -9.374630
    148          1           0        7.331692    5.045383  -10.188547
    149          1           0        7.688579    6.575688   -9.585966
    150          6           0        7.885610    5.064783   -8.230278
    151          8           0       10.110826    1.430374   -4.573860
    152          1           0        0.043224   -1.568053    4.979431
 ---------------------------------------------------------------------

 SCF Done:  E(RB3LYP) =  -3587.12676134     A.U. after    1 cycles

 Alpha  occ. eigenvalues --  -19.26791 -19.24315 -19.21431 -19.20900 -19.20527
 Alpha  occ. eigenvalues --  -19.18966 -19.18374 -19.18278 -19.17114 -19.16653
 Alpha  occ. eigenvalues --  -19.15910 -19.15475 -19.15429 -14.58755 -14.49283
 Alpha  occ. eigenvalues --  -14.44344 -14.42382 -14.42263 -14.42048 -14.41709
 Alpha  occ. eigenvalues --  -14.40658 -14.39771 -14.39215 -14.39029 -14.36653
 Alpha  occ. eigenvalues --  -10.43356 -10.40012 -10.37839 -10.36509 -10.36070
 Alpha  occ. eigenvalues --  -10.35858 -10.35169 -10.35158 -10.33851 -10.33719
 Alpha  occ. eigenvalues --  -10.33365 -10.33179 -10.32527 -10.32374 -10.31400
 Alpha  occ. eigenvalues --  -10.30861 -10.29108 -10.28783 -10.28585 -10.28298
 Alpha  occ. eigenvalues --  -10.28063 -10.28045 -10.27784 -10.27667 -10.27278
 Alpha  occ. eigenvalues --  -10.26526 -10.26364 -10.26017 -10.25993 -10.25890
 Alpha  occ. eigenvalues --  -10.25421 -10.25409 -10.24951 -10.24925 -10.24816
 Alpha  occ. eigenvalues --  -10.24505 -10.24324 -10.24199 -10.23838 -10.23787
 Alpha  occ. eigenvalues --  -10.23633 -10.23448 -10.23121 -10.22942 -10.22798
 Alpha  occ. eigenvalues --  -10.22622 -10.22565 -10.22431 -10.22223 -10.21194
 Alpha  occ. eigenvalues --   -1.19287  -1.15031  -1.13207  -1.12661  -1.12389
 Alpha  occ. eigenvalues --   -1.11033  -1.09974  -1.09542  -1.08941  -1.08025
 Alpha  occ. eigenvalues --   -1.07245  -1.06895  -1.05997  -1.05887  -1.05290
 Alpha  occ. eigenvalues --   -1.04144  -1.01266  -0.99402  -0.98970  -0.97490
 Alpha  occ. eigenvalues --   -0.96879  -0.96163  -0.95834  -0.94613  -0.94293
 Alpha  occ. eigenvalues --   -0.92220  -0.91720  -0.90559  -0.89115  -0.87088
 Alpha  occ. eigenvalues --   -0.86206  -0.85782  -0.85070  -0.84883  -0.83572
 Alpha  occ. eigenvalues --   -0.82470  -0.81996  -0.81376  -0.80996  -0.80750
 Alpha  occ. eigenvalues --   -0.79893  -0.78998  -0.78572  -0.78448  -0.77457
 Alpha  occ. eigenvalues --   -0.76561  -0.74233  -0.73903  -0.73514  -0.73019
 Alpha  occ. eigenvalues --   -0.72947  -0.72547  -0.72251  -0.71164  -0.70214
 Alpha  occ. eigenvalues --   -0.69726  -0.69426  -0.68616  -0.67311  -0.67117
 Alpha  occ. eigenvalues --   -0.66958  -0.66241  -0.65924  -0.65745  -0.65112
 Alpha  occ. eigenvalues --   -0.65072  -0.64747  -0.64390  -0.63966  -0.63726
 Alpha  occ. eigenvalues --   -0.63227  -0.63094  -0.62890  -0.62574  -0.62221
 Alpha  occ. eigenvalues --   -0.61945  -0.61195  -0.60884  -0.60536  -0.60045
 Alpha  occ. eigenvalues --   -0.58959  -0.58770  -0.58327  -0.57935  -0.57897
 Alpha  occ. eigenvalues --   -0.57777  -0.57694  -0.56621  -0.56049  -0.55661
 Alpha  occ. eigenvalues --   -0.55257  -0.55183  -0.54565  -0.54182  -0.53995
 Alpha  occ. eigenvalues --   -0.53634  -0.53553  -0.53283  -0.53210  -0.52990
 Alpha  occ. eigenvalues --   -0.52627  -0.52563  -0.52215  -0.52115  -0.52021
 Alpha  occ. eigenvalues --   -0.51961  -0.51673  -0.51493  -0.51485  -0.51339
 Alpha  occ. eigenvalues --   -0.51017  -0.50836  -0.50451  -0.50259  -0.50148
 Alpha  occ. eigenvalues --   -0.49656  -0.49501  -0.49376  -0.49109  -0.49081
 Alpha  occ. eigenvalues --   -0.48733  -0.48399  -0.48269  -0.48004  -0.47711
 Alpha  occ. eigenvalues --   -0.47506  -0.47467  -0.47439  -0.47237  -0.47199
 Alpha  occ. eigenvalues --   -0.46895  -0.46481  -0.46395  -0.46213  -0.46103
 Alpha  occ. eigenvalues --   -0.45852  -0.45688  -0.45637  -0.45518  -0.45320
 Alpha  occ. eigenvalues --   -0.45158  -0.45078  -0.44764  -0.44735  -0.44496
 Alpha  occ. eigenvalues --   -0.44305  -0.44154  -0.43880  -0.43781  -0.43723
 Alpha  occ. eigenvalues --   -0.43475  -0.43178  -0.42957  -0.42843  -0.42605
 Alpha  occ. eigenvalues --   -0.42405  -0.42145  -0.41914  -0.41800  -0.41571
 Alpha  occ. eigenvalues --   -0.41546  -0.41240  -0.40768  -0.40706  -0.40596
 Alpha  occ. eigenvalues --   -0.40559  -0.40424  -0.40379  -0.40324  -0.40202
 Alpha  occ. eigenvalues --   -0.39965  -0.39939  -0.39501  -0.39229  -0.38918
 Alpha  occ. eigenvalues --   -0.38671  -0.38083  -0.38004  -0.37251  -0.37109
 Alpha  occ. eigenvalues --   -0.37044  -0.36454  -0.36306  -0.34824  -0.34622
 Alpha  occ. eigenvalues --   -0.34395  -0.33959  -0.33291  -0.32879  -0.32508
 Alpha  occ. eigenvalues --   -0.32018  -0.31964  -0.31939  -0.31610  -0.31408
 Alpha  occ. eigenvalues --   -0.31276  -0.30927  -0.30844  -0.30649  -0.30171
 Alpha  occ. eigenvalues --   -0.29828  -0.29822  -0.29578  -0.28973  -0.28609
 Alpha  occ. eigenvalues --   -0.28102  -0.25495
 Alpha virt. eigenvalues --   -0.12400  -0.10337  -0.07516  -0.07236  -0.06846
 Alpha virt. eigenvalues --   -0.05671  -0.04465  -0.04329  -0.03998  -0.03740
 Alpha virt. eigenvalues --   -0.03499  -0.03333  -0.02861  -0.02507  -0.02186

 Mulliken charges:
               1
     1  N   -0.558021
     2  H    0.348821
     3  H    0.374361
     4  H    0.337917
     5  C   -0.075744
     6  H    0.162930
     7  C    0.638927
     8  C   -0.089936
     9  H    0.140546
    10  O   -0.543391
    11  C   -0.352092
    12  H    0.116458
    13  H    0.143711
    14  H    0.161273
    15  C   -0.342410
    16  H    0.132293
    17  H    0.097419
    18  H    0.161304
    19  N   -0.506226
    20  H    0.300270
    21  C   -0.053354
    22  H    0.155263
    23  C    0.629012
    24  C   -0.040300
    25  H    0.101592
    26  O   -0.566266
    27  C   -0.191012
    28  H    0.102501
    29  H    0.114214
    30  C   -0.331330
    31  H    0.133342
    32  H    0.089918
    33  H    0.125758
    34  C   -0.327127
    35  H    0.121951
    36  H    0.109575
    37  H    0.116608
    38  N   -0.524376
    39  H    0.299633
    40  C    0.010185
    41  H    0.151215
    42  C    0.611972
    43  C   -0.284871
    44  H    0.144489
    45  H    0.121241
    46  O   -0.550716
    47  C    0.118599
    48  C   -0.107092
    49  H    0.038451
    50  C   -0.143592
    51  H    0.118059
    52  C   -0.089174
    53  H    0.059140
    54  C   -0.085468
    55  H    0.111685
    56  C   -0.088555
    57  H    0.091656
    58  N   -0.531630
    59  H    0.287528
    60  C   -0.044213
    61  H    0.146051
    62  C    0.612797
    63  C   -0.158441
    64  H    0.141381
    65  H    0.110170
    66  O   -0.544948
    67  C   -0.079740
    68  H    0.090451
    69  C   -0.321009
    70  H    0.118300
    71  H    0.081869
    72  H    0.109444
    73  C   -0.321950
    74  H    0.096932
    75  H    0.094358
    76  H    0.128710
    77  N   -0.546443
    78  H    0.277899
    79  C   -0.044983
    80  H    0.200042
    81  C    0.609436
    82  C   -0.160240
    83  H    0.158773
    84  H    0.095840
    85  O   -0.526210
    86  C   -0.275680
    87  H    0.126875
    88  H    0.142346
    89  C    0.599649
    90  O   -0.456318
    91  O   -0.492734
    92  N   -0.534803
    93  H    0.303224
    94  C   -0.037301
    95  H    0.128965
    96  C    0.634891
    97  C   -0.267837
    98  H    0.135057
    99  H    0.141484
   100  O   -0.527473
   101  C    0.573370
   102  N   -0.606647
   103  H    0.269908
   104  H    0.325169
   105  O   -0.546130
   106  N   -0.505570
   107  H    0.267397
   108  C   -0.037226
   109  H    0.167185
   110  C    0.621379
   111  C   -0.268388
   112  H    0.113215
   113  H    0.135143
   114  O   -0.569027
   115  C    0.104564
   116  C   -0.154946
   117  H    0.101152
   118  C   -0.141480
   119  H    0.109574
   120  C   -0.100088
   121  H    0.100925
   122  C   -0.136323
   123  H    0.084272
   124  O   -0.555422
   125  H    0.319126
   126  C    0.328194
   127  N   -0.523201
   128  H    0.288336
   129  C   -0.024388
   130  H    0.144388
   131  C    0.599785
   132  C   -0.179554
   133  H    0.119198
   134  H    0.112462
   135  O   -0.523503
   136  C   -0.192885
   137  H    0.126321
   138  H    0.098270
   139  C   -0.079152
   140  H    0.117267
   141  H    0.144960
   142  N   -0.520842
   143  H    0.265514
   144  N   -0.681646
   145  H    0.235717
   146  H    0.401130
   147  N   -0.631326
   148  H    0.275367
   149  H    0.277376
   150  C    0.675767
   151  O   -0.491020
   152  H    0.324582
 Sum of Mulliken charges =   1.00000

 Dipole moment (field-independent basis, Debye):
    X=            -27.8042    Y=             17.0122    Z=             13.7223  Tot=             35.3665
 Quadrupole moment (field-independent basis, Debye-Ang):
   XX=           -106.8534   YY=           -352.0837   ZZ=            -96.5112
   XY=            -12.9842   XZ=           -331.7352   YZ=            -14.7026

 Normal termination of Gaussian 16 at Thu Sep  8 08:44:52 2022.
