 Gaussian 16, Revision C.01,
 Gaussian 16:  ES64L-G16RevC.01  3-Jul-2019

 ----------------------------------------------------------------------
 # B3LYP/6-31G** empiricaldispersion=gd3bj guess=read geom=check nosymm
  integral(ultrafinegrid)
 ----------------------------------------------------------------------

 ------------------------------------------------------
 Candidate Structure: Conf:446 Charge calc in gas phase
 ------------------------------------------------------
 Structure from the checkpoint file:  "conf-446.chk"
 Charge =  1 Multiplicity = 1

                          Input orientation:
 ---------------------------------------------------------------------
 Center     Atomic      Atomic             Coordinates (Angstroms)
 Number     Number       Type             X           Y           Z
 ---------------------------------------------------------------------
      1          7           0      -10.423641   -2.186174    7.041316
      2          1           0      -11.253616   -2.173477    7.633452
      3          1           0      -10.687371   -2.142173    5.991201
      4          1           0       -9.884415   -3.029307    7.244297
      5          6           0       -9.590259   -0.929071    7.134785
      6          1           0      -10.076972   -0.253048    7.841541
      7          6           0       -9.690134   -0.376769    5.690276
      8          6           0       -8.140383   -1.217040    7.576362
      9          1           0       -7.642890   -0.239985    7.580967
     10          8           0      -10.317557   -1.064213    4.864107
     11          6           0       -8.095576   -1.775176    9.003941
     12          1           0       -8.539928   -2.776331    9.072001
     13          1           0       -7.059373   -1.870328    9.336071
     14          1           0       -8.616728   -1.123585    9.711877
     15          6           0       -7.392468   -2.109367    6.576599
     16          1           0       -7.824509   -3.115620    6.502522
     17          1           0       -7.372522   -1.674505    5.574257
     18          1           0       -6.358103   -2.238133    6.902090
     19          7           0       -9.077053    0.769706    5.454780
     20          1           0       -8.441415    1.167146    6.149675
     21          6           0       -8.738991    1.279405    4.122118
     22          1           0       -8.953886    0.494617    3.391033
     23          6           0       -7.219278    1.530482    4.240051
     24          6           0       -9.548782    2.553487    3.772085
     25          1           0       -9.304107    3.304149    4.536902
     26          8           0       -6.737565    1.774510    5.355876
     27          6           0      -11.057699    2.254637    3.847645
     28          1           0      -11.280689    1.803413    4.820688
     29          1           0      -11.308101    1.497356    3.093189
     30          6           0       -9.140298    3.101779    2.399286
     31          1           0       -9.336325    2.366486    1.609533
     32          1           0       -8.083276    3.370380    2.359229
     33          1           0       -9.713545    3.999293    2.161317
     34          6           0      -11.946569    3.487375    3.666007
     35          1           0      -12.997120    3.230242    3.828115
     36          1           0      -11.681862    4.274143    4.380914
     37          1           0      -11.866748    3.908806    2.660748
     38          7           0       -6.508800    1.453975    3.113868
     39          1           0       -6.919863    1.205907    2.217013
     40          6           0       -5.065721    1.629352    3.054964
     41          1           0       -4.779074    2.489273    3.665987
     42          6           0       -4.745275    1.852809    1.574252
     43          6           0       -4.339423    0.358125    3.575557
     44          1           0       -4.730313   -0.493623    3.009717
     45          1           0       -4.632031    0.234857    4.622847
     46          8           0       -5.468582    1.339207    0.713041
     47          6           0       -2.840768    0.439081    3.435151
     48          6           0       -2.084336    1.201500    4.332590
     49          1           0       -2.578312    1.694287    5.167097
     50          6           0       -2.190625   -0.190208    2.366157
     51          1           0       -2.774891   -0.774326    1.659251
     52          6           0       -0.704705    1.325112    4.166477
     53          1           0       -0.127117    1.917054    4.869872
     54          6           0       -0.811351   -0.071225    2.199208
     55          1           0       -0.314068   -0.561540    1.367796
     56          6           0       -0.063633    0.685707    3.104632
     57          1           0        1.009261    0.779171    2.978318
     58          7           0       -3.645838    2.570253    1.311364
     59          1           0       -3.065061    2.945829    2.053265
     60          6           0       -3.070086    2.647509   -0.023407
     61          1           0       -3.140985    1.656277   -0.480723
     62          6           0       -1.608189    3.059810    0.173418
     63          6           0       -3.821079    3.678678   -0.891590
     64          1           0       -3.728789    4.651807   -0.395891
     65          1           0       -4.879436    3.396782   -0.871013
     66          8           0       -1.290739    3.828891    1.080511
     67          6           0       -3.355244    3.791276   -2.352558
     68          1           0       -2.292122    4.065661   -2.358392
     69          6           0       -3.514122    2.471703   -3.119782
     70          1           0       -4.552829    2.124209   -3.082128
     71          1           0       -2.885852    1.668671   -2.721215
     72          1           0       -3.239250    2.599056   -4.171083
     73          6           0       -4.132707    4.913709   -3.051134
     74          1           0       -5.204643    4.685568   -3.078431
     75          1           0       -3.793927    5.043375   -4.083639
     76          1           0       -4.006922    5.869044   -2.531403
     77          7           0       -0.748238    2.559812   -0.735329
     78          1           0       -1.049704    1.871669   -1.413868
     79          6           0        0.665162    2.893723   -0.797935
     80          1           0        0.774603    3.984351   -0.844932
     81          6           0        1.169746    2.259485   -2.101415
     82          6           0        1.419793    2.357357    0.440488
     83          1           0        1.371278    1.268555    0.427378
     84          1           0        0.857323    2.701170    1.309541
     85          8           0        0.587533    1.281165   -2.588835
     86          6           0        2.867935    2.829349    0.546435
     87          1           0        3.489755    2.483468   -0.288785
     88          1           0        2.942265    3.923352    0.548091
     89          6           0        3.541568    2.316552    1.792654
     90          8           0        3.164200    1.390253    2.484728
     91          8           0        4.678487    2.992095    2.061959
     92          7           0        2.254489    2.837222   -2.658345
     93          1           0        2.773288    3.504924   -2.099120
     94          6           0        3.056580    2.181979   -3.677067
     95          1           0        2.589239    1.224340   -3.909334
     96          6           0        4.456556    1.943996   -3.070137
     97          6           0        3.133274    3.011450   -4.980867
     98          1           0        2.118388    3.142067   -5.365389
     99          1           0        3.557223    4.000719   -4.779115
    100          8           0        4.804456    2.539031   -2.045903
    101          6           0        3.953076    2.213703   -5.992270
    102          7           0        5.075776    2.800532   -6.480263
    103          1           0        5.790240    2.154969   -6.800749
    104          1           0        5.421308    3.634682   -6.030479
    105          8           0        3.628752    1.059827   -6.267296
    106          7           0        5.235936    1.081702   -3.745750
    107          1           0        4.867795    0.636885   -4.578688
    108          6           0        6.475916    0.562224   -3.218123
    109          1           0        6.735672    1.185063   -2.359378
    110          6           0        7.560114    0.656447   -4.302148
    111          6           0        6.289903   -0.922958   -2.743610
    112          1           0        6.388092   -1.580094   -3.614233
    113          1           0        7.102100   -1.175912   -2.055944
    114          8           0        7.279641    0.882280   -5.484153
    115          6           0        4.932471   -1.103446   -2.112957
    116          6           0        4.684071   -0.767821   -0.778370
    117          1           0        5.515230   -0.512509   -0.126506
    118          6           0        3.838353   -1.426726   -2.926713
    119          1           0        4.005830   -1.704679   -3.963922
    120          6           0        3.382640   -0.698100   -0.277916
    121          1           0        3.193646   -0.404326    0.748632
    122          6           0        2.535468   -1.348429   -2.449595
    123          1           0        1.693436   -1.563410   -3.099327
    124          8           0        1.022281   -0.773527   -0.663200
    125          1           0        0.536047   -0.303570   -1.364683
    126          6           0        2.305956   -0.946831   -1.130655
    127          7           0        8.806564    0.420794   -3.861780
    128          1           0        9.028156    0.236562   -2.886091
    129          6           0        9.972713    0.306123   -4.724064
    130          1           0        9.714793   -0.288927   -5.605046
    131          6           0       11.048092   -0.428189   -3.882258
    132          6           0       10.414111    1.723968   -5.183945
    133          1           0        9.487739    2.233125   -5.459549
    134          1           0       10.821602    2.255575   -4.314562
    135          8           0       11.976961   -1.018920   -4.541752
    136          6           0       11.381715    1.818723   -6.385658
    137          1           0       11.334442    0.901812   -6.985162
    138          1           0       11.053073    2.626438   -7.048016
    139          6           0       12.848890    2.108301   -6.039600
    140          1           0       13.415858    2.294018   -6.960310
    141          1           0       12.910701    3.011079   -5.419573
    142          7           0       13.416840    0.972982   -5.318554
    143          1           0       12.834800    0.098871   -5.326207
    144          7           0       14.857136    2.170058   -3.922728
    145          1           0       15.491477    2.165677   -3.140117
    146          1           0       15.073298    2.815051   -4.665836
    147          7           0       14.214919   -0.028501   -3.424257
    148          1           0       14.713857    0.009290   -2.550329
    149          1           0       13.428466   -0.701140   -3.553647
    150          6           0       14.165715    1.042088   -4.222301
    151          8           0       10.960775   -0.345904   -2.647173
    152          1           0        5.065964    2.571316    2.848255
 ---------------------------------------------------------------------

 SCF Done:  E(RB3LYP) =  -3587.13162651     A.U. after    2 cycles

 Alpha  occ. eigenvalues --  -19.26916 -19.23752 -19.21153 -19.20010 -19.18736
 Alpha  occ. eigenvalues --  -19.18381 -19.18191 -19.16949 -19.16584 -19.15586
 Alpha  occ. eigenvalues --  -19.14853 -19.12720 -19.12131 -14.58667 -14.48858
 Alpha  occ. eigenvalues --  -14.44857 -14.44754 -14.42327 -14.41974 -14.41762
 Alpha  occ. eigenvalues --  -14.41388 -14.41384 -14.39975 -14.39409 -14.38333
 Alpha  occ. eigenvalues --  -10.43157 -10.39896 -10.39256 -10.38129 -10.36452
 Alpha  occ. eigenvalues --  -10.35519 -10.35144 -10.34051 -10.34050 -10.33563
 Alpha  occ. eigenvalues --  -10.33543 -10.33399 -10.31894 -10.30727 -10.30577
 Alpha  occ. eigenvalues --  -10.30324 -10.30183 -10.29206 -10.28706 -10.28639
 Alpha  occ. eigenvalues --  -10.28581 -10.28413 -10.27557 -10.27130 -10.26246
 Alpha  occ. eigenvalues --  -10.25793 -10.25365 -10.25087 -10.25073 -10.24650
 Alpha  occ. eigenvalues --  -10.24429 -10.23967 -10.23799 -10.23643 -10.23459
 Alpha  occ. eigenvalues --  -10.23258 -10.23252 -10.23234 -10.23118 -10.22915
 Alpha  occ. eigenvalues --  -10.22622 -10.22565 -10.22426 -10.22242 -10.22200
 Alpha  occ. eigenvalues --  -10.22169 -10.21927 -10.21831 -10.21667 -10.21551
 Alpha  occ. eigenvalues --   -1.19308  -1.14844  -1.13327  -1.12646  -1.10638
 Alpha  occ. eigenvalues --   -1.10192  -1.08818  -1.08519  -1.08308  -1.07905
 Alpha  occ. eigenvalues --   -1.07473  -1.06601  -1.05918  -1.05640  -1.05628
 Alpha  occ. eigenvalues --   -1.01364  -0.98972  -0.98731  -0.98147  -0.98125
 Alpha  occ. eigenvalues --   -0.97228  -0.96751  -0.96004  -0.95004  -0.94864
 Alpha  occ. eigenvalues --   -0.94488  -0.90744  -0.90109  -0.88567  -0.86734
 Alpha  occ. eigenvalues --   -0.86311  -0.85500  -0.85099  -0.84184  -0.83613
 Alpha  occ. eigenvalues --   -0.82458  -0.81707  -0.81651  -0.80795  -0.79294
 Alpha  occ. eigenvalues --   -0.78610  -0.78560  -0.78529  -0.77858  -0.77452
 Alpha  occ. eigenvalues --   -0.76180  -0.73616  -0.73223  -0.73034  -0.72842
 Alpha  occ. eigenvalues --   -0.72728  -0.72577  -0.71754  -0.71438  -0.70700
 Alpha  occ. eigenvalues --   -0.70025  -0.69722  -0.69229  -0.68546  -0.66847
 Alpha  occ. eigenvalues --   -0.66240  -0.65789  -0.65314  -0.64899  -0.64812
 Alpha  occ. eigenvalues --   -0.64520  -0.64314  -0.64107  -0.63752  -0.63035
 Alpha  occ. eigenvalues --   -0.62870  -0.62497  -0.62308  -0.62061  -0.61833
 Alpha  occ. eigenvalues --   -0.61709  -0.61406  -0.60930  -0.60458  -0.59508
 Alpha  occ. eigenvalues --   -0.59335  -0.58276  -0.57865  -0.57555  -0.57187
 Alpha  occ. eigenvalues --   -0.57016  -0.56628  -0.56303  -0.55989  -0.55534
 Alpha  occ. eigenvalues --   -0.55211  -0.55154  -0.54962  -0.54487  -0.54332
 Alpha  occ. eigenvalues --   -0.54104  -0.53828  -0.53273  -0.52825  -0.52476
 Alpha  occ. eigenvalues --   -0.52369  -0.52307  -0.52103  -0.52008  -0.51815
 Alpha  occ. eigenvalues --   -0.51639  -0.51361  -0.51123  -0.50929  -0.50892
 Alpha  occ. eigenvalues --   -0.50549  -0.50405  -0.50219  -0.50060  -0.49829
 Alpha  occ. eigenvalues --   -0.49677  -0.49446  -0.49266  -0.48985  -0.48693
 Alpha  occ. eigenvalues --   -0.48450  -0.48018  -0.47979  -0.47832  -0.47741
 Alpha  occ. eigenvalues --   -0.47593  -0.47348  -0.47129  -0.47032  -0.46964
 Alpha  occ. eigenvalues --   -0.46846  -0.46573  -0.46418  -0.46254  -0.46076
 Alpha  occ. eigenvalues --   -0.45945  -0.45778  -0.45505  -0.45268  -0.45131
 Alpha  occ. eigenvalues --   -0.45063  -0.44768  -0.44623  -0.44450  -0.44083
 Alpha  occ. eigenvalues --   -0.43983  -0.43854  -0.43842  -0.43453  -0.43275
 Alpha  occ. eigenvalues --   -0.43193  -0.42996  -0.42912  -0.42546  -0.42106
 Alpha  occ. eigenvalues --   -0.42094  -0.41780  -0.41562  -0.41297  -0.41214
 Alpha  occ. eigenvalues --   -0.40846  -0.40675  -0.40621  -0.40559  -0.40279
 Alpha  occ. eigenvalues --   -0.40219  -0.40113  -0.39667  -0.39441  -0.39031
 Alpha  occ. eigenvalues --   -0.38773  -0.38635  -0.38459  -0.38386  -0.38043
 Alpha  occ. eigenvalues --   -0.37963  -0.37760  -0.37282  -0.37229  -0.37093
 Alpha  occ. eigenvalues --   -0.36861  -0.35906  -0.35386  -0.35228  -0.34452
 Alpha  occ. eigenvalues --   -0.34231  -0.33043  -0.32742  -0.32274  -0.31955
 Alpha  occ. eigenvalues --   -0.31946  -0.31781  -0.31592  -0.30814  -0.30602
 Alpha  occ. eigenvalues --   -0.30278  -0.30041  -0.29307  -0.29261  -0.29203
 Alpha  occ. eigenvalues --   -0.28810  -0.28459  -0.28031  -0.27947  -0.26870
 Alpha  occ. eigenvalues --   -0.26275  -0.25391
 Alpha virt. eigenvalues --   -0.12154  -0.10492  -0.07332  -0.06141  -0.05300
 Alpha virt. eigenvalues --   -0.04818  -0.04609  -0.04256  -0.04058  -0.03743
 Alpha virt. eigenvalues --   -0.03523  -0.03399  -0.03193  -0.02756  -0.02332

 Mulliken charges:
               1
     1  N   -0.561105
     2  H    0.348808
     3  H    0.377482
     4  H    0.340341
     5  C   -0.077148
     6  H    0.175588
     7  C    0.633353
     8  C   -0.105454
     9  H    0.157609
    10  O   -0.547342
    11  C   -0.327254
    12  H    0.097234
    13  H    0.157517
    14  H    0.128708
    15  C   -0.338286
    16  H    0.099167
    17  H    0.142395
    18  H    0.158497
    19  N   -0.499450
    20  H    0.301611
    21  C   -0.048929
    22  H    0.142896
    23  C    0.618490
    24  C   -0.040840
    25  H    0.102858
    26  O   -0.565977
    27  C   -0.169071
    28  H    0.082522
    29  H    0.107783
    30  C   -0.338708
    31  H    0.113549
    32  H    0.124317
    33  H    0.129272
    34  C   -0.327217
    35  H    0.114080
    36  H    0.110691
    37  H    0.121369
    38  N   -0.525580
    39  H    0.291305
    40  C    0.006050
    41  H    0.138424
    42  C    0.605763
    43  C   -0.237770
    44  H    0.108177
    45  H    0.120310
    46  O   -0.564258
    47  C    0.101650
    48  C   -0.140603
    49  H    0.078635
    50  C   -0.131547
    51  H    0.083515
    52  C   -0.084595
    53  H    0.091506
    54  C   -0.109496
    55  H    0.126928
    56  C   -0.102387
    57  H    0.137654
    58  N   -0.525163
    59  H    0.291319
    60  C    0.001706
    61  H    0.123117
    62  C    0.606444
    63  C   -0.154771
    64  H    0.105670
    65  H    0.119713
    66  O   -0.548452
    67  C   -0.072040
    68  H    0.091812
    69  C   -0.312085
    70  H    0.112257
    71  H    0.089451
    72  H    0.111207
    73  C   -0.310008
    74  H    0.103020
    75  H    0.104957
    76  H    0.103139
    77  N   -0.551282
    78  H    0.286936
    79  C   -0.001405
    80  H    0.125896
    81  C    0.605090
    82  C   -0.188585
    83  H    0.148168
    84  H    0.153046
    85  O   -0.566571
    86  C   -0.300915
    87  H    0.190865
    88  H    0.126217
    89  C    0.582750
    90  O   -0.469861
    91  O   -0.477514
    92  N   -0.510766
    93  H    0.280711
    94  C   -0.047803
    95  H    0.183651
    96  C    0.601743
    97  C   -0.224690
    98  H    0.152025
    99  H    0.099036
   100  O   -0.550026
   101  C    0.543228
   102  N   -0.574206
   103  H    0.307090
   104  H    0.267349
   105  O   -0.520190
   106  N   -0.502806
   107  H    0.296109
   108  C   -0.026973
   109  H    0.148838
   110  C    0.611741
   111  C   -0.258124
   112  H    0.119272
   113  H    0.122055
   114  O   -0.568213
   115  C    0.120096
   116  C   -0.125404
   117  H    0.083776
   118  C   -0.144802
   119  H    0.097081
   120  C   -0.124236
   121  H    0.118164
   122  C   -0.114288
   123  H    0.096271
   124  O   -0.594463
   125  H    0.331871
   126  C    0.315594
   127  N   -0.528125
   128  H    0.281209
   129  C    0.011121
   130  H    0.125413
   131  C    0.581448
   132  C   -0.179810
   133  H    0.125869
   134  H    0.095982
   135  O   -0.648493
   136  C   -0.219984
   137  H    0.130406
   138  H    0.112055
   139  C   -0.060437
   140  H    0.121155
   141  H    0.113186
   142  N   -0.530188
   143  H    0.339690
   144  N   -0.620647
   145  H    0.292684
   146  H    0.298950
   147  N   -0.611945
   148  H    0.278059
   149  H    0.338139
   150  C    0.742787
   151  O   -0.558639
   152  H    0.324241
 Sum of Mulliken charges =   1.00000

 Dipole moment (field-independent basis, Debye):
    X=            -18.8348    Y=              4.8948    Z=             21.9138  Tot=             29.3074
 Quadrupole moment (field-independent basis, Debye-Ang):
   XX=            260.8333   YY=           -398.7070   ZZ=           -220.9072
   XY=            144.4016   XZ=           -344.6740   YZ=            -90.4615

 Normal termination of Gaussian 16 at Thu Sep  8 08:45:59 2022.
