 Gaussian 16, Revision C.01,
 Gaussian 16:  ES64L-G16RevC.01  3-Jul-2019

 ----------------------------------------------------------------------
 # B3LYP/6-31G** empiricaldispersion=gd3bj guess=read geom=check nosymm
  integral(ultrafinegrid)
 ----------------------------------------------------------------------

 ------------------------------------------------------
 Candidate Structure: Conf:433 Charge calc in gas phase
 ------------------------------------------------------
 Structure from the checkpoint file:  "conf-433.chk"
 Charge =  1 Multiplicity = 1

                          Input orientation:
 ---------------------------------------------------------------------
 Center     Atomic      Atomic             Coordinates (Angstroms)
 Number     Number       Type             X           Y           Z
 ---------------------------------------------------------------------
      1          7           0      -10.795029    1.162342    8.267570
      2          1           0      -11.734675    1.542537    8.150793
      3          1           0      -10.691471    0.240020    7.708606
      4          1           0      -10.614486    1.034938    9.263507
      5          6           0       -9.723968    1.982097    7.580278
      6          1           0      -10.164791    2.928824    7.257886
      7          6           0       -9.399379    1.073140    6.362093
      8          6           0       -8.532905    2.248217    8.532548
      9          1           0       -8.077116    1.277800    8.768804
     10          8           0       -9.855655   -0.086402    6.397018
     11          6           0       -7.466458    3.121925    7.856253
     12          1           0       -7.905025    4.050867    7.472182
     13          1           0       -6.712571    3.400366    8.594935
     14          1           0       -6.935655    2.612965    7.051853
     15          6           0       -9.007862    2.921909    9.830285
     16          1           0       -9.486291    3.885029    9.622401
     17          1           0       -9.706006    2.320179   10.425713
     18          1           0       -8.147946    3.111798   10.476279
     19          7           0       -8.690946    1.587124    5.371421
     20          1           0       -8.198734    2.470983    5.491649
     21          6           0       -8.110832    0.782111    4.294333
     22          1           0       -8.184053   -0.267351    4.588872
     23          6           0       -6.636071    1.219963    4.263710
     24          6           0       -8.860595    0.991552    2.952961
     25          1           0       -9.914118    0.784112    3.185566
     26          8           0       -6.305918    2.298354    4.769219
     27          6           0       -8.410613   -0.034219    1.895146
     28          1           0       -8.372816   -1.029595    2.359252
     29          1           0       -7.392817    0.193194    1.558285
     30          6           0       -8.742503    2.437603    2.459843
     31          1           0       -7.708093    2.683956    2.200433
     32          1           0       -9.076707    3.151951    3.218225
     33          1           0       -9.358148    2.594489    1.572017
     34          6           0       -9.337305   -0.099133    0.678367
     35          1           0       -9.009754   -0.882382   -0.010176
     36          1           0      -10.367342   -0.323083    0.975899
     37          1           0       -9.344618    0.842481    0.122449
     38          7           0       -5.784196    0.363310    3.687748
     39          1           0       -6.106003   -0.435871    3.152277
     40          6           0       -4.357878    0.594943    3.611411
     41          1           0       -4.179301    1.668198    3.707382
     42          6           0       -3.901095    0.058654    2.248214
     43          6           0       -3.608708   -0.172150    4.739826
     44          1           0       -2.548400    0.095775    4.697063
     45          1           0       -3.676824   -1.241883    4.514375
     46          8           0       -4.602899   -0.756366    1.644046
     47          6           0       -4.179437    0.097592    6.110062
     48          6           0       -3.703351    1.152934    6.896048
     49          1           0       -2.896690    1.776303    6.521004
     50          6           0       -5.221729   -0.693347    6.609887
     51          1           0       -5.591697   -1.523648    6.015548
     52          6           0       -4.240109    1.401380    8.158035
     53          1           0       -3.843314    2.211321    8.762244
     54          6           0       -5.768549   -0.444730    7.869229
     55          1           0       -6.557950   -1.087491    8.249070
     56          6           0       -5.271735    0.599652    8.650836
     57          1           0       -5.668818    0.775619    9.646672
     58          7           0       -2.703490    0.508285    1.836807
     59          1           0       -2.117447    1.022504    2.489638
     60          6           0       -1.924480   -0.122444    0.782704
     61          1           0       -2.368293   -1.099654    0.572015
     62          6           0       -0.506179   -0.286639    1.357012
     63          6           0       -1.860105    0.732730   -0.500624
     64          1           0       -1.242192    0.204332   -1.238033
     65          1           0       -1.313375    1.652963   -0.268922
     66          8           0       -0.184241    0.263933    2.407935
     67          6           0       -3.217162    1.063762   -1.136963
     68          1           0       -3.829511    1.572204   -0.380031
     69          6           0       -3.001083    2.037570   -2.302774
     70          1           0       -2.418135    1.557607   -3.100423
     71          1           0       -2.469450    2.939668   -1.980660
     72          1           0       -3.952755    2.347786   -2.745337
     73          6           0       -3.968369   -0.188661   -1.603845
     74          1           0       -3.360772   -0.760853   -2.315938
     75          1           0       -4.898168    0.086613   -2.112701
     76          1           0       -4.230876   -0.836385   -0.764581
     77          7           0        0.335688   -1.040376    0.604043
     78          1           0        0.037221   -1.244945   -0.344750
     79          6           0        1.777732   -0.832291    0.679761
     80          1           0        1.954733   -0.107326    1.477592
     81          6           0        2.182954   -0.230506   -0.672274
     82          6           0        2.553839   -2.123036    0.984984
     83          1           0        2.262811   -2.472463    1.979402
     84          1           0        3.623062   -1.894675    1.035665
     85          8           0        1.525801   -0.463896   -1.691319
     86          6           0        2.314902   -3.229326   -0.040029
     87          1           0        1.259060   -3.521567   -0.066530
     88          1           0        2.554597   -2.901019   -1.057827
     89          6           0        3.132004   -4.463625    0.259997
     90          8           0        3.921715   -4.584663    1.170193
     91          8           0        2.880179   -5.451956   -0.630199
     92          7           0        3.293810    0.531352   -0.672585
     93          1           0        3.800089    0.744974    0.178090
     94          6           0        3.688732    1.294490   -1.835457
     95          1           0        3.431829    0.710926   -2.722980
     96          6           0        5.200006    1.526754   -1.730430
     97          6           0        2.979702    2.677353   -1.885912
     98          1           0        3.348714    3.280162   -1.052906
     99          1           0        3.245166    3.179412   -2.822083
    100          8           0        5.739141    1.617285   -0.625869
    101          6           0        1.466866    2.570142   -1.717042
    102          7           0        0.744141    2.526976   -2.872049
    103          1           0       -0.231421    2.278678   -2.790699
    104          1           0        1.195923    2.320163   -3.749179
    105          8           0        0.949470    2.546207   -0.605921
    106          7           0        5.849194    1.669493   -2.898899
    107          1           0        5.390920    1.606907   -3.802483
    108          6           0        7.264293    1.972395   -2.962487
    109          1           0        7.489247    2.756000   -2.230799
    110          6           0        7.523583    2.472472   -4.389886
    111          6           0        8.137319    0.729713   -2.613735
    112          1           0        7.616332    0.210844   -1.805129
    113          1           0        8.164812    0.057408   -3.476869
    114          8           0        6.674185    2.311106   -5.268508
    115          6           0        9.526515    1.104477   -2.164713
    116          6           0       10.649577    0.915635   -2.976928
    117          1           0       10.537119    0.453955   -3.953237
    118          6           0        9.704130    1.704349   -0.911254
    119          1           0        8.841616    1.848559   -0.265429
    120          6           0       11.914879    1.325501   -2.566589
    121          1           0       12.778275    1.198630   -3.209025
    122          6           0       10.962056    2.118994   -0.487119
    123          1           0       11.084033    2.589578    0.485955
    124          8           0       13.322476    2.376986   -0.983684
    125          1           0       13.312161    2.678351   -0.065732
    126          6           0       12.069414    1.939806   -1.322619
    127          7           0        8.718789    3.074822   -4.593252
    128          1           0        9.382422    3.159369   -3.820731
    129          6           0        9.190344    3.388769   -5.944366
    130          1           0        8.457328    2.955827   -6.623219
    131          6           0       10.529363    2.686752   -6.219928
    132          6           0        9.340211    4.899125   -6.254744
    133          1           0       10.274696    5.267803   -5.821148
    134          1           0        9.469639    4.970111   -7.338812
    135          8           0       10.708207    1.998304   -7.195816
    136          6           0        8.164640    5.783622   -5.792812
    137          1           0        7.829420    6.430146   -6.610890
    138          1           0        7.304187    5.157041   -5.530350
    139          6           0        8.527942    6.682139   -4.599789
    140          1           0        9.307373    7.391615   -4.889128
    141          1           0        7.654762    7.264039   -4.285528
    142          7           0        9.025389    5.904414   -3.455818
    143          1           0        8.516281    5.037916   -3.338435
    144          7           0       11.136417    6.829402   -3.212909
    145          1           0       12.121650    6.726957   -3.025168
    146          1           0       10.708063    7.678902   -2.875451
    147          7           0       10.809648    4.473590   -3.078482
    148          1           0       11.740543    4.442525   -2.665942
    149          1           0       11.213585    3.473141   -4.564549
    150          6           0       10.370702    5.689962   -3.233595
    151          8           0       11.513161    2.925068   -5.334933
    152          1           0        3.446640   -6.199561   -0.374343
 ---------------------------------------------------------------------

 SCF Done:  E(RB3LYP) =  -3587.10712723     A.U. after    3 cycles

 Alpha  occ. eigenvalues --  -19.26800 -19.23484 -19.21625 -19.21197 -19.20455
 Alpha  occ. eigenvalues --  -19.19299 -19.18102 -19.17936 -19.17552 -19.17382
 Alpha  occ. eigenvalues --  -19.17149 -19.16530 -19.15372 -14.58354 -14.48929
 Alpha  occ. eigenvalues --  -14.44828 -14.42667 -14.41748 -14.41690 -14.41451
 Alpha  occ. eigenvalues --  -14.41276 -14.40837 -14.40725 -14.40296 -14.35564
 Alpha  occ. eigenvalues --  -10.43218 -10.39839 -10.38230 -10.36168 -10.36116
 Alpha  occ. eigenvalues --  -10.35340 -10.34758 -10.34477 -10.34464 -10.34276
 Alpha  occ. eigenvalues --  -10.34119 -10.33898 -10.33626 -10.33400 -10.31428
 Alpha  occ. eigenvalues --  -10.30765 -10.29919 -10.29205 -10.28646 -10.28576
 Alpha  occ. eigenvalues --  -10.28575 -10.28474 -10.28457 -10.27535 -10.27330
 Alpha  occ. eigenvalues --  -10.27311 -10.27173 -10.26998 -10.26882 -10.26619
 Alpha  occ. eigenvalues --  -10.26581 -10.26356 -10.26240 -10.25726 -10.25636
 Alpha  occ. eigenvalues --  -10.24595 -10.24545 -10.24237 -10.23938 -10.23793
 Alpha  occ. eigenvalues --  -10.23702 -10.23584 -10.23493 -10.22730 -10.22703
 Alpha  occ. eigenvalues --  -10.22700 -10.22642 -10.22407 -10.21767 -10.21505
 Alpha  occ. eigenvalues --   -1.19262  -1.14445  -1.13449  -1.12480  -1.11519
 Alpha  occ. eigenvalues --   -1.11166  -1.10223  -1.09718  -1.09603  -1.09225
 Alpha  occ. eigenvalues --   -1.08631  -1.08163  -1.05824  -1.05447  -1.04361
 Alpha  occ. eigenvalues --   -1.03351  -1.01787  -0.99615  -0.98722  -0.98284
 Alpha  occ. eigenvalues --   -0.98170  -0.97502  -0.95545  -0.95022  -0.94517
 Alpha  occ. eigenvalues --   -0.93289  -0.90860  -0.90748  -0.89148  -0.87497
 Alpha  occ. eigenvalues --   -0.86386  -0.86083  -0.85693  -0.84827  -0.83932
 Alpha  occ. eigenvalues --   -0.83024  -0.82365  -0.82064  -0.81901  -0.80626
 Alpha  occ. eigenvalues --   -0.80307  -0.79015  -0.78943  -0.78320  -0.77789
 Alpha  occ. eigenvalues --   -0.77107  -0.74198  -0.73934  -0.73769  -0.73620
 Alpha  occ. eigenvalues --   -0.73064  -0.72491  -0.71932  -0.71436  -0.70420
 Alpha  occ. eigenvalues --   -0.70031  -0.69168  -0.69048  -0.68250  -0.67483
 Alpha  occ. eigenvalues --   -0.66943  -0.66718  -0.66152  -0.65801  -0.65373
 Alpha  occ. eigenvalues --   -0.65129  -0.64938  -0.64709  -0.64356  -0.64085
 Alpha  occ. eigenvalues --   -0.63906  -0.63801  -0.62864  -0.62782  -0.62395
 Alpha  occ. eigenvalues --   -0.61985  -0.61801  -0.60813  -0.60268  -0.59859
 Alpha  occ. eigenvalues --   -0.58850  -0.58802  -0.58780  -0.58402  -0.57848
 Alpha  occ. eigenvalues --   -0.57627  -0.57403  -0.56692  -0.56631  -0.55976
 Alpha  occ. eigenvalues --   -0.55342  -0.55067  -0.54644  -0.54577  -0.54307
 Alpha  occ. eigenvalues --   -0.54074  -0.54027  -0.53576  -0.53508  -0.53328
 Alpha  occ. eigenvalues --   -0.53080  -0.52716  -0.52666  -0.52446  -0.52248
 Alpha  occ. eigenvalues --   -0.52004  -0.51937  -0.51680  -0.51537  -0.51450
 Alpha  occ. eigenvalues --   -0.51148  -0.51105  -0.50676  -0.50590  -0.50227
 Alpha  occ. eigenvalues --   -0.50189  -0.49817  -0.49698  -0.49609  -0.49550
 Alpha  occ. eigenvalues --   -0.49176  -0.49032  -0.48569  -0.48382  -0.48299
 Alpha  occ. eigenvalues --   -0.47966  -0.47641  -0.47469  -0.47326  -0.47282
 Alpha  occ. eigenvalues --   -0.46879  -0.46670  -0.46553  -0.46243  -0.46085
 Alpha  occ. eigenvalues --   -0.46027  -0.45958  -0.45900  -0.45748  -0.45447
 Alpha  occ. eigenvalues --   -0.45368  -0.45110  -0.45083  -0.44849  -0.44780
 Alpha  occ. eigenvalues --   -0.44537  -0.44393  -0.44239  -0.44080  -0.43880
 Alpha  occ. eigenvalues --   -0.43831  -0.43699  -0.43461  -0.43180  -0.43008
 Alpha  occ. eigenvalues --   -0.42953  -0.42697  -0.42592  -0.42537  -0.41925
 Alpha  occ. eigenvalues --   -0.41731  -0.41639  -0.41455  -0.41359  -0.41241
 Alpha  occ. eigenvalues --   -0.40847  -0.40735  -0.40449  -0.40419  -0.40111
 Alpha  occ. eigenvalues --   -0.40007  -0.39719  -0.39625  -0.39373  -0.39005
 Alpha  occ. eigenvalues --   -0.38519  -0.38072  -0.37979  -0.37534  -0.37344
 Alpha  occ. eigenvalues --   -0.37242  -0.36514  -0.35814  -0.35455  -0.34876
 Alpha  occ. eigenvalues --   -0.33597  -0.33412  -0.33223  -0.32976  -0.32859
 Alpha  occ. eigenvalues --   -0.32662  -0.32652  -0.32589  -0.32087  -0.32010
 Alpha  occ. eigenvalues --   -0.31755  -0.31658  -0.31501  -0.31369  -0.31136
 Alpha  occ. eigenvalues --   -0.30782  -0.30366  -0.29508  -0.29417  -0.28527
 Alpha  occ. eigenvalues --   -0.27874  -0.25442
 Alpha virt. eigenvalues --   -0.12096  -0.10245  -0.08420  -0.08061  -0.07090
 Alpha virt. eigenvalues --   -0.05699  -0.04858  -0.04710  -0.04281  -0.03982
 Alpha virt. eigenvalues --   -0.03558  -0.03498  -0.03368  -0.02934  -0.02576

 Mulliken charges:
               1
     1  N   -0.563945
     2  H    0.347003
     3  H    0.376859
     4  H    0.337890
     5  C   -0.076380
     6  H    0.165637
     7  C    0.637009
     8  C   -0.082239
     9  H    0.124150
    10  O   -0.548771
    11  C   -0.348623
    12  H    0.110796
    13  H    0.134906
    14  H    0.173517
    15  C   -0.335844
    16  H    0.133259
    17  H    0.090827
    18  H    0.155742
    19  N   -0.503841
    20  H    0.304974
    21  C   -0.058268
    22  H    0.149618
    23  C    0.639677
    24  C   -0.033672
    25  H    0.103025
    26  O   -0.555461
    27  C   -0.204558
    28  H    0.097194
    29  H    0.126116
    30  C   -0.330406
    31  H    0.127275
    32  H    0.095637
    33  H    0.126446
    34  C   -0.327543
    35  H    0.124613
    36  H    0.108656
    37  H    0.116474
    38  N   -0.519549
    39  H    0.290238
    40  C   -0.029693
    41  H    0.151605
    42  C    0.606957
    43  C   -0.253454
    44  H    0.138969
    45  H    0.123986
    46  O   -0.543050
    47  C    0.130588
    48  C   -0.101397
    49  H    0.098229
    50  C   -0.126124
    51  H    0.086397
    52  C   -0.088116
    53  H    0.098090
    54  C   -0.098331
    55  H    0.083303
    56  C   -0.095526
    57  H    0.080831
    58  N   -0.503116
    59  H    0.287183
    60  C   -0.060161
    61  H    0.143821
    62  C    0.612677
    63  C   -0.176730
    64  H    0.103944
    65  H    0.136491
    66  O   -0.535389
    67  C   -0.053023
    68  H    0.088613
    69  C   -0.325501
    70  H    0.095830
    71  H    0.110465
    72  H    0.105766
    73  C   -0.330472
    74  H    0.094894
    75  H    0.096667
    76  H    0.133854
    77  N   -0.511272
    78  H    0.283285
    79  C   -0.066921
    80  H    0.150294
    81  C    0.647805
    82  C   -0.156978
    83  H    0.132670
    84  H    0.125095
    85  O   -0.571675
    86  C   -0.274023
    87  H    0.140547
    88  H    0.154114
    89  C    0.571374
    90  O   -0.460897
    91  O   -0.485602
    92  N   -0.517801
    93  H    0.286284
    94  C   -0.018669
    95  H    0.138275
    96  C    0.612706
    97  C   -0.240099
    98  H    0.147360
    99  H    0.114142
   100  O   -0.547300
   101  C    0.581273
   102  N   -0.600759
   103  H    0.286820
   104  H    0.272313
   105  O   -0.516516
   106  N   -0.540803
   107  H    0.283643
   108  C   -0.000531
   109  H    0.134728
   110  C    0.596128
   111  C   -0.239428
   112  H    0.140811
   113  H    0.114781
   114  O   -0.547102
   115  C    0.088121
   116  C   -0.142771
   117  H    0.105258
   118  C   -0.127832
   119  H    0.107941
   120  C   -0.098209
   121  H    0.115547
   122  C   -0.124438
   123  H    0.076077
   124  O   -0.566197
   125  H    0.317251
   126  C    0.320499
   127  N   -0.569334
   128  H    0.312365
   129  C   -0.033409
   130  H    0.165448
   131  C    0.585357
   132  C   -0.201191
   133  H    0.110408
   134  H    0.132405
   135  O   -0.448884
   136  C   -0.201357
   137  H    0.113476
   138  H    0.121012
   139  C   -0.075369
   140  H    0.125558
   141  H    0.113762
   142  N   -0.499567
   143  H    0.263060
   144  N   -0.601271
   145  H    0.279529
   146  H    0.282538
   147  N   -0.686158
   148  H    0.238682
   149  H    0.356249
   150  C    0.619448
   151  O   -0.515461
   152  H    0.325876
 Sum of Mulliken charges =   1.00000

 Dipole moment (field-independent basis, Debye):
    X=            -32.2112    Y=             15.7893    Z=             28.6733  Tot=             45.9241
 Quadrupole moment (field-independent basis, Debye-Ang):
   XX=             19.1940   YY=           -349.6722   ZZ=           -211.5589
   XY=             33.7706   XZ=           -275.6957   YZ=             28.2522

 Normal termination of Gaussian 16 at Thu Sep  8 08:46:36 2022.
