 Gaussian 16, Revision C.01,
 Gaussian 16:  ES64L-G16RevC.01  3-Jul-2019

 ----------------------------------------------------------------------
 # B3LYP/6-31G** empiricaldispersion=gd3bj guess=read geom=check nosymm
  integral(ultrafinegrid)
 ----------------------------------------------------------------------

 ------------------------------------------------------
 Candidate Structure: Conf:156 Charge calc in gas phase
 ------------------------------------------------------
 Structure from the checkpoint file:  "conf-156.chk"
 Charge =  1 Multiplicity = 1

                          Input orientation:
 ---------------------------------------------------------------------
 Center     Atomic      Atomic             Coordinates (Angstroms)
 Number     Number       Type             X           Y           Z
 ---------------------------------------------------------------------
      1          7           0      -11.702426    1.597406    4.880395
      2          1           0      -12.488989    2.121472    4.494137
      3          1           0      -11.513980    0.725159    4.282978
      4          1           0      -11.910805    1.349188    5.849064
      5          6           0      -10.376039    2.311483    4.733400
      6          1           0      -10.568536    3.345360    4.439641
      7          6           0       -9.710104    1.500121    3.597310
      8          6           0       -9.586456    2.258379    6.067116
      9          1           0      -10.290906    2.621682    6.830024
     10          8           0      -10.233317    0.413197    3.300238
     11          6           0       -9.147220    0.832300    6.425497
     12          1           0       -8.412123    0.444369    5.715242
     13          1           0       -8.673341    0.825332    7.408246
     14          1           0       -9.975513    0.116051    6.462756
     15          6           0       -8.393567    3.224811    6.060410
     16          1           0       -7.569107    2.865772    5.438216
     17          1           0       -8.681412    4.228134    5.728925
     18          1           0       -8.005476    3.317437    7.077561
     19          7           0       -8.609994    2.003421    3.049944
     20          1           0       -8.193409    2.841018    3.443229
     21          6           0       -7.663677    1.192284    2.276283
     22          1           0       -8.080184    0.184635    2.221198
     23          6           0       -6.380489    1.209970    3.113252
     24          6           0       -7.445217    1.734719    0.839764
     25          1           0       -8.412835    1.608720    0.335458
     26          8           0       -6.019502    2.260855    3.661256
     27          6           0       -6.407196    0.862111    0.107467
     28          1           0       -6.667402   -0.196238    0.251260
     29          1           0       -5.422309    1.005165    0.567639
     30          6           0       -7.080954    3.223576    0.820661
     31          1           0       -6.134359    3.413306    1.331771
     32          1           0       -7.853976    3.833322    1.298608
     33          1           0       -6.988891    3.577147   -0.207742
     34          6           0       -6.310204    1.143670   -1.393098
     35          1           0       -5.610906    0.450521   -1.867285
     36          1           0       -7.283062    1.028522   -1.882549
     37          1           0       -5.947525    2.154987   -1.593574
     38          7           0       -5.714807    0.050371    3.220204
     39          1           0       -6.030337   -0.751214    2.692219
     40          6           0       -4.434687   -0.055015    3.924944
     41          1           0       -4.447390    0.735916    4.679685
     42          6           0       -3.303127    0.221369    2.915611
     43          6           0       -4.305452   -1.424979    4.595081
     44          1           0       -3.331084   -1.461113    5.089871
     45          1           0       -4.278215   -2.197813    3.820804
     46          8           0       -2.577027   -0.676656    2.493646
     47          6           0       -5.424265   -1.669584    5.579971
     48          6           0       -5.382311   -1.097909    6.858088
     49          1           0       -4.517319   -0.508757    7.151443
     50          6           0       -6.541787   -2.434391    5.226206
     51          1           0       -6.580531   -2.903477    4.246136
     52          6           0       -6.423668   -1.295555    7.763572
     53          1           0       -6.362493   -0.864171    8.758154
     54          6           0       -7.589594   -2.631853    6.126803
     55          1           0       -8.439058   -3.244197    5.839970
     56          6           0       -7.531181   -2.065287    7.400443
     57          1           0       -8.333320   -2.236584    8.111768
     58          7           0       -3.247263    1.506247    2.496100
     59          1           0       -3.848866    2.195093    2.932167
     60          6           0       -2.362330    1.919572    1.405599
     61          1           0       -2.300173    1.067925    0.723966
     62          6           0       -0.941043    2.189774    1.938799
     63          6           0       -2.908512    3.140004    0.671735
     64          1           0       -2.842609    4.001108    1.346354
     65          1           0       -3.969622    2.971009    0.446278
     66          8           0       -0.515506    3.322987    2.139704
     67          6           0       -2.147402    3.449706   -0.632010
     68          1           0       -1.077523    3.425608   -0.415004
     69          6           0       -2.393066    2.399490   -1.719713
     70          1           0       -3.454323    2.353305   -1.996773
     71          1           0       -2.070918    1.401643   -1.408230
     72          1           0       -1.817892    2.653221   -2.613887
     73          6           0       -2.492812    4.852747   -1.138349
     74          1           0       -3.542002    4.914770   -1.455321
     75          1           0       -1.851698    5.113211   -1.983185
     76          1           0       -2.337222    5.607147   -0.358258
     77          7           0       -0.198511    1.067146    2.154560
     78          1           0       -0.625233    0.201917    1.842687
     79          6           0        1.243998    1.165207    2.023273
     80          1           0        1.609287    1.901030    2.746561
     81          6           0        1.553084    1.677608    0.595249
     82          6           0        1.896895   -0.197847    2.273403
     83          1           0        2.979140   -0.113515    2.139035
     84          1           0        1.554921   -0.908934    1.513331
     85          8           0        0.728489    1.578470   -0.307403
     86          6           0        1.587506   -0.742692    3.666255
     87          1           0        1.951828   -0.067341    4.449535
     88          1           0        0.506390   -0.824824    3.826618
     89          6           0        2.198883   -2.105096    3.894302
     90          8           0        2.820777   -2.746462    3.077731
     91          8           0        1.962344   -2.549626    5.152492
     92          7           0        2.764405    2.263256    0.436533
     93          1           0        3.511535    2.141473    1.114994
     94          6           0        3.234084    2.686479   -0.870745
     95          1           0        2.680997    2.129649   -1.632646
     96          6           0        4.734628    2.361146   -0.919014
     97          6           0        3.015469    4.202493   -1.105102
     98          1           0        3.619564    4.759030   -0.380541
     99          1           0        3.351675    4.462620   -2.110701
    100          8           0        5.360624    2.146235    0.123317
    101          6           0        1.542305    4.597266   -0.999702
    102          7           0        1.134641    4.927408    0.263096
    103          1           0        0.138289    4.946688    0.430631
    104          1           0        1.669195    4.578881    1.044943
    105          8           0        0.809118    4.635984   -1.978733
    106          7           0        5.291821    2.373589   -2.140101
    107          1           0        4.757200    2.534141   -2.988679
    108          6           0        6.705601    2.137497   -2.365924
    109          1           0        7.279203    2.684700   -1.611881
    110          6           0        7.002132    2.699197   -3.768814
    111          6           0        7.055003    0.623326   -2.232773
    112          1           0        6.798287    0.335954   -1.208964
    113          1           0        6.411003    0.062707   -2.917159
    114          8           0        6.089314    2.804917   -4.592986
    115          6           0        8.508341    0.397106   -2.550209
    116          6           0        8.894861   -0.098473   -3.799199
    117          1           0        8.140313   -0.503280   -4.468251
    118          6           0        9.498289    0.909906   -1.699462
    119          1           0        9.221223    1.268386   -0.710709
    120          6           0       10.210826    0.017545   -4.240810
    121          1           0       10.491979   -0.278206   -5.244483
    122          6           0       10.813479    1.044155   -2.138830
    123          1           0       11.570127    1.509016   -1.515522
    124          8           0       12.377852    1.016793   -3.963256
    125          1           0       12.186491    1.911726   -4.334014
    126          6           0       11.156176    0.660898   -3.439703
    127          7           0        8.277303    3.063507   -4.016551
    128          1           0        9.003602    2.874055   -3.335996
    129          6           0        8.729979    3.437336   -5.355765
    130          1           0        8.057674    2.972210   -6.078430
    131          6           0       10.155879    2.895546   -5.552854
    132          6           0        8.685032    4.972893   -5.506711
    133          1           0        7.666977    5.274961   -5.242627
    134          1           0        9.356737    5.403107   -4.755147
    135          8           0       10.368741    2.207735   -6.601946
    136          6           0        9.005862    5.555649   -6.898360
    137          1           0        8.570458    4.928882   -7.687636
    138          1           0        8.500293    6.523570   -6.980841
    139          6           0       10.483025    5.829238   -7.229119
    140          1           0       10.535726    6.543548   -8.059679
    141          1           0       10.968771    6.285634   -6.358081
    142          7           0       11.203975    4.606626   -7.596817
    143          1           0       10.632295    3.763641   -7.692948
    144          7           0       13.343851    5.312607   -7.002391
    145          1           0       14.175606    5.128432   -6.465746
    146          1           0       13.067163    6.273539   -7.114987
    147          7           0       12.822302    3.039816   -7.167788
    148          1           0       13.763187    2.805248   -6.891561
    149          1           0       12.028088    2.394732   -6.924431
    150          6           0       12.458875    4.320357   -7.231623
    151          8           0       11.010890    3.246243   -4.701826
    152          1           0        2.387604   -3.421820    5.214584
 ---------------------------------------------------------------------

 SCF Done:  E(RB3LYP) =  -3587.11273663     A.U. after    1 cycles

 Alpha  occ. eigenvalues --  -19.28128 -19.23839 -19.23406 -19.19879 -19.18241
 Alpha  occ. eigenvalues --  -19.17224 -19.16123 -19.15802 -19.14954 -19.14647
 Alpha  occ. eigenvalues --  -19.13885 -19.13429 -19.13206 -14.60135 -14.50768
 Alpha  occ. eigenvalues --  -14.47830 -14.44722 -14.43725 -14.42474 -14.41180
 Alpha  occ. eigenvalues --  -14.40244 -14.40238 -14.39606 -14.38533 -14.37472
 Alpha  occ. eigenvalues --  -10.44645 -10.41109 -10.40312 -10.39252 -10.36743
 Alpha  occ. eigenvalues --  -10.36413 -10.35182 -10.34905 -10.33751 -10.33065
 Alpha  occ. eigenvalues --  -10.32794 -10.32780 -10.31680 -10.31478 -10.30836
 Alpha  occ. eigenvalues --  -10.30389 -10.30058 -10.29682 -10.28967 -10.28833
 Alpha  occ. eigenvalues --  -10.28333 -10.28144 -10.27808 -10.27745 -10.27427
 Alpha  occ. eigenvalues --  -10.27350 -10.27342 -10.27312 -10.27257 -10.27147
 Alpha  occ. eigenvalues --  -10.26665 -10.26401 -10.25069 -10.25033 -10.24882
 Alpha  occ. eigenvalues --  -10.24830 -10.24640 -10.24282 -10.23567 -10.23305
 Alpha  occ. eigenvalues --  -10.22315 -10.22039 -10.21801 -10.21001 -10.20704
 Alpha  occ. eigenvalues --  -10.20432 -10.20402 -10.20212 -10.20089 -10.19602
 Alpha  occ. eigenvalues --   -1.20630  -1.15465  -1.14760  -1.14172  -1.11628
 Alpha  occ. eigenvalues --   -1.09310  -1.08491  -1.08165  -1.07550  -1.07441
 Alpha  occ. eigenvalues --   -1.06719  -1.06162  -1.05776  -1.05493  -1.04156
 Alpha  occ. eigenvalues --   -1.03458  -1.00036  -0.98131  -0.97522  -0.97398
 Alpha  occ. eigenvalues --   -0.96982  -0.96300  -0.95847  -0.95750  -0.94952
 Alpha  occ. eigenvalues --   -0.94046  -0.92590  -0.91944  -0.88307  -0.87087
 Alpha  occ. eigenvalues --   -0.86999  -0.86142  -0.85263  -0.84231  -0.83921
 Alpha  occ. eigenvalues --   -0.82839  -0.82733  -0.82245  -0.81585  -0.80690
 Alpha  occ. eigenvalues --   -0.80172  -0.79627  -0.78117  -0.77684  -0.76109
 Alpha  occ. eigenvalues --   -0.75903  -0.74992  -0.74911  -0.74338  -0.73827
 Alpha  occ. eigenvalues --   -0.72233  -0.71979  -0.71485  -0.71435  -0.70735
 Alpha  occ. eigenvalues --   -0.70401  -0.69961  -0.69290  -0.68857  -0.68513
 Alpha  occ. eigenvalues --   -0.67938  -0.67308  -0.66713  -0.66515  -0.65554
 Alpha  occ. eigenvalues --   -0.65501  -0.64186  -0.63564  -0.63209  -0.63141
 Alpha  occ. eigenvalues --   -0.62974  -0.62698  -0.62170  -0.62012  -0.61719
 Alpha  occ. eigenvalues --   -0.61119  -0.60901  -0.60747  -0.59904  -0.59800
 Alpha  occ. eigenvalues --   -0.59670  -0.59299  -0.58964  -0.58864  -0.58153
 Alpha  occ. eigenvalues --   -0.57027  -0.56863  -0.56717  -0.56658  -0.56389
 Alpha  occ. eigenvalues --   -0.55515  -0.55279  -0.55055  -0.54806  -0.54570
 Alpha  occ. eigenvalues --   -0.54297  -0.53859  -0.53784  -0.53632  -0.53267
 Alpha  occ. eigenvalues --   -0.53148  -0.53014  -0.52642  -0.52458  -0.52167
 Alpha  occ. eigenvalues --   -0.52139  -0.51789  -0.51384  -0.51290  -0.51119
 Alpha  occ. eigenvalues --   -0.50892  -0.50506  -0.50413  -0.50189  -0.50115
 Alpha  occ. eigenvalues --   -0.49836  -0.49513  -0.49324  -0.49145  -0.48894
 Alpha  occ. eigenvalues --   -0.48646  -0.48313  -0.48274  -0.48174  -0.47773
 Alpha  occ. eigenvalues --   -0.47668  -0.47592  -0.47474  -0.47243  -0.47134
 Alpha  occ. eigenvalues --   -0.46682  -0.46588  -0.46561  -0.46367  -0.46331
 Alpha  occ. eigenvalues --   -0.46080  -0.45947  -0.45872  -0.45696  -0.45310
 Alpha  occ. eigenvalues --   -0.44961  -0.44899  -0.44232  -0.44225  -0.43974
 Alpha  occ. eigenvalues --   -0.43850  -0.43758  -0.43656  -0.43449  -0.43260
 Alpha  occ. eigenvalues --   -0.43041  -0.42881  -0.42708  -0.42588  -0.42278
 Alpha  occ. eigenvalues --   -0.42199  -0.42140  -0.41867  -0.41796  -0.41625
 Alpha  occ. eigenvalues --   -0.41543  -0.41475  -0.41305  -0.41100  -0.40759
 Alpha  occ. eigenvalues --   -0.40547  -0.40151  -0.40062  -0.40027  -0.39755
 Alpha  occ. eigenvalues --   -0.39660  -0.39179  -0.38486  -0.38201  -0.38024
 Alpha  occ. eigenvalues --   -0.37909  -0.36972  -0.36895  -0.36693  -0.36141
 Alpha  occ. eigenvalues --   -0.36127  -0.35979  -0.35573  -0.35147  -0.34899
 Alpha  occ. eigenvalues --   -0.34594  -0.33517  -0.33186  -0.32364  -0.32138
 Alpha  occ. eigenvalues --   -0.32113  -0.31521  -0.30882  -0.30418  -0.30092
 Alpha  occ. eigenvalues --   -0.29807  -0.29528  -0.29347  -0.29253  -0.29046
 Alpha  occ. eigenvalues --   -0.28705  -0.28608  -0.27362  -0.27143  -0.26666
 Alpha  occ. eigenvalues --   -0.26352  -0.24067
 Alpha virt. eigenvalues --   -0.13544  -0.11455  -0.10024  -0.08668  -0.08612
 Alpha virt. eigenvalues --   -0.07178  -0.06099  -0.05420  -0.04258  -0.04190
 Alpha virt. eigenvalues --   -0.03361  -0.03231  -0.02808  -0.02163  -0.01961

 Mulliken charges:
               1
     1  N   -0.557122
     2  H    0.352550
     3  H    0.375840
     4  H    0.345322
     5  C   -0.084291
     6  H    0.171147
     7  C    0.645319
     8  C   -0.091843
     9  H    0.120358
    10  O   -0.542441
    11  C   -0.331923
    12  H    0.150918
    13  H    0.149720
    14  H    0.093856
    15  C   -0.355715
    16  H    0.157964
    17  H    0.118137
    18  H    0.146949
    19  N   -0.505040
    20  H    0.302554
    21  C   -0.050788
    22  H    0.145950
    23  C    0.635441
    24  C   -0.044230
    25  H    0.110117
    26  O   -0.565667
    27  C   -0.200832
    28  H    0.086820
    29  H    0.121338
    30  C   -0.336319
    31  H    0.136384
    32  H    0.089811
    33  H    0.134424
    34  C   -0.329745
    35  H    0.129651
    36  H    0.110740
    37  H    0.128283
    38  N   -0.501515
    39  H    0.279243
    40  C   -0.034171
    41  H    0.151236
    42  C    0.628630
    43  C   -0.270705
    44  H    0.144740
    45  H    0.133234
    46  O   -0.532518
    47  C    0.128547
    48  C   -0.120936
    49  H    0.095521
    50  C   -0.134730
    51  H    0.081992
    52  C   -0.091843
    53  H    0.099470
    54  C   -0.090581
    55  H    0.096013
    56  C   -0.094026
    57  H    0.092955
    58  N   -0.545413
    59  H    0.284431
    60  C   -0.020234
    61  H    0.138266
    62  C    0.635451
    63  C   -0.190914
    64  H    0.107222
    65  H    0.078329
    66  O   -0.544557
    67  C   -0.074072
    68  H    0.139653
    69  C   -0.321843
    70  H    0.076400
    71  H    0.106758
    72  H    0.132636
    73  C   -0.320965
    74  H    0.074521
    75  H    0.144259
    76  H    0.088280
    77  N   -0.514729
    78  H    0.287405
    79  C   -0.022534
    80  H    0.127883
    81  C    0.606964
    82  C   -0.198798
    83  H    0.135143
    84  H    0.134175
    85  O   -0.531655
    86  C   -0.259745
    87  H    0.139561
    88  H    0.149311
    89  C    0.574260
    90  O   -0.457059
    91  O   -0.490446
    92  N   -0.541012
    93  H    0.282115
    94  C   -0.021680
    95  H    0.157175
    96  C    0.609165
    97  C   -0.240541
    98  H    0.114522
    99  H    0.138584
   100  O   -0.554285
   101  C    0.567373
   102  N   -0.588430
   103  H    0.289362
   104  H    0.266379
   105  O   -0.512726
   106  N   -0.537356
   107  H    0.288629
   108  C    0.008944
   109  H    0.131679
   110  C    0.594828
   111  C   -0.230913
   112  H    0.134822
   113  H    0.106670
   114  O   -0.555317
   115  C    0.093356
   116  C   -0.125739
   117  H    0.085756
   118  C   -0.164720
   119  H    0.087114
   120  C   -0.098476
   121  H    0.102481
   122  C   -0.099801
   123  H    0.087976
   124  O   -0.629941
   125  H    0.331034
   126  C    0.320682
   127  N   -0.528129
   128  H    0.286651
   129  C    0.033979
   130  H    0.131769
   131  C    0.598559
   132  C   -0.170415
   133  H    0.121321
   134  H    0.107918
   135  O   -0.627168
   136  C   -0.230304
   137  H    0.124214
   138  H    0.117916
   139  C   -0.052239
   140  H    0.122975
   141  H    0.119344
   142  N   -0.516650
   143  H    0.306438
   144  N   -0.623768
   145  H    0.300205
   146  H    0.299440
   147  N   -0.609641
   148  H    0.279166
   149  H    0.339796
   150  C    0.761416
   151  O   -0.608415
   152  H    0.325782
 Sum of Mulliken charges =   1.00000

 Dipole moment (field-independent basis, Debye):
    X=            -35.1857    Y=             14.5541    Z=             17.5780  Tot=             41.9385
 Quadrupole moment (field-independent basis, Debye-Ang):
   XX=            246.5877   YY=           -372.6821   ZZ=           -255.7300
   XY=             50.0366   XZ=           -333.9143   YZ=            -30.1793

 Normal termination of Gaussian 16 at Thu Sep  8 08:45:35 2022.
