 Gaussian 16, Revision C.01,
 Gaussian 16:  ES64L-G16RevC.01  3-Jul-2019

 ----------------------------------------------------------------------
 # B3LYP/6-31G** empiricaldispersion=gd3bj guess=read geom=check nosymm
  integral(ultrafinegrid)
 ----------------------------------------------------------------------

 ------------------------------------------------------
 Candidate Structure: Conf:727 Charge calc in gas phase
 ------------------------------------------------------
 Structure from the checkpoint file:  "conf-727.chk"
 Charge =  1 Multiplicity = 1

                          Input orientation:
 ---------------------------------------------------------------------
 Center     Atomic      Atomic             Coordinates (Angstroms)
 Number     Number       Type             X           Y           Z
 ---------------------------------------------------------------------
      1          7           0       -6.668515   -1.275581    9.309125
      2          1           0       -7.562597   -1.340698    9.797305
      3          1           0       -6.649999   -1.961106    8.476344
      4          1           0       -5.913570   -1.465388    9.970159
      5          6           0       -6.484418    0.030282    8.566990
      6          1           0       -7.273344    0.718976    8.875962
      7          6           0       -6.670041   -0.423499    7.096716
      8          6           0       -5.089621    0.631973    8.870635
      9          1           0       -5.019757    0.655515    9.968060
     10          8           0       -6.661741   -1.650739    6.886283
     11          6           0       -3.951469   -0.235486    8.315771
     12          1           0       -3.962244   -0.242430    7.221939
     13          1           0       -2.989462    0.170731    8.635351
     14          1           0       -3.991512   -1.276922    8.654268
     15          6           0       -4.977535    2.082489    8.380556
     16          1           0       -4.913701    2.152870    7.291083
     17          1           0       -5.817678    2.694388    8.725194
     18          1           0       -4.064205    2.526205    8.783991
     19          7           0       -6.804241    0.521047    6.181278
     20          1           0       -6.665195    1.500211    6.423636
     21          6           0       -6.714266    0.302590    4.734266
     22          1           0       -6.379473   -0.723272    4.566805
     23          6           0       -5.647735    1.318569    4.286123
     24          6           0       -8.079552    0.546503    4.041237
     25          1           0       -8.353321    1.585724    4.267715
     26          8           0       -5.525966    2.380264    4.911493
     27          6           0       -9.184560   -0.360222    4.619965
     28          1           0      -10.133973   -0.028975    4.183984
     29          1           0       -9.270573   -0.174713    5.697409
     30          6           0       -7.961011    0.408070    2.517156
     31          1           0       -7.544731   -0.562245    2.227081
     32          1           0       -7.329247    1.185394    2.083152
     33          1           0       -8.950574    0.489348    2.059649
     34          6           0       -9.009399   -1.861531    4.370813
     35          1           0       -9.855923   -2.413449    4.789387
     36          1           0       -8.969209   -2.093298    3.302981
     37          1           0       -8.102783   -2.251302    4.842324
     38          7           0       -4.905915    0.979807    3.227877
     39          1           0       -5.021237    0.099102    2.734028
     40          6           0       -3.870373    1.835926    2.670591
     41          1           0       -4.241048    2.863577    2.638675
     42          6           0       -3.616039    1.304672    1.255669
     43          6           0       -2.588264    1.775925    3.545204
     44          1           0       -2.309602    0.723092    3.653933
     45          1           0       -2.876287    2.149506    4.533805
     46          8           0       -3.862008    0.119459    0.995542
     47          6           0       -1.426867    2.558807    2.982050
     48          6           0       -0.216797    1.922092    2.690560
     49          1           0       -0.082570    0.867683    2.911678
     50          6           0       -1.550926    3.930615    2.712378
     51          1           0       -2.469553    4.453663    2.969819
     52          6           0        0.844450    2.628607    2.123809
     53          1           0        1.771278    2.105173    1.916610
     54          6           0       -0.497384    4.634835    2.128065
     55          1           0       -0.608678    5.694108    1.917348
     56          6           0        0.699762    3.982562    1.826990
     57          1           0        1.516571    4.529780    1.368343
     58          7           0       -3.127706    2.188464    0.364093
     59          1           0       -2.757081    3.062227    0.721995
     60          6           0       -2.616441    1.746798   -0.941091
     61          1           0       -3.271496    0.935965   -1.263810
     62          6           0       -1.202814    1.203060   -0.701059
     63          6           0       -2.622932    2.884274   -1.957727
     64          1           0       -2.051913    3.723779   -1.544190
     65          1           0       -3.659902    3.218746   -2.087472
     66          8           0       -0.203236    1.909268   -0.819177
     67          6           0       -2.013231    2.499903   -3.320115
     68          1           0       -0.949691    2.301066   -3.163446
     69          6           0       -2.637849    1.235660   -3.922993
     70          1           0       -3.720812    1.347032   -4.059941
     71          1           0       -2.463973    0.352508   -3.297700
     72          1           0       -2.181035    1.037517   -4.895665
     73          6           0       -2.121037    3.674131   -4.296965
     74          1           0       -3.167550    3.891822   -4.543851
     75          1           0       -1.591529    3.440048   -5.224355
     76          1           0       -1.679242    4.583779   -3.875951
     77          7           0       -1.155024   -0.089477   -0.289363
     78          1           0       -2.020896   -0.583526   -0.113630
     79          6           0        0.122251   -0.653798    0.118177
     80          1           0        0.667348    0.158144    0.600038
     81          6           0        0.906508   -1.081239   -1.131190
     82          6           0       -0.030679   -1.796101    1.118710
     83          1           0       -0.628576   -2.599264    0.678368
     84          1           0       -0.568331   -1.404223    1.987657
     85          8           0        0.779984   -2.196728   -1.645072
     86          6           0        1.339973   -2.380281    1.549486
     87          1           0        1.246170   -2.841042    2.536387
     88          1           0        1.663338   -3.136404    0.834554
     89          6           0        2.382400   -1.276437    1.611080
     90          8           0        2.296288   -0.298624    2.332369
     91          8           0        3.342660   -1.454040    0.697916
     92          7           0        1.711766   -0.112801   -1.608829
     93          1           0        1.683864    0.793116   -1.157136
     94          6           0        2.694936   -0.336580   -2.639748
     95          1           0        2.688522   -1.410181   -2.851852
     96          6           0        4.089719    0.006131   -2.070004
     97          6           0        2.366679    0.461942   -3.912324
     98          1           0        2.446421    1.534138   -3.714278
     99          1           0        3.092749    0.232736   -4.700597
    100          8           0        4.229071    0.503138   -0.941273
    101          6           0        0.971868    0.244003   -4.507742
    102          7           0        0.391416   -0.970113   -4.310649
    103          1           0       -0.544691   -1.064965   -4.676839
    104          1           0        0.658526   -1.601779   -3.559954
    105          8           0        0.456742    1.123236   -5.192480
    106          7           0        5.103405   -0.294461   -2.883293
    107          1           0        4.959599   -0.691086   -3.810345
    108          6           0        6.512475   -0.195059   -2.548759
    109          1           0        6.749643    0.837386   -2.265064
    110          6           0        7.247846   -0.556403   -3.857165
    111          6           0        6.912938   -1.133689   -1.377527
    112          1           0        7.953813   -0.926958   -1.111559
    113          1           0        6.303838   -0.846004   -0.517374
    114          8           0        6.603143   -0.814159   -4.884309
    115          6           0        6.739467   -2.596103   -1.706104
    116          6           0        5.490112   -3.220031   -1.578872
    117          1           0        4.652261   -2.673078   -1.157174
    118          6           0        7.817057   -3.350278   -2.188860
    119          1           0        8.804729   -2.900547   -2.271473
    120          6           0        5.306241   -4.549232   -1.947371
    121          1           0        4.341689   -5.034692   -1.844074
    122          6           0        7.642472   -4.682556   -2.558613
    123          1           0        8.490838   -5.256018   -2.926273
    124          8           0        6.156741   -6.586047   -2.799614
    125          1           0        6.989505   -6.975035   -3.097339
    126          6           0        6.385631   -5.283055   -2.447665
    127          7           0        8.583805   -0.580306   -3.784809
    128          1           0        9.077917   -0.608432   -2.882468
    129          6           0        9.403186   -1.317775   -4.736208
    130          1           0        8.902557   -2.266396   -4.969573
    131          6           0       10.759328   -1.639872   -3.997104
    132          6           0        9.651096   -0.577618   -6.045781
    133          1           0       10.322508   -1.248104   -6.604538
    134          1           0        8.695386   -0.451824   -6.568025
    135          8           0       11.716059   -1.910523   -4.747027
    136          6           0       10.357032    0.762212   -5.843562
    137          1           0        9.732844    1.427041   -5.235495
    138          1           0       11.283257    0.578514   -5.290034
    139          6           0       10.741087    1.453477   -7.148006
    140          1           0       11.239995    2.408551   -6.963723
    141          1           0       11.430639    0.839643   -7.734258
    142          7           0        9.582774    1.760437   -8.018850
    143          1           0        9.014706    2.554008   -7.755483
    144          7           0        9.583495   -0.249688   -9.181004
    145          1           0        9.358594   -0.756829  -10.022211
    146          1           0        9.958706   -0.764736   -8.392882
    147          7           0        8.187137    1.471288   -9.846550
    148          1           0        7.566089    0.842284  -10.331189
    149          1           0        7.945834    2.449752   -9.841641
    150          6           0        9.112420    0.987890   -8.991746
    151          8           0       10.686323   -1.567795   -2.738892
    152          1           0        3.802142   -0.606816    0.488895
 ---------------------------------------------------------------------

 SCF Done:  E(RB3LYP) =  -3587.07952484     A.U. after    3 cycles

 Alpha  occ. eigenvalues --  -19.27534 -19.22308 -19.21998 -19.20539 -19.19208
 Alpha  occ. eigenvalues --  -19.17631 -19.17513 -19.16767 -19.16457 -19.14622
 Alpha  occ. eigenvalues --  -19.14367 -19.06969 -19.06251 -14.59455 -14.49922
 Alpha  occ. eigenvalues --  -14.49393 -14.49020 -14.48451 -14.45834 -14.44017
 Alpha  occ. eigenvalues --  -14.41854 -14.40458 -14.39785 -14.38169 -14.36397
 Alpha  occ. eigenvalues --  -10.45214 -10.43973 -10.40585 -10.39041 -10.37231
 Alpha  occ. eigenvalues --  -10.35853 -10.34590 -10.34317 -10.34234 -10.33507
 Alpha  occ. eigenvalues --  -10.33467 -10.32366 -10.32192 -10.31069 -10.31057
 Alpha  occ. eigenvalues --  -10.30554 -10.29647 -10.29222 -10.29136 -10.28305
 Alpha  occ. eigenvalues --  -10.28130 -10.27044 -10.27029 -10.26565 -10.26219
 Alpha  occ. eigenvalues --  -10.26037 -10.25786 -10.25264 -10.25241 -10.24939
 Alpha  occ. eigenvalues --  -10.24804 -10.24630 -10.24362 -10.24155 -10.23979
 Alpha  occ. eigenvalues --  -10.23923 -10.23644 -10.23420 -10.23337 -10.22214
 Alpha  occ. eigenvalues --  -10.22169 -10.22021 -10.21276 -10.20789 -10.20303
 Alpha  occ. eigenvalues --  -10.20155 -10.20092 -10.19847 -10.19683 -10.19415
 Alpha  occ. eigenvalues --   -1.19981  -1.14197  -1.13821  -1.13633  -1.13428
 Alpha  occ. eigenvalues --   -1.12227  -1.09633  -1.08606  -1.07862  -1.07205
 Alpha  occ. eigenvalues --   -1.06743  -1.06121  -1.06049  -1.04843  -1.02911
 Alpha  occ. eigenvalues --   -1.02463  -1.01920  -1.00546  -1.00123  -0.98394
 Alpha  occ. eigenvalues --   -0.97542  -0.96650  -0.95336  -0.93813  -0.93065
 Alpha  occ. eigenvalues --   -0.91685  -0.91338  -0.91139  -0.87280  -0.86547
 Alpha  occ. eigenvalues --   -0.86487  -0.85869  -0.85740  -0.85182  -0.83396
 Alpha  occ. eigenvalues --   -0.83173  -0.81390  -0.81080  -0.80718  -0.80101
 Alpha  occ. eigenvalues --   -0.79807  -0.79115  -0.79023  -0.77193  -0.75940
 Alpha  occ. eigenvalues --   -0.75701  -0.75378  -0.75169  -0.74124  -0.73654
 Alpha  occ. eigenvalues --   -0.72948  -0.72745  -0.72021  -0.71737  -0.71226
 Alpha  occ. eigenvalues --   -0.70782  -0.70417  -0.69500  -0.68809  -0.68629
 Alpha  occ. eigenvalues --   -0.67882  -0.67368  -0.67007  -0.66631  -0.65773
 Alpha  occ. eigenvalues --   -0.65017  -0.64860  -0.64452  -0.63851  -0.63462
 Alpha  occ. eigenvalues --   -0.63205  -0.63044  -0.62794  -0.62527  -0.62144
 Alpha  occ. eigenvalues --   -0.61943  -0.61802  -0.61726  -0.60491  -0.60164
 Alpha  occ. eigenvalues --   -0.59599  -0.59338  -0.59011  -0.58230  -0.57918
 Alpha  occ. eigenvalues --   -0.57589  -0.56844  -0.56579  -0.56412  -0.56172
 Alpha  occ. eigenvalues --   -0.56082  -0.55736  -0.55616  -0.55332  -0.54748
 Alpha  occ. eigenvalues --   -0.54640  -0.54445  -0.53899  -0.53350  -0.53197
 Alpha  occ. eigenvalues --   -0.53013  -0.52828  -0.52617  -0.52403  -0.51804
 Alpha  occ. eigenvalues --   -0.51752  -0.51379  -0.51142  -0.51075  -0.50876
 Alpha  occ. eigenvalues --   -0.50769  -0.50388  -0.50254  -0.50011  -0.49777
 Alpha  occ. eigenvalues --   -0.49582  -0.49269  -0.49146  -0.48511  -0.48364
 Alpha  occ. eigenvalues --   -0.48109  -0.47813  -0.47759  -0.47668  -0.47568
 Alpha  occ. eigenvalues --   -0.47342  -0.47305  -0.47145  -0.47130  -0.46952
 Alpha  occ. eigenvalues --   -0.46649  -0.46616  -0.46602  -0.46447  -0.46332
 Alpha  occ. eigenvalues --   -0.46171  -0.45771  -0.45391  -0.45305  -0.44913
 Alpha  occ. eigenvalues --   -0.44582  -0.44336  -0.44192  -0.43839  -0.43697
 Alpha  occ. eigenvalues --   -0.43333  -0.43088  -0.42796  -0.42563  -0.42541
 Alpha  occ. eigenvalues --   -0.42425  -0.42199  -0.41882  -0.41806  -0.41792
 Alpha  occ. eigenvalues --   -0.41587  -0.41465  -0.41246  -0.41192  -0.41051
 Alpha  occ. eigenvalues --   -0.40991  -0.40625  -0.40529  -0.40214  -0.40129
 Alpha  occ. eigenvalues --   -0.39961  -0.39763  -0.39669  -0.39400  -0.39377
 Alpha  occ. eigenvalues --   -0.39247  -0.39077  -0.38526  -0.38295  -0.37770
 Alpha  occ. eigenvalues --   -0.36888  -0.36873  -0.36430  -0.36181  -0.36129
 Alpha  occ. eigenvalues --   -0.35967  -0.35920  -0.35620  -0.35145  -0.34680
 Alpha  occ. eigenvalues --   -0.34668  -0.34140  -0.34076  -0.33901  -0.33109
 Alpha  occ. eigenvalues --   -0.31307  -0.31128  -0.30844  -0.30425  -0.30167
 Alpha  occ. eigenvalues --   -0.30013  -0.29949  -0.29751  -0.29099  -0.28673
 Alpha  occ. eigenvalues --   -0.27725  -0.27407  -0.26167  -0.22983  -0.22379
 Alpha  occ. eigenvalues --   -0.21614  -0.20621
 Alpha virt. eigenvalues --   -0.12776  -0.10963  -0.09748  -0.08351  -0.06693
 Alpha virt. eigenvalues --   -0.06656  -0.06239  -0.05678  -0.05414  -0.04819
 Alpha virt. eigenvalues --   -0.04389  -0.03362  -0.03134  -0.02324  -0.01546

 Mulliken charges:
               1
     1  N   -0.560148
     2  H    0.350931
     3  H    0.377330
     4  H    0.343890
     5  C   -0.082462
     6  H    0.170995
     7  C    0.642864
     8  C   -0.087091
     9  H    0.122042
    10  O   -0.547564
    11  C   -0.334572
    12  H    0.141292
    13  H    0.154753
    14  H    0.099749
    15  C   -0.354296
    16  H    0.158140
    17  H    0.119654
    18  H    0.147125
    19  N   -0.500170
    20  H    0.302152
    21  C   -0.042227
    22  H    0.145639
    23  C    0.619222
    24  C   -0.046930
    25  H    0.106566
    26  O   -0.558046
    27  C   -0.175821
    28  H    0.116529
    29  H    0.076834
    30  C   -0.337528
    31  H    0.116771
    32  H    0.123496
    33  H    0.128263
    34  C   -0.341072
    35  H    0.115329
    36  H    0.120037
    37  H    0.120661
    38  N   -0.527908
    39  H    0.292544
    40  C   -0.004143
    41  H    0.143355
    42  C    0.610203
    43  C   -0.229501
    44  H    0.107216
    45  H    0.132974
    46  O   -0.568112
    47  C    0.107460
    48  C   -0.140371
    49  H    0.101072
    50  C   -0.176057
    51  H    0.084897
    52  C   -0.067639
    53  H    0.130389
    54  C   -0.082519
    55  H    0.096010
    56  C   -0.074803
    57  H    0.101348
    58  N   -0.518569
    59  H    0.282022
    60  C   -0.037032
    61  H    0.137223
    62  C    0.642174
    63  C   -0.166778
    64  H    0.107907
    65  H    0.093627
    66  O   -0.542957
    67  C   -0.066216
    68  H    0.131859
    69  C   -0.326724
    70  H    0.089250
    71  H    0.080688
    72  H    0.131179
    73  C   -0.319620
    74  H    0.090237
    75  H    0.128326
    76  H    0.094098
    77  N   -0.547988
    78  H    0.284480
    79  C   -0.020637
    80  H    0.149149
    81  C    0.627278
    82  C   -0.193089
    83  H    0.129448
    84  H    0.104405
    85  O   -0.565810
    86  C   -0.254205
    87  H    0.127188
    88  H    0.156695
    89  C    0.564456
    90  O   -0.479530
    91  O   -0.481265
    92  N   -0.479608
    93  H    0.293236
    94  C   -0.075884
    95  H    0.160118
    96  C    0.631709
    97  C   -0.248964
    98  H    0.138796
    99  H    0.140761
   100  O   -0.587460
   101  C    0.577892
   102  N   -0.620401
   103  H    0.272129
   104  H    0.299769
   105  O   -0.528692
   106  N   -0.518895
   107  H    0.292185
   108  C    0.015610
   109  H    0.131854
   110  C    0.589694
   111  C   -0.275623
   112  H    0.129324
   113  H    0.123371
   114  O   -0.574392
   115  C    0.102611
   116  C   -0.143759
   117  H    0.089797
   118  C   -0.141567
   119  H    0.135139
   120  C   -0.109169
   121  H    0.086867
   122  C   -0.146129
   123  H    0.081887
   124  O   -0.564136
   125  H    0.315993
   126  C    0.326136
   127  N   -0.531746
   128  H    0.288331
   129  C   -0.033270
   130  H    0.112418
   131  C    0.582118
   132  C   -0.209301
   133  H    0.114912
   134  H    0.084866
   135  O   -0.596868
   136  C   -0.166101
   137  H    0.106928
   138  H    0.166287
   139  C   -0.118797
   140  H    0.143285
   141  H    0.150201
   142  N   -0.500874
   143  H    0.294018
   144  N   -0.594479
   145  H    0.307082
   146  H    0.320873
   147  N   -0.622599
   148  H    0.312855
   149  H    0.308666
   150  C    0.783541
   151  O   -0.597417
   152  H    0.354842
 Sum of Mulliken charges =   1.00000

 Dipole moment (field-independent basis, Debye):
    X=            -24.3548    Y=              7.5513    Z=             13.5842  Tot=             28.8913
 Quadrupole moment (field-independent basis, Debye-Ang):
   XX=           -269.1322   YY=           -423.6353   ZZ=            120.2772
   XY=             93.2460   XZ=           -414.5743   YZ=            -66.4582

 Normal termination of Gaussian 16 at Thu Sep  8 08:47:04 2022.
