 Gaussian 16, Revision C.01,
 Gaussian 16:  ES64L-G16RevC.01  3-Jul-2019

 ----------------------------------------------------------------------
 # B3LYP/6-31G** empiricaldispersion=gd3bj guess=read geom=check nosymm
  integral(ultrafinegrid)
 ----------------------------------------------------------------------

 ------------------------------------------------------
 Candidate Structure: Conf:869 Charge calc in gas phase
 ------------------------------------------------------
 Structure from the checkpoint file:  "conf-869.chk"
 Charge =  1 Multiplicity = 1

                          Input orientation:
 ---------------------------------------------------------------------
 Center     Atomic      Atomic             Coordinates (Angstroms)
 Number     Number       Type             X           Y           Z
 ---------------------------------------------------------------------
      1          7           0       -6.868163    3.565451    6.264045
      2          1           0       -7.243079    2.607354    6.074049
      3          1           0       -5.878922    3.418980    6.523349
      4          1           0       -7.342063    4.004226    7.053042
      5          6           0       -7.049462    4.303475    4.961875
      6          1           0       -8.040684    4.766103    5.010540
      7          6           0       -7.108046    3.152622    3.932870
      8          6           0       -5.982780    5.391659    4.745579
      9          1           0       -6.284864    5.909755    3.825561
     10          8           0       -7.357999    2.015147    4.353999
     11          6           0       -6.033739    6.426448    5.879401
     12          1           0       -5.686447    6.001474    6.828704
     13          1           0       -5.374338    7.266537    5.651578
     14          1           0       -7.042593    6.825263    6.026185
     15          6           0       -4.564792    4.834685    4.552373
     16          1           0       -4.207289    4.312841    5.445366
     17          1           0       -4.484436    4.147457    3.706577
     18          1           0       -3.873562    5.661133    4.371574
     19          7           0       -6.885497    3.449402    2.649388
     20          1           0       -6.575101    4.378035    2.401396
     21          6           0       -6.625597    2.383881    1.666553
     22          1           0       -7.352598    1.595515    1.867233
     23          6           0       -5.212121    1.857720    1.981637
     24          6           0       -6.812574    2.880364    0.217835
     25          1           0       -7.896536    3.002307    0.090747
     26          8           0       -4.191097    2.409752    1.558882
     27          6           0       -6.333007    1.818065   -0.792134
     28          1           0       -5.238170    1.794133   -0.778887
     29          1           0       -6.619589    2.168955   -1.789076
     30          6           0       -6.137948    4.230615   -0.067269
     31          1           0       -5.068117    4.187483    0.144512
     32          1           0       -6.584736    5.055926    0.501517
     33          1           0       -6.271068    4.489529   -1.120836
     34          6           0       -6.887343    0.407110   -0.574370
     35          1           0       -6.599143   -0.248083   -1.400859
     36          1           0       -6.501950   -0.053156    0.341346
     37          1           0       -7.981539    0.407225   -0.521229
     38          7           0       -5.177657    0.792741    2.810711
     39          1           0       -6.046575    0.450092    3.197579
     40          6           0       -3.923129    0.223535    3.302468
     41          1           0       -3.213046    1.053765    3.383933
     42          6           0       -3.358158   -0.778587    2.269297
     43          6           0       -4.132855   -0.460553    4.653266
     44          1           0       -3.211082   -1.002366    4.886177
     45          1           0       -4.894543   -1.238098    4.541649
     46          8           0       -3.257478   -1.978642    2.523367
     47          6           0       -4.479318    0.454899    5.807918
     48          6           0       -3.664409    1.543882    6.145570
     49          1           0       -2.804000    1.786939    5.529046
     50          6           0       -5.571620    0.164096    6.637586
     51          1           0       -6.214385   -0.676221    6.393253
     52          6           0       -3.907428    2.295345    7.299758
     53          1           0       -3.230618    3.100899    7.569331
     54          6           0       -5.818288    0.903602    7.796382
     55          1           0       -6.643665    0.627428    8.445594
     56          6           0       -4.978892    1.968229    8.140449
     57          1           0       -5.135636    2.515904    9.065179
     58          7           0       -3.019190   -0.226630    1.084167
     59          1           0       -3.073720    0.782012    0.977668
     60          6           0       -2.561175   -1.052108   -0.033740
     61          1           0       -3.101963   -1.998980    0.041649
     62          6           0       -1.053733   -1.335473    0.138722
     63          6           0       -2.839790   -0.378289   -1.372260
     64          1           0       -2.145770    0.461765   -1.479283
     65          1           0       -3.859052    0.025603   -1.362809
     66          8           0       -0.190387   -0.656420   -0.428519
     67          6           0       -2.685893   -1.342352   -2.564429
     68          1           0       -1.772162   -1.931112   -2.405743
     69          6           0       -3.863709   -2.320442   -2.657378
     70          1           0       -4.799687   -1.780017   -2.844438
     71          1           0       -3.991807   -2.906409   -1.742010
     72          1           0       -3.719588   -3.028492   -3.478546
     73          6           0       -2.530407   -0.553253   -3.869195
     74          1           0       -3.412095    0.071969   -4.052615
     75          1           0       -2.422961   -1.224945   -4.727171
     76          1           0       -1.656778    0.105885   -3.837865
     77          7           0       -0.776680   -2.352751    0.972146
     78          1           0       -1.549660   -2.762338    1.486876
     79          6           0        0.578416   -2.783933    1.277064
     80          1           0        1.055976   -2.053675    1.945290
     81          6           0        1.389036   -2.881569   -0.028186
     82          6           0        0.515273   -4.152026    1.964492
     83          1           0        0.045189   -4.858816    1.273735
     84          1           0       -0.126869   -4.087604    2.848851
     85          8           0        0.955255   -3.459681   -1.018460
     86          6           0        1.888854   -4.669747    2.383402
     87          1           0        2.518814   -4.906739    1.521371
     88          1           0        2.441791   -3.914429    2.957816
     89          6           0        1.776179   -5.900395    3.256572
     90          8           0        0.758686   -6.297260    3.781049
     91          8           0        2.971288   -6.509826    3.404240
     92          7           0        2.622296   -2.336688    0.050605
     93          1           0        2.922313   -1.792098    0.852518
     94          6           0        3.515815   -2.223535   -1.077873
     95          1           0        3.550404   -3.174624   -1.617615
     96          6           0        4.891318   -1.857061   -0.493679
     97          6           0        3.078580   -1.088438   -2.050950
     98          1           0        2.627749   -0.285864   -1.464030
     99          1           0        3.964401   -0.690274   -2.554719
    100          8           0        4.966413   -1.231274    0.563669
    101          6           0        2.153258   -1.571214   -3.151182
    102          7           0        0.873490   -1.170604   -3.096394
    103          1           0        0.242171   -1.609111   -3.752214
    104          1           0        0.479561   -0.860345   -2.209144
    105          8           0        2.597658   -2.259782   -4.089823
    106          7           0        5.933094   -2.204956   -1.264823
    107          1           0        5.810382   -2.793249   -2.079201
    108          6           0        7.318705   -1.830736   -1.015244
    109          1           0        7.325118   -0.885886   -0.468399
    110          6           0        7.951154   -1.665490   -2.406351
    111          6           0        8.053992   -2.905461   -0.161635
    112          1           0        7.498072   -2.994546    0.777762
    113          1           0        7.991539   -3.863853   -0.687983
    114          8           0        7.537584   -2.426897   -3.321559
    115          6           0        9.479138   -2.474932    0.044305
    116          6           0       10.473515   -2.881954   -0.853120
    117          1           0       10.264589   -3.689188   -1.551472
    118          6           0        9.768664   -1.439152    0.941868
    119          1           0        9.012781   -1.127407    1.660265
    120          6           0       11.676808   -2.192267   -0.941810
    121          1           0       12.404054   -2.430972   -1.709712
    122          6           0       10.970365   -0.741203    0.859019
    123          1           0       11.169008    0.118204    1.490543
    124          8           0       12.911737   -0.203639   -0.425472
    125          1           0       12.606296    0.213105   -1.278918
    126          6           0       11.888965   -1.056814   -0.148517
    127          7           0        8.887974   -0.746543   -2.585894
    128          1           0        9.314196   -0.241007   -1.804530
    129          6           0        9.719926   -0.647275   -3.792024
    130          1           0        9.746895   -1.626069   -4.272178
    131          6           0       11.175081   -0.248781   -3.357303
    132          6           0        9.216398    0.440781   -4.752322
    133          1           0        9.300877    1.400787   -4.232035
    134          1           0        9.923724    0.473435   -5.589094
    135          8           0       12.087821   -0.682369   -4.067202
    136          6           0        7.784537    0.281987   -5.270883
    137          1           0        7.090511    0.221301   -4.424270
    138          1           0        7.504325    1.177553   -5.840872
    139          6           0        7.594228   -0.946646   -6.164319
    140          1           0        8.266217   -0.911838   -7.025474
    141          1           0        7.816256   -1.863131   -5.615917
    142          7           0        6.224123   -1.042407   -6.701321
    143          1           0        6.012077   -0.436734   -7.481492
    144          7           0        5.301743   -2.002136   -4.785089
    145          1           0        4.435736   -2.315923   -4.340225
    146          1           0        6.210700   -2.115253   -4.303614
    147          7           0        3.918452   -1.252781   -6.466988
    148          1           0        3.149891   -1.644098   -5.928665
    149          1           0        3.792963   -1.138955   -7.459872
    150          6           0        5.167401   -1.440360   -5.974795
    151          8           0       11.204788    0.515547   -2.341399
    152          1           0        2.825783   -7.273014    3.989006
 ---------------------------------------------------------------------

 SCF Done:  E(RB3LYP) =  -3587.11411246     A.U. after    2 cycles

 Alpha  occ. eigenvalues --  -19.29266 -19.24954 -19.24809 -19.22347 -19.20441
 Alpha  occ. eigenvalues --  -19.19918 -19.19445 -19.17701 -19.17604 -19.16249
 Alpha  occ. eigenvalues --  -19.11529 -19.07101 -19.05924 -14.60683 -14.52487
 Alpha  occ. eigenvalues --  -14.49231 -14.45976 -14.44783 -14.44138 -14.44101
 Alpha  occ. eigenvalues --  -14.42232 -14.42223 -14.42045 -14.41551 -14.38841
 Alpha  occ. eigenvalues --  -10.45982 -10.42193 -10.41753 -10.40264 -10.39235
 Alpha  occ. eigenvalues --  -10.37689 -10.37114 -10.36930 -10.36715 -10.36433
 Alpha  occ. eigenvalues --  -10.35443 -10.35138 -10.34770 -10.32838 -10.32802
 Alpha  occ. eigenvalues --  -10.32680 -10.32504 -10.32384 -10.32188 -10.32078
 Alpha  occ. eigenvalues --  -10.32027 -10.31993 -10.31841 -10.31286 -10.30990
 Alpha  occ. eigenvalues --  -10.30871 -10.30596 -10.28558 -10.28442 -10.27869
 Alpha  occ. eigenvalues --  -10.27493 -10.27459 -10.26953 -10.26849 -10.26846
 Alpha  occ. eigenvalues --  -10.26500 -10.26277 -10.24955 -10.24868 -10.24793
 Alpha  occ. eigenvalues --  -10.22941 -10.22623 -10.22229 -10.21968 -10.20700
 Alpha  occ. eigenvalues --  -10.19317 -10.19068 -10.18712 -10.17849 -10.17249
 Alpha  occ. eigenvalues --   -1.21659  -1.16808  -1.15968  -1.15271  -1.14135
 Alpha  occ. eigenvalues --   -1.12167  -1.11070  -1.10062  -1.09247  -1.09066
 Alpha  occ. eigenvalues --   -1.09019  -1.07390  -1.06981  -1.05623  -1.02520
 Alpha  occ. eigenvalues --   -1.00862  -1.00747  -0.99762  -0.99179  -0.98777
 Alpha  occ. eigenvalues --   -0.98701  -0.98164  -0.97596  -0.97354  -0.96398
 Alpha  occ. eigenvalues --   -0.94946  -0.93498  -0.91588  -0.91314  -0.89767
 Alpha  occ. eigenvalues --   -0.88666  -0.87933  -0.87557  -0.86958  -0.85904
 Alpha  occ. eigenvalues --   -0.84868  -0.84453  -0.83625  -0.83613  -0.83506
 Alpha  occ. eigenvalues --   -0.82539  -0.80888  -0.80255  -0.77888  -0.77083
 Alpha  occ. eigenvalues --   -0.76123  -0.76075  -0.75839  -0.75671  -0.74667
 Alpha  occ. eigenvalues --   -0.74201  -0.74108  -0.73762  -0.73606  -0.73368
 Alpha  occ. eigenvalues --   -0.72391  -0.71920  -0.71639  -0.71070  -0.70320
 Alpha  occ. eigenvalues --   -0.69354  -0.69163  -0.68992  -0.67648  -0.67161
 Alpha  occ. eigenvalues --   -0.67018  -0.66673  -0.65795  -0.65032  -0.64859
 Alpha  occ. eigenvalues --   -0.64575  -0.64453  -0.64313  -0.63761  -0.63142
 Alpha  occ. eigenvalues --   -0.63061  -0.62371  -0.62147  -0.61430  -0.61027
 Alpha  occ. eigenvalues --   -0.60885  -0.60792  -0.60700  -0.60175  -0.60057
 Alpha  occ. eigenvalues --   -0.59675  -0.59394  -0.58515  -0.58030  -0.57958
 Alpha  occ. eigenvalues --   -0.57911  -0.57611  -0.57438  -0.57277  -0.56866
 Alpha  occ. eigenvalues --   -0.56542  -0.56398  -0.56312  -0.55207  -0.55012
 Alpha  occ. eigenvalues --   -0.54748  -0.54216  -0.53813  -0.53777  -0.53450
 Alpha  occ. eigenvalues --   -0.53385  -0.53317  -0.53261  -0.53155  -0.52940
 Alpha  occ. eigenvalues --   -0.52841  -0.52728  -0.52539  -0.52365  -0.51856
 Alpha  occ. eigenvalues --   -0.51580  -0.51424  -0.51166  -0.51092  -0.51006
 Alpha  occ. eigenvalues --   -0.50873  -0.50570  -0.50432  -0.50150  -0.49966
 Alpha  occ. eigenvalues --   -0.49898  -0.49440  -0.49325  -0.49197  -0.49190
 Alpha  occ. eigenvalues --   -0.48690  -0.48525  -0.48266  -0.48067  -0.47965
 Alpha  occ. eigenvalues --   -0.47782  -0.47591  -0.47111  -0.46769  -0.46697
 Alpha  occ. eigenvalues --   -0.46654  -0.46315  -0.46234  -0.46176  -0.46052
 Alpha  occ. eigenvalues --   -0.45914  -0.45854  -0.45137  -0.44851  -0.44680
 Alpha  occ. eigenvalues --   -0.44658  -0.44264  -0.44150  -0.44057  -0.43939
 Alpha  occ. eigenvalues --   -0.43762  -0.43690  -0.43614  -0.43571  -0.43301
 Alpha  occ. eigenvalues --   -0.43076  -0.42618  -0.42188  -0.41820  -0.41532
 Alpha  occ. eigenvalues --   -0.41459  -0.41325  -0.40955  -0.40549  -0.40408
 Alpha  occ. eigenvalues --   -0.40247  -0.39766  -0.39654  -0.39334  -0.38499
 Alpha  occ. eigenvalues --   -0.38427  -0.37896  -0.37748  -0.37521  -0.37435
 Alpha  occ. eigenvalues --   -0.37266  -0.37075  -0.36954  -0.36351  -0.35409
 Alpha  occ. eigenvalues --   -0.35151  -0.35012  -0.34398  -0.34293  -0.33857
 Alpha  occ. eigenvalues --   -0.33714  -0.33260  -0.33086  -0.32944  -0.32829
 Alpha  occ. eigenvalues --   -0.32530  -0.31753  -0.31309  -0.30788  -0.30166
 Alpha  occ. eigenvalues --   -0.29486  -0.26022  -0.24702  -0.22733  -0.22215
 Alpha  occ. eigenvalues --   -0.20938  -0.20003
 Alpha virt. eigenvalues --   -0.15779  -0.14157  -0.13869  -0.11633  -0.10751
 Alpha virt. eigenvalues --   -0.08626  -0.07390  -0.06652  -0.06632  -0.05524
 Alpha virt. eigenvalues --   -0.04749  -0.04480  -0.03970  -0.03921  -0.03665

 Mulliken charges:
               1
     1  N   -0.550352
     2  H    0.364731
     3  H    0.342455
     4  H    0.344748
     5  C   -0.076409
     6  H    0.188109
     7  C    0.650550
     8  C   -0.106874
     9  H    0.133933
    10  O   -0.550455
    11  C   -0.334930
    12  H    0.105823
    13  H    0.159919
    14  H    0.127959
    15  C   -0.348153
    16  H    0.107063
    17  H    0.139217
    18  H    0.152960
    19  N   -0.525531
    20  H    0.289419
    21  C   -0.016755
    22  H    0.145146
    23  C    0.625392
    24  C   -0.068715
    25  H    0.114287
    26  O   -0.559006
    27  C   -0.196735
    28  H    0.122146
    29  H    0.117968
    30  C   -0.354029
    31  H    0.153999
    32  H    0.083297
    33  H    0.135463
    34  C   -0.339629
    35  H    0.130095
    36  H    0.097176
    37  H    0.116046
    38  N   -0.496516
    39  H    0.291285
    40  C   -0.042265
    41  H    0.145839
    42  C    0.633638
    43  C   -0.269338
    44  H    0.169584
    45  H    0.135322
    46  O   -0.533362
    47  C    0.127196
    48  C   -0.114246
    49  H    0.113486
    50  C   -0.123512
    51  H    0.117276
    52  C   -0.136110
    53  H    0.123740
    54  C   -0.113047
    55  H    0.122261
    56  C   -0.146388
    57  H    0.119056
    58  N   -0.546799
    59  H    0.297488
    60  C   -0.023269
    61  H    0.136192
    62  C    0.646443
    63  C   -0.192476
    64  H    0.119937
    65  H    0.096913
    66  O   -0.566992
    67  C   -0.080023
    68  H    0.107895
    69  C   -0.317140
    70  H    0.100689
    71  H    0.105933
    72  H    0.119798
    73  C   -0.325191
    74  H    0.103617
    75  H    0.108540
    76  H    0.110695
    77  N   -0.535994
    78  H    0.296833
    79  C    0.029703
    80  H    0.106187
    81  C    0.617518
    82  C   -0.207364
    83  H    0.144657
    84  H    0.130587
    85  O   -0.545264
    86  C   -0.273177
    87  H    0.157206
    88  H    0.143588
    89  C    0.577030
    90  O   -0.463016
    91  O   -0.478996
    92  N   -0.531562
    93  H    0.282063
    94  C   -0.005233
    95  H    0.147650
    96  C    0.591756
    97  C   -0.254028
    98  H    0.141314
    99  H    0.141413
   100  O   -0.541183
   101  C    0.597993
   102  N   -0.607040
   103  H    0.279929
   104  H    0.335765
   105  O   -0.568232
   106  N   -0.532000
   107  H    0.270393
   108  C    0.003802
   109  H    0.142581
   110  C    0.607821
   111  C   -0.230673
   112  H    0.114389
   113  H    0.103073
   114  O   -0.624626
   115  C    0.088422
   116  C   -0.135041
   117  H    0.076500
   118  C   -0.150668
   119  H    0.068742
   120  C   -0.113923
   121  H    0.116721
   122  C   -0.099899
   123  H    0.084385
   124  O   -0.616825
   125  H    0.348876
   126  C    0.349428
   127  N   -0.483430
   128  H    0.299759
   129  C   -0.024370
   130  H    0.117163
   131  C    0.593381
   132  C   -0.176612
   133  H    0.117624
   134  H    0.122463
   135  O   -0.566967
   136  C   -0.181033
   137  H    0.095142
   138  H    0.087785
   139  C   -0.092029
   140  H    0.131601
   141  H    0.168786
   142  N   -0.526818
   143  H    0.276509
   144  N   -0.671893
   145  H    0.311271
   146  H    0.369352
   147  N   -0.647494
   148  H    0.319027
   149  H    0.284984
   150  C    0.760571
   151  O   -0.642657
   152  H    0.329828
 Sum of Mulliken charges =   1.00000

 Dipole moment (field-independent basis, Debye):
    X=            -53.9957    Y=             17.2995    Z=             18.2957  Tot=             59.5780
 Quadrupole moment (field-independent basis, Debye-Ang):
   XX=           -553.0783   YY=           -357.8970   ZZ=           -196.8398
   XY=           -126.8607   XZ=           -148.2367   YZ=             98.2617

 Normal termination of Gaussian 16 at Thu Sep  8 08:46:10 2022.
