 Gaussian 16, Revision C.01,
 Gaussian 16:  ES64L-G16RevC.01  3-Jul-2019

 ----------------------------------------------------------------------
 # B3LYP/6-31G** empiricaldispersion=gd3bj guess=read geom=check nosymm
  integral(ultrafinegrid)
 ----------------------------------------------------------------------

 ------------------------------------------------------
 Candidate Structure: Conf:234 Charge calc in gas phase
 ------------------------------------------------------
 Structure from the checkpoint file:  "conf-234.chk"
 Charge =  1 Multiplicity = 1

                          Input orientation:
 ---------------------------------------------------------------------
 Center     Atomic      Atomic             Coordinates (Angstroms)
 Number     Number       Type             X           Y           Z
 ---------------------------------------------------------------------
      1          7           0      -10.075262   -1.231750    5.546201
      2          1           0      -10.860542   -1.683057    5.077668
      3          1           0       -9.323075   -1.955764    5.837982
      4          1           0      -10.423359   -0.721459    6.359317
      5          6           0       -9.237876   -0.368007    4.631825
      6          1           0       -9.669279   -0.423021    3.629568
      7          6           0       -7.872732   -1.101414    4.669251
      8          6           0       -9.170396    1.096770    5.106961
      9          1           0       -8.515068    1.600406    4.386164
     10          8           0       -7.785514   -2.093235    5.416451
     11          6           0      -10.548078    1.766940    5.036872
     12          1           0      -11.254321    1.336857    5.758192
     13          1           0      -10.461471    2.828564    5.278856
     14          1           0      -10.989682    1.684687    4.039181
     15          6           0       -8.527516    1.229324    6.493989
     16          1           0       -9.129723    0.762026    7.283675
     17          1           0       -7.527484    0.789522    6.526335
     18          1           0       -8.436795    2.284987    6.758246
     19          7           0       -6.913790   -0.608020    3.907960
     20          1           0       -7.016459    0.291487    3.436291
     21          6           0       -5.513708   -1.034029    3.931058
     22          1           0       -5.330812   -1.557517    4.874470
     23          6           0       -4.747935    0.300352    3.866234
     24          6           0       -5.161764   -1.974781    2.738569
     25          1           0       -5.233182   -1.370772    1.824336
     26          8           0       -5.306233    1.297100    3.399451
     27          6           0       -6.180252   -3.127438    2.645417
     28          1           0       -7.189596   -2.705021    2.594449
     29          1           0       -6.139611   -3.720859    3.567645
     30          6           0       -3.723152   -2.493630    2.861701
     31          1           0       -3.567347   -3.002775    3.821396
     32          1           0       -2.993464   -1.693684    2.742767
     33          1           0       -3.513186   -3.219524    2.074916
     34          6           0       -5.980920   -4.033454    1.427332
     35          1           0       -6.801785   -4.751770    1.347443
     36          1           0       -5.956678   -3.449676    0.500801
     37          1           0       -5.053078   -4.607458    1.484648
     38          7           0       -3.485111    0.316909    4.338300
     39          1           0       -3.053844   -0.570267    4.558315
     40          6           0       -2.589952    1.405426    3.963978
     41          1           0       -3.000598    2.337266    4.360828
     42          6           0       -2.554024    1.504925    2.426291
     43          6           0       -1.197049    1.138128    4.568535
     44          1           0       -0.814048    0.196155    4.164691
     45          1           0       -1.335503    1.009241    5.649218
     46          8           0       -2.766927    0.499094    1.725254
     47          6           0       -0.198929    2.240209    4.296326
     48          6           0        0.993550    1.959089    3.622478
     49          1           0        1.181684    0.948549    3.276043
     50          6           0       -0.445332    3.553064    4.721668
     51          1           0       -1.355121    3.783218    5.271867
     52          6           0        1.928687    2.969331    3.394450
     53          1           0        2.865860    2.740582    2.898847
     54          6           0        0.472160    4.569129    4.458864
     55          1           0        0.261717    5.583867    4.781241
     56          6           0        1.663692    4.276915    3.795412
     57          1           0        2.383569    5.062278    3.591655
     58          7           0       -2.299003    2.713408    1.920177
     59          1           0       -1.943287    3.452962    2.517783
     60          6           0       -2.206405    2.965587    0.486510
     61          1           0       -2.304905    2.000152   -0.009140
     62          6           0       -0.819935    3.562515    0.242706
     63          6           0       -3.313354    3.926341    0.022127
     64          1           0       -3.203279    4.067758   -1.060864
     65          1           0       -3.129093    4.902655    0.486269
     66          8           0       -0.357632    4.398480    1.017999
     67          6           0       -4.741943    3.456210    0.344266
     68          1           0       -4.814650    3.322895    1.431253
     69          6           0       -5.745745    4.536397   -0.075898
     70          1           0       -5.718533    4.696699   -1.159937
     71          1           0       -5.530447    5.494935    0.407745
     72          1           0       -6.767839    4.247005    0.189676
     73          6           0       -5.076731    2.110117   -0.311534
     74          1           0       -4.961408    2.165193   -1.400907
     75          1           0       -6.116381    1.834540   -0.104521
     76          1           0       -4.442007    1.304038    0.064888
     77          7           0       -0.177117    3.112351   -0.854881
     78          1           0       -0.538871    2.343915   -1.406320
     79          6           0        1.216711    3.425847   -1.092226
     80          1           0        1.377847    4.485006   -0.880749
     81          6           0        1.522740    3.097073   -2.548167
     82          6           0        2.086199    2.549655   -0.151260
     83          1           0        1.888551    1.499720   -0.375041
     84          1           0        1.729655    2.747219    0.860381
     85          8           0        0.880248    2.227565   -3.147015
     86          6           0        3.611581    2.770349   -0.204341
     87          1           0        4.077481    2.151636    0.565498
     88          1           0        4.021861    2.474230   -1.171662
     89          6           0        3.969626    4.216229    0.014574
     90          8           0        3.943268    5.080004   -0.849237
     91          8           0        4.286822    4.500242    1.289517
     92          7           0        2.588316    3.741058   -3.069938
     93          1           0        3.120936    4.360145   -2.457011
     94          6           0        3.232847    3.259151   -4.293259
     95          1           0        2.442523    2.983356   -4.993959
     96          6           0        4.061626    2.035995   -3.878351
     97          6           0        4.084678    4.359056   -4.906254
     98          1           0        4.811638    4.728693   -4.176788
     99          1           0        4.659538    3.941135   -5.739800
    100          8           0        5.272089    2.147533   -3.593072
    101          6           0        3.189497    5.466281   -5.463433
    102          7           0        3.685876    6.727724   -5.342944
    103          1           0        3.161278    7.487193   -5.750193
    104          1           0        4.579618    6.921400   -4.922573
    105          8           0        2.115716    5.220001   -5.991797
    106          7           0        3.366873    0.902982   -3.731504
    107          1           0        2.363027    0.959699   -3.876705
    108          6           0        3.914429   -0.260922   -3.055647
    109          1           0        4.341204    0.067354   -2.101640
    110          6           0        5.020604   -0.981048   -3.845412
    111          6           0        2.810664   -1.308726   -2.771846
    112          1           0        2.186766   -1.404836   -3.666803
    113          1           0        3.316916   -2.267228   -2.628827
    114          8           0        5.010281   -1.066364   -5.077449
    115          6           0        1.976708   -1.043012   -1.540971
    116          6           0        2.522669   -1.315278   -0.274391
    117          1           0        3.535708   -1.710787   -0.205781
    118          6           0        0.650602   -0.609755   -1.618933
    119          1           0        0.209421   -0.396616   -2.587541
    120          6           0        1.758437   -1.159157    0.877982
    121          1           0        2.166217   -1.402697    1.853678
    122          6           0       -0.128603   -0.462219   -0.468974
    123          1           0       -1.172161   -0.167324   -0.539241
    124          8           0       -0.307876   -0.670020    1.935130
    125          1           0       -1.215417   -0.372135    1.725369
    126          6           0        0.422929   -0.750452    0.783774
    127          7           0        5.908735   -1.547139   -3.002718
    128          1           0        5.638745   -1.504642   -1.991678
    129          6           0        6.402239   -2.927285   -3.097439
    130          1           0        5.814391   -3.479885   -3.837308
    131          6           0        6.111331   -3.537350   -1.651446
    132          6           0        7.888397   -3.072505   -3.425711
    133          1           0        8.129342   -4.122283   -3.245740
    134          1           0        8.053908   -2.876433   -4.492326
    135          8           0        6.509376   -4.690075   -1.467959
    136          6           0        8.776419   -2.156134   -2.557760
    137          1           0        8.143241   -1.557156   -1.895460
    138          1           0        9.425963   -2.743966   -1.902465
    139          6           0        9.669485   -1.226225   -3.385955
    140          1           0       10.208199   -0.507608   -2.757218
    141          1           0       10.435165   -1.797496   -3.915966
    142          7           0        8.938566   -0.493023   -4.431731
    143          1           0        8.940510   -0.892772   -5.358610
    144          7           0        7.928478    1.138441   -3.097543
    145          1           0        7.025799    1.561651   -2.894146
    146          1           0        8.533663    0.904042   -2.327966
    147          7           0        7.152270    0.726862   -5.243435
    148          1           0        6.455448    1.421787   -4.982518
    149          1           0        6.696119   -0.086877   -5.661990
    150          6           0        7.994323    0.429030   -4.230727
    151          8           0        5.521515   -2.728742   -0.859716
    152          1           0        4.450989    5.458514    1.335413
 ---------------------------------------------------------------------

 SCF Done:  E(RB3LYP) =  -3587.12136461     A.U. after    3 cycles

 Alpha  occ. eigenvalues --  -19.27698 -19.27539 -19.22779 -19.22212 -19.21616
 Alpha  occ. eigenvalues --  -19.20630 -19.19794 -19.18975 -19.17908 -19.16277
 Alpha  occ. eigenvalues --  -19.15588 -19.08733 -19.07163 -14.59272 -14.49742
 Alpha  occ. eigenvalues --  -14.46266 -14.45019 -14.44399 -14.44247 -14.42633
 Alpha  occ. eigenvalues --  -14.42616 -14.42370 -14.41951 -14.41162 -14.36449
 Alpha  occ. eigenvalues --  -10.43858 -10.40588 -10.40223 -10.40100 -10.39459
 Alpha  occ. eigenvalues --  -10.37598 -10.36030 -10.35622 -10.35038 -10.34856
 Alpha  occ. eigenvalues --  -10.34477 -10.34346 -10.32584 -10.32011 -10.31264
 Alpha  occ. eigenvalues --  -10.31169 -10.29995 -10.29917 -10.29815 -10.29579
 Alpha  occ. eigenvalues --  -10.29131 -10.28838 -10.28173 -10.27501 -10.26993
 Alpha  occ. eigenvalues --  -10.26720 -10.26293 -10.26021 -10.26004 -10.25670
 Alpha  occ. eigenvalues --  -10.25426 -10.25331 -10.25117 -10.25062 -10.24957
 Alpha  occ. eigenvalues --  -10.24883 -10.24785 -10.24712 -10.24636 -10.23763
 Alpha  occ. eigenvalues --  -10.23402 -10.23216 -10.23170 -10.23132 -10.22974
 Alpha  occ. eigenvalues --  -10.22936 -10.22870 -10.22511 -10.22339 -10.20933
 Alpha  occ. eigenvalues --   -1.19976  -1.18660  -1.14972  -1.13384  -1.12420
 Alpha  occ. eigenvalues --   -1.11444  -1.10575  -1.09832  -1.09571  -1.09403
 Alpha  occ. eigenvalues --   -1.09213  -1.08327  -1.06739  -1.06711  -1.02973
 Alpha  occ. eigenvalues --   -1.01423  -1.00964  -0.99959  -0.99207  -0.99099
 Alpha  occ. eigenvalues --   -0.98847  -0.96566  -0.95764  -0.95758  -0.94803
 Alpha  occ. eigenvalues --   -0.92226  -0.92168  -0.91091  -0.89490  -0.88244
 Alpha  occ. eigenvalues --   -0.87387  -0.86990  -0.86651  -0.85171  -0.84017
 Alpha  occ. eigenvalues --   -0.83402  -0.83131  -0.82665  -0.82415  -0.80509
 Alpha  occ. eigenvalues --   -0.80363  -0.79495  -0.79019  -0.78855  -0.78551
 Alpha  occ. eigenvalues --   -0.77046  -0.74342  -0.74210  -0.74158  -0.73966
 Alpha  occ. eigenvalues --   -0.73841  -0.73275  -0.72715  -0.72245  -0.72087
 Alpha  occ. eigenvalues --   -0.71097  -0.70422  -0.69978  -0.68883  -0.68401
 Alpha  occ. eigenvalues --   -0.67410  -0.67105  -0.66789  -0.66660  -0.66320
 Alpha  occ. eigenvalues --   -0.66223  -0.65781  -0.65362  -0.64956  -0.64533
 Alpha  occ. eigenvalues --   -0.64155  -0.63855  -0.63599  -0.63320  -0.62871
 Alpha  occ. eigenvalues --   -0.62592  -0.61454  -0.61041  -0.60483  -0.60232
 Alpha  occ. eigenvalues --   -0.59234  -0.58937  -0.58731  -0.58643  -0.58518
 Alpha  occ. eigenvalues --   -0.58404  -0.58218  -0.57880  -0.57590  -0.57385
 Alpha  occ. eigenvalues --   -0.56950  -0.56479  -0.56141  -0.56067  -0.55467
 Alpha  occ. eigenvalues --   -0.55281  -0.55005  -0.54886  -0.54480  -0.54244
 Alpha  occ. eigenvalues --   -0.54081  -0.53756  -0.53290  -0.52991  -0.52733
 Alpha  occ. eigenvalues --   -0.52510  -0.52449  -0.52349  -0.51846  -0.51692
 Alpha  occ. eigenvalues --   -0.51571  -0.51380  -0.51336  -0.51253  -0.50823
 Alpha  occ. eigenvalues --   -0.50622  -0.50395  -0.50145  -0.49788  -0.49652
 Alpha  occ. eigenvalues --   -0.49449  -0.49314  -0.48898  -0.48846  -0.48632
 Alpha  occ. eigenvalues --   -0.48340  -0.48200  -0.48031  -0.47947  -0.47858
 Alpha  occ. eigenvalues --   -0.47830  -0.47463  -0.47351  -0.47222  -0.47074
 Alpha  occ. eigenvalues --   -0.46690  -0.46612  -0.46511  -0.46419  -0.46040
 Alpha  occ. eigenvalues --   -0.45984  -0.45843  -0.45619  -0.45548  -0.45222
 Alpha  occ. eigenvalues --   -0.44985  -0.44865  -0.44589  -0.44480  -0.44238
 Alpha  occ. eigenvalues --   -0.44034  -0.43888  -0.43412  -0.43311  -0.43042
 Alpha  occ. eigenvalues --   -0.42897  -0.42812  -0.42565  -0.42350  -0.42232
 Alpha  occ. eigenvalues --   -0.42083  -0.41818  -0.41657  -0.41042  -0.40943
 Alpha  occ. eigenvalues --   -0.40903  -0.40821  -0.40427  -0.40320  -0.39815
 Alpha  occ. eigenvalues --   -0.39603  -0.39425  -0.39186  -0.39046  -0.38736
 Alpha  occ. eigenvalues --   -0.38510  -0.38386  -0.38299  -0.37363  -0.37153
 Alpha  occ. eigenvalues --   -0.36872  -0.36644  -0.36303  -0.36198  -0.35809
 Alpha  occ. eigenvalues --   -0.35637  -0.35264  -0.34908  -0.34501  -0.34374
 Alpha  occ. eigenvalues --   -0.33773  -0.33401  -0.33111  -0.32034  -0.31878
 Alpha  occ. eigenvalues --   -0.31616  -0.31256  -0.30936  -0.30395  -0.30248
 Alpha  occ. eigenvalues --   -0.29748  -0.29307  -0.28480  -0.25987  -0.23631
 Alpha  occ. eigenvalues --   -0.23557  -0.21089
 Alpha virt. eigenvalues --   -0.12740  -0.11124  -0.08875  -0.07338  -0.07196
 Alpha virt. eigenvalues --   -0.06824  -0.06783  -0.06531  -0.06150  -0.06084
 Alpha virt. eigenvalues --   -0.05061  -0.04383  -0.04288  -0.03767  -0.03556

 Mulliken charges:
               1
     1  N   -0.561383
     2  H    0.350065
     3  H    0.378385
     4  H    0.340149
     5  C   -0.076312
     6  H    0.176931
     7  C    0.637757
     8  C   -0.103546
     9  H    0.152621
    10  O   -0.548884
    11  C   -0.326530
    12  H    0.098831
    13  H    0.156462
    14  H    0.130256
    15  C   -0.338294
    16  H    0.101240
    17  H    0.141372
    18  H    0.156899
    19  N   -0.507092
    20  H    0.303071
    21  C   -0.051996
    22  H    0.143784
    23  C    0.641079
    24  C   -0.037235
    25  H    0.118135
    26  O   -0.551042
    27  C   -0.170253
    28  H    0.073102
    29  H    0.110087
    30  C   -0.352300
    31  H    0.100723
    32  H    0.132798
    33  H    0.135529
    34  C   -0.327703
    35  H    0.111694
    36  H    0.113977
    37  H    0.125701
    38  N   -0.524066
    39  H    0.279452
    40  C   -0.008036
    41  H    0.139490
    42  C    0.644879
    43  C   -0.281386
    44  H    0.145022
    45  H    0.130739
    46  O   -0.591629
    47  C    0.102776
    48  C   -0.122140
    49  H    0.118675
    50  C   -0.153245
    51  H    0.077853
    52  C   -0.096321
    53  H    0.103748
    54  C   -0.067419
    55  H    0.095512
    56  C   -0.059531
    57  H    0.083744
    58  N   -0.486660
    59  H    0.293527
    60  C   -0.054335
    61  H    0.136328
    62  C    0.629883
    63  C   -0.156954
    64  H    0.110015
    65  H    0.109896
    66  O   -0.546791
    67  C   -0.065462
    68  H    0.103697
    69  C   -0.309284
    70  H    0.108955
    71  H    0.102384
    72  H    0.090643
    73  C   -0.325818
    74  H    0.101375
    75  H    0.084027
    76  H    0.124937
    77  N   -0.530666
    78  H    0.285078
    79  C   -0.017761
    80  H    0.148675
    81  C    0.616629
    82  C   -0.206629
    83  H    0.153792
    84  H    0.149397
    85  O   -0.561291
    86  C   -0.280792
    87  H    0.146259
    88  H    0.142111
    89  C    0.595574
    90  O   -0.487654
    91  O   -0.463029
    92  N   -0.538290
    93  H    0.307416
    94  C   -0.018276
    95  H    0.175217
    96  C    0.623966
    97  C   -0.281952
    98  H    0.120067
    99  H    0.150608
   100  O   -0.613896
   101  C    0.589752
   102  N   -0.611176
   103  H    0.286227
   104  H    0.274466
   105  O   -0.500200
   106  N   -0.498191
   107  H    0.303416
   108  C    0.006406
   109  H    0.118763
   110  C    0.560125
   111  C   -0.287818
   112  H    0.118312
   113  H    0.162164
   114  O   -0.567785
   115  C    0.093282
   116  C   -0.145215
   117  H    0.160909
   118  C   -0.127507
   119  H    0.093185
   120  C   -0.128844
   121  H    0.098509
   122  C   -0.169976
   123  H    0.085463
   124  O   -0.618647
   125  H    0.360053
   126  C    0.330851
   127  N   -0.530183
   128  H    0.291644
   129  C   -0.063621
   130  H    0.114767
   131  C    0.588920
   132  C   -0.169020
   133  H    0.147234
   134  H    0.053552
   135  O   -0.556879
   136  C   -0.176325
   137  H    0.111243
   138  H    0.129385
   139  C   -0.102967
   140  H    0.117495
   141  H    0.139033
   142  N   -0.496860
   143  H    0.295617
   144  N   -0.606818
   145  H    0.326752
   146  H    0.293661
   147  N   -0.618254
   148  H    0.305138
   149  H    0.313229
   150  C    0.737599
   151  O   -0.624968
   152  H    0.332994
 Sum of Mulliken charges =   1.00000

 Dipole moment (field-independent basis, Debye):
    X=            -29.3685    Y=             12.5223    Z=             18.1731  Tot=             36.7366
 Quadrupole moment (field-independent basis, Debye-Ang):
   XX=             37.1884   YY=           -428.6337   ZZ=           -308.3820
   XY=            101.7909   XZ=           -253.3623   YZ=            -13.2211

 Normal termination of Gaussian 16 at Thu Sep  8 08:50:03 2022.
