 Gaussian 16, Revision C.01,
 Gaussian 16:  ES64L-G16RevC.01  3-Jul-2019

 -------------------------------------------------------------------
 # B3LYP/6-31G* guess=read geom=check nosymm integral(ultrafinegrid)
 -------------------------------------------------------------------

 ------------------------------------------------------
 Candidate Structure: Conf:962 Charge calc in gas phase
 ------------------------------------------------------
 Structure from the checkpoint file:  "conf-962.chk"
 Charge =  1 Multiplicity = 1

                          Input orientation:
 ---------------------------------------------------------------------
 Center     Atomic      Atomic             Coordinates (Angstroms)
 Number     Number       Type             X           Y           Z
 ---------------------------------------------------------------------
      1          7           0       -1.803537    1.241272    4.226993
      2          1           0       -2.413531    0.570656    4.699490
      3          1           0       -0.946467    0.730612    3.834032
      4          1           0       -1.449578    1.926517    4.899380
      5          6           0       -2.487815    1.930609    3.057862
      6          1           0       -3.496129    2.225112    3.367904
      7          6           0       -2.586501    0.816410    1.975841
      8          6           0       -1.594098    3.159060    2.767345
      9          1           0       -1.542521    3.742522    3.694380
     10          1           0       -0.594912    2.787351    2.553844
     11          8           0       -2.323050   -0.332753    2.315430
     12          6           0       -2.038074    4.120373    1.662369
     13          1           0       -3.080378    4.444766    1.771483
     14          1           0       -1.939274    3.683663    0.662250
     15          6           0       -1.155850    5.362972    1.680737
     16          8           0       -0.176060    5.508194    2.373408
     17          8           0       -1.612719    6.284773    0.807168
     18          7           0       -2.949749    1.140823    0.699375
     19          1           0       -3.059184    2.116800    0.454251
     20          6           0       -2.407478    0.277637   -0.383278
     21          1           0       -2.332694   -0.711210    0.067461
     22          6           0       -0.993579    0.843328   -0.676419
     23          6           0       -3.280793    0.229407   -1.635727
     24          1           0       -3.210084    1.206404   -2.132636
     25          1           0       -4.327168    0.106449   -1.335802
     26          8           0       -0.856470    1.670973   -1.612358
     27          6           0       -2.897929   -0.898309   -2.558878
     28          6           0       -1.648365   -1.420342   -2.804093
     29          1           0       -0.683026   -1.178267   -2.374864
     30          6           0       -3.831181   -1.686511   -3.331225
     31          6           0       -3.078249   -2.666977   -4.028778
     32          6           0       -5.226076   -1.650496   -3.506574
     33          1           0       -5.831090   -0.903724   -2.998412
     34          7           0       -1.744724   -2.459146   -3.718376
     35          1           0       -1.019792   -3.146676   -3.864657
     36          6           0       -5.057159   -3.562637   -5.008223
     37          1           0       -5.554670   -4.285998   -5.647635
     38          6           0       -3.675398   -3.612208   -4.869265
     39          1           0       -3.084435   -4.360943   -5.390123
     40          6           0       -5.824975   -2.589152   -4.335815
     41          1           0       -6.902366   -2.576107   -4.472519
     42          7           0       -0.044561    0.460738    0.158469
     43          1           0       -0.306916    0.067047    1.102470
     44          6           0        1.289853    1.018445    0.306211
     45          1           0        1.294459    2.106122    0.153546
     46          6           0        2.251198    0.357344   -0.648955
     47          6           0        1.609977    0.768134    1.912457
     48          1           0        2.141508   -0.207643    1.943720
     49          8           0        2.029206   -0.724187   -1.180164
     50          6           0        2.579713    1.842030    2.417166
     51          1           0        3.541826    1.850328    1.887962
     52          1           0        2.798367    1.648247    3.472805
     53          1           0        2.128734    2.840545    2.350777
     54          8           0        0.416637    0.776314    2.551787
     55          7           0        3.417114    1.067863   -0.895409
     56          1           0        3.644725    1.823488   -0.254374
     57          6           0        4.608059    0.424324   -1.456138
     58          1           0        4.469770   -0.660929   -1.401178
     59          6           0        5.807740    0.819369   -0.600346
     60          6           0        4.840955    0.836551   -2.934967
     61          1           0        5.850379    0.557080   -3.252039
     62          1           0        4.793248    1.935022   -2.963008
     63          8           0        5.790021    1.696395    0.239588
     64          6           0        3.769584    0.234420   -3.863974
     65          1           0        4.113866   -0.721178   -4.274720
     66          1           0        2.898021   -0.025843   -3.259897
     67          6           0        3.316003    1.170753   -5.010569
     68          1           0        3.555657    2.219577   -4.792405
     69          1           0        3.809264    0.931462   -5.954695
     70          7           0        1.865767    1.061913   -5.247063
     71          1           0        1.544916    0.756427   -6.155534
     72          7           0        1.339857    2.165817   -3.268017
     73          1           0        0.685940    2.226129   -2.464789
     74          1           0        2.317941    2.182051   -3.018302
     75          7           0       -0.364282    1.315718   -4.570729
     76          1           0       -0.664904    0.611419   -5.230015
     77          1           0       -0.973838    1.433658   -3.761252
     78          6           0        0.951902    1.500886   -4.361523
     79          8           0        6.899071    0.101148   -0.914483
     80          1           0        7.628366    0.414169   -0.344611
     81          1           0       -1.005739    7.048644    0.855626
 ---------------------------------------------------------------------

 SCF Done:  E(RB3LYP) =  -2053.90223317     A.U. after    1 cycles

 Alpha  occ. eigenvalues --  -19.29021 -19.28647 -19.23580 -19.23259 -19.23135
 Alpha  occ. eigenvalues --  -19.22068 -19.20330 -19.12459 -14.56242 -14.50238
 Alpha  occ. eigenvalues --  -14.48490 -14.47853 -14.47209 -14.44875 -14.44692
 Alpha  occ. eigenvalues --  -14.43653 -10.45435 -10.41590 -10.41542 -10.40924
 Alpha  occ. eigenvalues --  -10.38123 -10.37981 -10.37215 -10.34863 -10.33274
 Alpha  occ. eigenvalues --  -10.32515 -10.31157 -10.30411 -10.29910 -10.29380
 Alpha  occ. eigenvalues --  -10.29208 -10.29046 -10.29039 -10.28504 -10.27716
 Alpha  occ. eigenvalues --  -10.25989 -10.25268 -10.25128 -10.24981 -10.24686
 Alpha  occ. eigenvalues --  -10.24274 -10.22681  -1.20002  -1.19622  -1.15852
 Alpha  occ. eigenvalues --   -1.14071  -1.12768  -1.12003  -1.11051  -1.10882
 Alpha  occ. eigenvalues --   -1.10242  -1.04645  -1.03745  -1.03332  -1.02173
 Alpha  occ. eigenvalues --   -1.01530  -1.01066  -0.97909  -0.91840  -0.90357
 Alpha  occ. eigenvalues --   -0.90298  -0.88609  -0.86002  -0.85366  -0.83471
 Alpha  occ. eigenvalues --   -0.81648  -0.79898  -0.79364  -0.78363  -0.77096
 Alpha  occ. eigenvalues --   -0.76739  -0.75619  -0.73822  -0.71859  -0.71242
 Alpha  occ. eigenvalues --   -0.70702  -0.70567  -0.69605  -0.69017  -0.68688
 Alpha  occ. eigenvalues --   -0.67436  -0.66983  -0.66806  -0.65759  -0.65636
 Alpha  occ. eigenvalues --   -0.64044  -0.63097  -0.62296  -0.61944  -0.61328
 Alpha  occ. eigenvalues --   -0.60622  -0.60429  -0.60328  -0.59421  -0.59235
 Alpha  occ. eigenvalues --   -0.58591  -0.58285  -0.57477  -0.57139  -0.56727
 Alpha  occ. eigenvalues --   -0.56644  -0.56389  -0.56048  -0.55477  -0.55219
 Alpha  occ. eigenvalues --   -0.54564  -0.53861  -0.53635  -0.53199  -0.52095
 Alpha  occ. eigenvalues --   -0.51576  -0.51311  -0.51040  -0.50523  -0.50378
 Alpha  occ. eigenvalues --   -0.49730  -0.49643  -0.49499  -0.48824  -0.48595
 Alpha  occ. eigenvalues --   -0.48421  -0.48303  -0.47931  -0.47732  -0.47073
 Alpha  occ. eigenvalues --   -0.46812  -0.46369  -0.46139  -0.45749  -0.45310
 Alpha  occ. eigenvalues --   -0.45184  -0.44755  -0.44368  -0.44132  -0.43337
 Alpha  occ. eigenvalues --   -0.41768  -0.41357  -0.41009  -0.40920  -0.40248
 Alpha  occ. eigenvalues --   -0.40041  -0.39871  -0.39602  -0.38866  -0.38260
 Alpha  occ. eigenvalues --   -0.37222  -0.37094  -0.36887  -0.35263  -0.35122
 Alpha  occ. eigenvalues --   -0.34777  -0.33924  -0.33633  -0.28859  -0.27798
 Alpha  occ. eigenvalues --   -0.27208  -0.26789
 Alpha virt. eigenvalues --   -0.10970  -0.10142  -0.08540  -0.08263  -0.07764
 Alpha virt. eigenvalues --   -0.07275  -0.06971  -0.06450  -0.05500  -0.03990
 Alpha virt. eigenvalues --   -0.03418  -0.02377  -0.02148  -0.01563  -0.00727

 Mulliken charges:
               1
     1  N   -0.737747
     2  H    0.409023
     3  H    0.453608
     4  H    0.399874
     5  C   -0.125409
     6  H    0.205592
     7  C    0.642866
     8  C   -0.293681
     9  H    0.164689
    10  H    0.232727
    11  O   -0.499863
    12  C   -0.399197
    13  H    0.188559
    14  H    0.190375
    15  C    0.591574
    16  O   -0.442141
    17  O   -0.561590
    18  N   -0.608862
    19  H    0.343567
    20  C   -0.068236
    21  H    0.218088
    22  C    0.613020
    23  C   -0.358704
    24  H    0.157274
    25  H    0.169296
    26  O   -0.613835
    27  C    0.059631
    28  C   -0.053230
    29  H    0.183820
    30  C    0.078294
    31  C    0.298710
    32  C   -0.208603
    33  H    0.126603
    34  N   -0.698420
    35  H    0.336064
    36  C   -0.149005
    37  H    0.140195
    38  C   -0.163950
    39  H    0.132407
    40  C   -0.137430
    41  H    0.136386
    42  N   -0.571809
    43  H    0.399986
    44  C   -0.122549
    45  H    0.133338
    46  C    0.616715
    47  C    0.214751
    48  H    0.093481
    49  O   -0.518917
    50  C   -0.486469
    51  H    0.136187
    52  H    0.153911
    53  H    0.141263
    54  O   -0.719305
    55  N   -0.641603
    56  H    0.362007
    57  C   -0.050226
    58  H    0.210933
    59  C    0.582349
    60  C   -0.282385
    61  H    0.186588
    62  H    0.143425
    63  O   -0.456417
    64  C   -0.318706
    65  H    0.175742
    66  H    0.205049
    67  C   -0.181504
    68  H    0.182024
    69  H    0.192927
    70  N   -0.596925
    71  H    0.360142
    72  N   -0.775681
    73  H    0.412849
    74  H    0.376763
    75  N   -0.764926
    76  H    0.366248
    77  H    0.405401
    78  C    0.782866
    79  O   -0.554832
    80  H    0.430393
    81  H    0.424579
 Sum of Mulliken charges =   1.00000

 Dipole moment (field-independent basis, Debye):
    X=              0.2558    Y=              7.9882    Z=             -6.1937  Tot=             10.1113
 Quadrupole moment (field-independent basis, Debye-Ang):
   XX=           -172.9473   YY=           -212.4599   ZZ=           -123.8137
   XY=            -11.9747   XZ=            -53.1587   YZ=             14.6369

 Normal termination of Gaussian 16 at Thu May 26 18:13:31 2022.
