 Gaussian 16, Revision C.01,
 Gaussian 16:  ES64L-G16RevC.01  3-Jul-2019

 -------------------------------------------------------------------
 # B3LYP/6-31G* guess=read geom=check nosymm integral(ultrafinegrid)
 -------------------------------------------------------------------

 ------------------------------------------------------
 Candidate Structure: Conf:727 Charge calc in gas phase
 ------------------------------------------------------
 Structure from the checkpoint file:  "conf-727.chk"
 Charge =  1 Multiplicity = 1

                          Input orientation:
 ---------------------------------------------------------------------
 Center     Atomic      Atomic             Coordinates (Angstroms)
 Number     Number       Type             X           Y           Z
 ---------------------------------------------------------------------
      1          7           0       -4.294414    0.806096    3.948291
      2          1           0       -5.147685    0.879628    3.391175
      3          1           0       -4.099667   -0.188383    4.069731
      4          1           0       -4.453528    1.207978    4.870732
      5          6           0       -3.165981    1.476621    3.275569
      6          1           0       -3.512639    2.440093    2.895277
      7          6           0       -2.681788    0.686683    2.034396
      8          6           0       -2.009826    1.725115    4.235780
      9          1           0       -1.189464    2.204664    3.701915
     10          1           0       -2.347089    2.438583    4.988901
     11          8           0       -2.794815   -0.555670    1.890459
     12          6           0       -1.506300    0.463846    4.924049
     13          1           0       -1.187636   -0.285100    4.191821
     14          1           0       -2.290871    0.008811    5.533574
     15          6           0       -0.323988    0.748051    5.813399
     16          8           0        0.427113    1.685069    5.706313
     17          8           0       -0.162357   -0.209781    6.753859
     18          7           0       -2.082061    1.497698    1.109645
     19          1           0       -1.899364    2.457699    1.339681
     20          6           0       -1.535065    0.956966   -0.124406
     21          1           0       -1.946447   -0.040153   -0.246331
     22          6           0       -0.026683    0.774259    0.042055
     23          6           0       -1.982221    1.746399   -1.339897
     24          1           0       -1.384592    1.436940   -2.201439
     25          1           0       -1.800234    2.815767   -1.211452
     26          8           0        0.807234    1.565283   -0.394398
     27          6           0       -3.441451    1.463105   -1.595938
     28          6           0       -4.266511    0.547443   -0.981089
     29          1           0       -4.054469   -0.118318   -0.155775
     30          6           0       -4.247098    2.112394   -2.597866
     31          6           0       -5.533818    1.554739   -2.537872
     32          6           0       -3.975493    3.122565   -3.531070
     33          1           0       -2.990276    3.573807   -3.596878
     34          7           0       -5.522668    0.606815   -1.541385
     35          1           0       -6.306285    0.031494   -1.292792
     36          6           0       -6.277113    2.960198   -4.299251
     37          1           0       -7.051946    3.305583   -4.972997
     38          6           0       -6.568694    1.962516   -3.381466
     39          1           0       -7.554643    1.515730   -3.316876
     40          6           0       -4.994146    3.534216   -4.372595
     41          1           0       -4.805418    4.312947   -5.102084
     42          7           0        0.315802   -0.334235    0.748828
     43          1           0       -0.407640   -0.831787    1.251863
     44          6           0        1.707530   -0.585057    1.093310
     45          1           0        2.132575    0.363136    1.441124
     46          6           0        2.477017   -1.074698   -0.135828
     47          6           0        1.791379   -1.626125    2.277806
     48          1           0        1.549131   -2.596710    1.770295
     49          8           0        2.617763   -2.255276   -0.420532
     50          6           0        3.276349   -1.741444    2.733002
     51          1           0        3.919359   -2.067651    1.911835
     52          1           0        3.324311   -2.461150    3.553072
     53          1           0        3.620620   -0.773321    3.104866
     54          8           0        1.003023   -1.341628    3.258802
     55          7           0        3.020597   -0.090541   -0.902162
     56          1           0        2.618276    0.834250   -0.831784
     57          6           0        3.706139   -0.472930   -2.116245
     58          1           0        3.033267   -1.069501   -2.747077
     59          6           0        4.897891   -1.348099   -1.757420
     60          6           0        4.193398    0.749337   -2.893116
     61          1           0        4.840936    0.395489   -3.699056
     62          1           0        4.813140    1.350807   -2.226540
     63          8           0        5.542901   -1.291338   -0.743560
     64          6           0        3.075397    1.591715   -3.492577
     65          1           0        2.385900    0.943732   -4.038796
     66          1           0        2.492049    2.085498   -2.715888
     67          6           0        3.634227    2.641548   -4.440856
     68          1           0        4.389185    3.249511   -3.930274
     69          1           0        4.144026    2.143053   -5.268827
     70          7           0        2.627769    3.521781   -5.057978
     71          1           0        2.094331    3.116476   -5.814169
     72          7           0        2.345561    4.793578   -3.118301
     73          1           0        2.113813    5.698220   -2.738824
     74          1           0        3.177988    4.364095   -2.749847
     75          7           0        0.991177    5.156645   -5.003033
     76          1           0        0.998971    5.167151   -6.014404
     77          1           0        0.661545    6.008258   -4.573773
     78          6           0        2.009549    4.504395   -4.390468
     79          8           0        5.201070   -2.185531   -2.779879
     80          1           0        5.977294   -2.677222   -2.486870
     81          1           0        0.624759    0.040087    7.257040
 ---------------------------------------------------------------------

 SCF Done:  E(RB3LYP) =  -2053.77113785     A.U. after    3 cycles

 Alpha  occ. eigenvalues --  -19.25112 -19.25061 -19.23434 -19.20126 -19.18229
 Alpha  occ. eigenvalues --  -19.17564 -19.13748 -19.01558 -14.63146 -14.53155
 Alpha  occ. eigenvalues --  -14.52916 -14.52868 -14.48804 -14.45481 -14.40388
 Alpha  occ. eigenvalues --  -14.38506 -10.48462 -10.42735 -10.40712 -10.38696
 Alpha  occ. eigenvalues --  -10.36061 -10.35781 -10.34734 -10.32381 -10.31935
 Alpha  occ. eigenvalues --  -10.30281 -10.29529 -10.29499 -10.29034 -10.28980
 Alpha  occ. eigenvalues --  -10.28929 -10.28153 -10.27800 -10.26066 -10.25996
 Alpha  occ. eigenvalues --  -10.25915 -10.25449 -10.25421 -10.25204 -10.22542
 Alpha  occ. eigenvalues --  -10.19359 -10.13999  -1.18845  -1.17713  -1.16568
 Alpha  occ. eigenvalues --   -1.14958  -1.14613  -1.10090  -1.07682  -1.06973
 Alpha  occ. eigenvalues --   -1.06386  -1.06302  -1.05781  -1.05285  -1.04750
 Alpha  occ. eigenvalues --   -0.96796  -0.96298  -0.94705  -0.91399  -0.91262
 Alpha  occ. eigenvalues --   -0.91082  -0.89424  -0.86527  -0.84671  -0.83992
 Alpha  occ. eigenvalues --   -0.80999  -0.80411  -0.79400  -0.78294  -0.77526
 Alpha  occ. eigenvalues --   -0.76409  -0.76163  -0.75124  -0.74847  -0.74062
 Alpha  occ. eigenvalues --   -0.71775  -0.71364  -0.70113  -0.69832  -0.68379
 Alpha  occ. eigenvalues --   -0.67688  -0.66773  -0.66592  -0.66190  -0.65683
 Alpha  occ. eigenvalues --   -0.65315  -0.63529  -0.62847  -0.61963  -0.61402
 Alpha  occ. eigenvalues --   -0.61315  -0.60171  -0.59749  -0.59592  -0.59005
 Alpha  occ. eigenvalues --   -0.58221  -0.57956  -0.57647  -0.55894  -0.55216
 Alpha  occ. eigenvalues --   -0.54515  -0.54442  -0.54137  -0.53432  -0.53207
 Alpha  occ. eigenvalues --   -0.52756  -0.52500  -0.51862  -0.51300  -0.51008
 Alpha  occ. eigenvalues --   -0.50581  -0.50565  -0.50414  -0.50248  -0.49381
 Alpha  occ. eigenvalues --   -0.49298  -0.48782  -0.48296  -0.47970  -0.47844
 Alpha  occ. eigenvalues --   -0.47507  -0.46083  -0.45729  -0.45390  -0.45095
 Alpha  occ. eigenvalues --   -0.44965  -0.44844  -0.44316  -0.44196  -0.43911
 Alpha  occ. eigenvalues --   -0.43268  -0.42625  -0.42431  -0.41018  -0.40936
 Alpha  occ. eigenvalues --   -0.40740  -0.40141  -0.39032  -0.38851  -0.38117
 Alpha  occ. eigenvalues --   -0.37831  -0.37541  -0.35505  -0.34955  -0.34644
 Alpha  occ. eigenvalues --   -0.34046  -0.33011  -0.32026  -0.31737  -0.31446
 Alpha  occ. eigenvalues --   -0.31113  -0.29688  -0.28859  -0.27778  -0.26731
 Alpha  occ. eigenvalues --   -0.16902  -0.15521
 Alpha virt. eigenvalues --   -0.14368  -0.13181  -0.11815  -0.09707  -0.08423
 Alpha virt. eigenvalues --   -0.07311  -0.06439  -0.05917  -0.05063  -0.04869
 Alpha virt. eigenvalues --   -0.04833  -0.04458  -0.04153  -0.03048  -0.02970

 Mulliken charges:
               1
     1  N   -0.713482
     2  H    0.423814
     3  H    0.438787
     4  H    0.423287
     5  C   -0.151631
     6  H    0.207333
     7  C    0.642877
     8  C   -0.295600
     9  H    0.224341
    10  H    0.169556
    11  O   -0.522499
    12  C   -0.398672
    13  H    0.277949
    14  H    0.128986
    15  C    0.626207
    16  O   -0.455244
    17  O   -0.559985
    18  N   -0.572989
    19  H    0.344668
    20  C   -0.106523
    21  H    0.215002
    22  C    0.622809
    23  C   -0.331657
    24  H    0.173931
    25  H    0.140803
    26  O   -0.577149
    27  C    0.058140
    28  C   -0.024063
    29  H    0.169154
    30  C    0.073915
    31  C    0.320360
    32  C   -0.206271
    33  H    0.102110
    34  N   -0.710999
    35  H    0.330443
    36  C   -0.150400
    37  H    0.138456
    38  C   -0.160651
    39  H    0.135100
    40  C   -0.137945
    41  H    0.121031
    42  N   -0.584948
    43  H    0.339437
    44  C   -0.082893
    45  H    0.132578
    46  C    0.632000
    47  C    0.232464
    48  H    0.052693
    49  O   -0.524009
    50  C   -0.466355
    51  H    0.130640
    52  H    0.131159
    53  H    0.104942
    54  O   -0.702347
    55  N   -0.624565
    56  H    0.357044
    57  C    0.004985
    58  H    0.168295
    59  C    0.599372
    60  C   -0.311876
    61  H    0.168556
    62  H    0.163613
    63  O   -0.446934
    64  C   -0.289241
    65  H    0.164391
    66  H    0.175285
    67  C   -0.199799
    68  H    0.178744
    69  H    0.202397
    70  N   -0.569909
    71  H    0.368151
    72  N   -0.720968
    73  H    0.374362
    74  H    0.390763
    75  N   -0.735782
    76  H    0.378092
    77  H    0.370863
    78  C    0.744048
    79  O   -0.579919
    80  H    0.415711
    81  H    0.425661
 Sum of Mulliken charges =   1.00000

 Dipole moment (field-independent basis, Debye):
    X=            -14.4766    Y=             26.5508    Z=            -10.0023  Tot=             31.8522
 Quadrupole moment (field-independent basis, Debye-Ang):
   XX=           -134.0502   YY=           -157.4566   ZZ=           -103.8698
   XY=             26.1730   XZ=           -113.9057   YZ=            -54.2630

 Normal termination of Gaussian 16 at Thu May 26 18:14:14 2022.
