 Gaussian 16, Revision C.01,
 Gaussian 16:  ES64L-G16RevC.01  3-Jul-2019

 -------------------------------------------------------------------
 # B3LYP/6-31G* guess=read geom=check nosymm integral(ultrafinegrid)
 -------------------------------------------------------------------

 ------------------------------------------------------
 Candidate Structure: Conf:635 Charge calc in gas phase
 ------------------------------------------------------
 Structure from the checkpoint file:  "conf-635.chk"
 Charge =  1 Multiplicity = 1

                          Input orientation:
 ---------------------------------------------------------------------
 Center     Atomic      Atomic             Coordinates (Angstroms)
 Number     Number       Type             X           Y           Z
 ---------------------------------------------------------------------
      1          7           0       -4.056799   -0.113982    4.636312
      2          1           0       -5.068083   -0.222054    4.511674
      3          1           0       -3.572579   -0.957144    4.208338
      4          1           0       -3.857274   -0.034687    5.637010
      5          6           0       -3.481993    1.026651    3.810508
      6          1           0       -4.260487    1.768913    3.642547
      7          6           0       -3.065400    0.302997    2.502308
      8          6           0       -2.295289    1.627669    4.594364
      9          1           0       -2.700375    2.102184    5.497956
     10          1           0       -1.651310    0.800388    4.920530
     11          8           0       -2.831973   -0.913239    2.581334
     12          6           0       -1.394357    2.634008    3.853284
     13          1           0       -0.823935    2.148997    3.047543
     14          1           0       -0.665492    3.033703    4.563393
     15          6           0       -2.123136    3.781718    3.194983
     16          8           0       -3.230413    3.700400    2.678576
     17          8           0       -1.408712    4.907562    3.193838
     18          7           0       -2.993953    1.052653    1.407355
     19          1           0       -3.136594    2.055244    1.522267
     20          6           0       -2.377578    0.587196    0.160485
     21          1           0       -2.663652   -0.457378    0.015737
     22          6           0       -0.847082    0.725466    0.297561
     23          6           0       -2.901225    1.457815   -1.014258
     24          1           0       -2.607754    2.497438   -0.818241
     25          1           0       -3.998028    1.421820   -0.986857
     26          8           0       -0.367831    1.683537    0.916121
     27          6           0       -2.381940    1.009399   -2.345391
     28          6           0       -1.292370    1.517388   -3.014119
     29          1           0       -0.652609    2.349414   -2.749683
     30          6           0       -2.858851   -0.101979   -3.131791
     31          6           0       -1.998861   -0.205379   -4.260169
     32          6           0       -3.922042   -1.013808   -2.999818
     33          1           0       -4.607969   -0.951393   -2.157521
     34          7           0       -1.071610    0.813124   -4.173727
     35          1           0       -0.200723    0.849835   -4.692436
     36          6           0       -3.220065   -2.085952   -5.072615
     37          1           0       -3.379343   -2.864402   -5.813430
     38          6           0       -2.167781   -1.193487   -5.235627
     39          1           0       -1.501325   -1.258359   -6.091319
     40          6           0       -4.092021   -1.995216   -3.967462
     41          1           0       -4.910559   -2.703882   -3.877466
     42          7           0       -0.115729   -0.225455   -0.310311
     43          1           0       -0.567089   -0.919591   -0.898899
     44          6           0        1.314644   -0.100206   -0.538168
     45          1           0        1.594073    0.934008   -0.311349
     46          6           0        1.568052   -0.459387   -2.007739
     47          6           0        2.165131   -1.044847    0.376955
     48          1           0        3.216791   -0.869842    0.094582
     49          8           0        0.823529   -1.223474   -2.607908
     50          6           0        1.979950   -0.704078    1.857344
     51          1           0        2.218634    0.343919    2.074054
     52          1           0        2.631568   -1.345993    2.458852
     53          1           0        0.945039   -0.898756    2.155021
     54          8           0        1.814362   -2.385799    0.122337
     55          7           0        2.721388    0.044863   -2.543021
     56          1           0        3.197004    0.785808   -2.047106
     57          6           0        3.380566   -0.493943   -3.727943
     58          1           0        4.435437   -0.204436   -3.659170
     59          6           0        2.843610    0.111733   -5.026092
     60          6           0        3.310937   -2.045617   -3.722821
     61          1           0        2.356769   -2.369112   -4.142165
     62          1           0        3.285646   -2.304185   -2.663608
     63          8           0        1.824751    0.751310   -5.166267
     64          6           0        4.466755   -2.816462   -4.366898
     65          1           0        4.473249   -2.690183   -5.456249
     66          1           0        5.431559   -2.437589   -3.999857
     67          6           0        4.364983   -4.326709   -4.042375
     68          1           0        3.396545   -4.712124   -4.379976
     69          1           0        5.119622   -4.878629   -4.611644
     70          7           0        4.557801   -4.686674   -2.627446
     71          1           0        5.514939   -4.551476   -2.322466
     72          7           0        2.333006   -4.613932   -1.887824
     73          1           0        1.665289   -4.023205   -1.406414
     74          1           0        2.064802   -4.909570   -2.811830
     75          7           0        3.961822   -3.856181   -0.461912
     76          1           0        4.958120   -3.653897   -0.388985
     77          1           0        2.658752   -2.941076    0.132703
     78          6           0        3.648488   -4.350588   -1.625635
     79          8           0        3.682358   -0.163072   -6.047370
     80          1           0        3.289344    0.219958   -6.855404
     81          1           0       -1.910310    5.580434    2.692166
 ---------------------------------------------------------------------

 SCF Done:  E(RB3LYP) =  -2053.92822250     A.U. after    1 cycles

 Alpha  occ. eigenvalues --  -19.31056 -19.28419 -19.25886 -19.25870 -19.23114
 Alpha  occ. eigenvalues --  -19.20157 -19.19744 -19.18099 -14.60157 -14.48330
 Alpha  occ. eigenvalues --  -14.44799 -14.44064 -14.42534 -14.42255 -14.40624
 Alpha  occ. eigenvalues --  -14.36043 -10.44185 -10.42543 -10.40981 -10.40155
 Alpha  occ. eigenvalues --  -10.37304 -10.36900 -10.35739 -10.34674 -10.33151
 Alpha  occ. eigenvalues --  -10.33017 -10.31844 -10.30786 -10.30765 -10.30139
 Alpha  occ. eigenvalues --  -10.28093 -10.27643 -10.26931 -10.26611 -10.26511
 Alpha  occ. eigenvalues --  -10.24325 -10.24016 -10.23957 -10.23888 -10.23674
 Alpha  occ. eigenvalues --  -10.23508 -10.23275  -1.22332  -1.19408  -1.18387
 Alpha  occ. eigenvalues --   -1.13682  -1.13145  -1.12270  -1.11490  -1.10386
 Alpha  occ. eigenvalues --   -1.06215  -1.05070  -1.04663  -1.02975  -1.01185
 Alpha  occ. eigenvalues --   -1.00370  -0.95677  -0.94402  -0.91308  -0.89466
 Alpha  occ. eigenvalues --   -0.88703  -0.87997  -0.86689  -0.84442  -0.82843
 Alpha  occ. eigenvalues --   -0.81971  -0.79653  -0.78622  -0.78144  -0.77200
 Alpha  occ. eigenvalues --   -0.75437  -0.74077  -0.73633  -0.73540  -0.71679
 Alpha  occ. eigenvalues --   -0.70519  -0.69768  -0.69032  -0.67758  -0.67408
 Alpha  occ. eigenvalues --   -0.67114  -0.65563  -0.65188  -0.64724  -0.64448
 Alpha  occ. eigenvalues --   -0.63389  -0.62733  -0.62437  -0.61519  -0.61067
 Alpha  occ. eigenvalues --   -0.59516  -0.59451  -0.59250  -0.58940  -0.58677
 Alpha  occ. eigenvalues --   -0.57987  -0.57598  -0.56639  -0.56029  -0.55827
 Alpha  occ. eigenvalues --   -0.55368  -0.54387  -0.53943  -0.53755  -0.53380
 Alpha  occ. eigenvalues --   -0.53267  -0.52921  -0.52405  -0.52176  -0.51720
 Alpha  occ. eigenvalues --   -0.51423  -0.51055  -0.50777  -0.50342  -0.50030
 Alpha  occ. eigenvalues --   -0.49701  -0.49357  -0.49027  -0.48893  -0.48477
 Alpha  occ. eigenvalues --   -0.48240  -0.47759  -0.46949  -0.46885  -0.46439
 Alpha  occ. eigenvalues --   -0.46268  -0.45710  -0.45070  -0.44893  -0.44628
 Alpha  occ. eigenvalues --   -0.44192  -0.43939  -0.43620  -0.43312  -0.42695
 Alpha  occ. eigenvalues --   -0.42111  -0.41466  -0.40695  -0.40668  -0.40324
 Alpha  occ. eigenvalues --   -0.39604  -0.39211  -0.38899  -0.38462  -0.38273
 Alpha  occ. eigenvalues --   -0.36861  -0.34913  -0.34539  -0.34167  -0.33842
 Alpha  occ. eigenvalues --   -0.33290  -0.32565  -0.31742  -0.31064  -0.29333
 Alpha  occ. eigenvalues --   -0.27443  -0.25806
 Alpha virt. eigenvalues --   -0.12006  -0.11370  -0.10192  -0.08082  -0.06827
 Alpha virt. eigenvalues --   -0.06617  -0.06050  -0.05638  -0.03302  -0.02646
 Alpha virt. eigenvalues --   -0.02579  -0.02128  -0.01614  -0.01335  -0.00578

 Mulliken charges:
               1
     1  N   -0.752852
     2  H    0.419037
     3  H    0.429986
     4  H    0.411849
     5  C   -0.115899
     6  H    0.235768
     7  C    0.640296
     8  C   -0.300712
     9  H    0.180974
    10  H    0.184608
    11  O   -0.538850
    12  C   -0.401616
    13  H    0.267375
    14  H    0.205615
    15  C    0.613935
    16  O   -0.498214
    17  O   -0.530902
    18  N   -0.600171
    19  H    0.389980
    20  C   -0.066808
    21  H    0.194038
    22  C    0.639361
    23  C   -0.381845
    24  H    0.161362
    25  H    0.167911
    26  O   -0.566296
    27  C    0.045073
    28  C   -0.000671
    29  H    0.149137
    30  C    0.081081
    31  C    0.315114
    32  C   -0.216593
    33  H    0.109096
    34  N   -0.689659
    35  H    0.376918
    36  C   -0.152625
    37  H    0.131155
    38  C   -0.155428
    39  H    0.129058
    40  C   -0.136929
    41  H    0.126744
    42  N   -0.569847
    43  H    0.371364
    44  C   -0.090496
    45  H    0.167272
    46  C    0.649053
    47  C    0.163002
    48  H    0.107130
    49  O   -0.521997
    50  C   -0.449520
    51  H    0.136034
    52  H    0.157463
    53  H    0.152512
    54  O   -0.683456
    55  N   -0.621151
    56  H    0.338587
    57  C   -0.034399
    58  H    0.179209
    59  C    0.595053
    60  C   -0.299246
    61  H    0.178884
    62  H    0.187515
    63  O   -0.462189
    64  C   -0.264289
    65  H    0.164721
    66  H    0.133525
    67  C   -0.175287
    68  H    0.155093
    69  H    0.173477
    70  N   -0.574222
    71  H    0.319024
    72  N   -0.734805
    73  H    0.371828
    74  H    0.336748
    75  N   -0.728201
    76  H    0.277226
    77  H    0.452361
    78  C    0.638396
    79  O   -0.552869
    80  H    0.424860
    81  H    0.432237
 Sum of Mulliken charges =   1.00000

 Dipole moment (field-independent basis, Debye):
    X=             -4.5747    Y=              3.1077    Z=              8.5861  Tot=             10.2131
 Quadrupole moment (field-independent basis, Debye-Ang):
   XX=           -142.8286   YY=           -220.0248   ZZ=           -114.6344
   XY=            -16.0932   XZ=           -104.1631   YZ=             31.0469

 Normal termination of Gaussian 16 at Thu May 26 18:13:37 2022.
