 Gaussian 16, Revision C.01,
 Gaussian 16:  ES64L-G16RevC.01  3-Jul-2019

 -------------------------------------------------------------------
 # B3LYP/6-31G* guess=read geom=check nosymm integral(ultrafinegrid)
 -------------------------------------------------------------------

 ------------------------------------------------------
 Candidate Structure: Conf:549 Charge calc in gas phase
 ------------------------------------------------------
 Structure from the checkpoint file:  "conf-549.chk"
 Charge =  1 Multiplicity = 1

                          Input orientation:
 ---------------------------------------------------------------------
 Center     Atomic      Atomic             Coordinates (Angstroms)
 Number     Number       Type             X           Y           Z
 ---------------------------------------------------------------------
      1          7           0       -5.234545   -0.072646    4.289157
      2          1           0       -5.671935   -0.197028    3.339326
      3          1           0       -4.798034   -0.967110    4.534566
      4          1           0       -5.886409    0.198747    5.037525
      5          6           0       -4.212849    1.015377    4.053593
      6          1           0       -4.760722    1.950956    4.200440
      7          6           0       -3.911670    0.884611    2.531511
      8          6           0       -3.029812    0.934482    5.024443
      9          1           0       -2.366156    0.109152    4.739762
     10          1           0       -2.448170    1.855237    4.909262
     11          8           0       -4.721548    0.233496    1.859998
     12          6           0       -3.397358    0.768075    6.521206
     13          1           0       -2.488244    0.889294    7.113765
     14          1           0       -3.780461   -0.241021    6.715710
     15          6           0       -4.409893    1.772449    7.040809
     16          8           0       -4.181540    2.743089    7.708691
     17          8           0       -5.689815    1.444133    6.640346
     18          7           0       -2.833187    1.515061    2.078173
     19          1           0       -2.116727    1.888009    2.701246
     20          6           0       -2.379143    1.495809    0.688243
     21          1           0       -2.825971    0.629590    0.193367
     22          6           0       -0.842546    1.389228    0.784560
     23          6           0       -2.769881    2.808205   -0.054927
     24          1           0       -2.322335    2.768417   -1.056609
     25          1           0       -2.278786    3.639324    0.464665
     26          8           0       -0.274842    1.813985    1.794054
     27          6           0       -4.241789    3.063590   -0.157592
     28          6           0       -4.948027    4.026966    0.521234
     29          1           0       -4.595274    4.770324    1.224201
     30          6           0       -5.189699    2.387382   -1.012714
     31          6           0       -6.455794    2.993948   -0.794817
     32          6           0       -5.090453    1.349161   -1.955868
     33          1           0       -4.136110    0.867374   -2.155384
     34          7           0       -6.280810    3.977067    0.162707
     35          1           0       -6.973809    4.663518    0.419597
     36          6           0       -7.474225    1.567992   -2.409836
     37          1           0       -8.346170    1.237915   -2.966998
     38          6           0       -7.606206    2.595303   -1.483173
     39          1           0       -8.565546    3.075195   -1.308698
     40          6           0       -6.228182    0.951239   -2.645144
     41          1           0       -6.160686    0.154474   -3.380273
     42          7           0       -0.220857    0.894976   -0.304222
     43          1           0       -0.744690    0.393052   -1.015483
     44          6           0        1.219815    0.676711   -0.410983
     45          1           0        1.665195    0.852648    0.571981
     46          6           0        1.900880    1.631157   -1.411656
     47          6           0        1.446935   -0.787495   -0.872166
     48          1           0        2.486999   -0.848644   -1.207127
     49          8           0        3.071588    1.456369   -1.730411
     50          6           0        1.196166   -1.797376    0.246034
     51          1           0        1.873227   -1.634119    1.093134
     52          1           0        1.354546   -2.810657   -0.135230
     53          1           0        0.162707   -1.734982    0.607173
     54          8           0        0.559119   -1.030453   -1.959695
     55          7           0        1.138248    2.637324   -1.910221
     56          1           0        0.219546    2.816642   -1.529797
     57          6           0        1.649265    3.576969   -2.890244
     58          1           0        2.649287    3.907105   -2.585103
     59          6           0        0.719231    4.778341   -2.893224
     60          6           0        1.770698    2.934769   -4.296782
     61          1           0        2.381592    2.038248   -4.157273
     62          1           0        2.339251    3.613929   -4.941527
     63          8           0       -0.343832    4.831634   -2.306514
     64          6           0        0.425476    2.583543   -4.951486
     65          1           0       -0.319391    2.339379   -4.180762
     66          1           0        0.028521    3.450790   -5.494715
     67          6           0        0.514983    1.395075   -5.921236
     68          1           0       -0.401275    1.344137   -6.523529
     69          1           0        1.351085    1.544150   -6.610419
     70          7           0        0.704152    0.122924   -5.223442
     71          1           0        0.179679    0.015819   -4.362365
     72          7           0        2.671701   -0.507369   -6.320196
     73          1           0        3.449300   -1.153561   -6.349206
     74          1           0        2.201776   -0.428589   -7.214062
     75          7           0        2.087640   -1.391877   -4.181582
     76          1           0        1.112215   -1.265994   -2.766771
     77          1           0        2.878871   -2.015015   -4.318513
     78          6           0        1.851141   -0.637303   -5.207906
     79          8           0        1.195857    5.779301   -3.653868
     80          1           0        0.538344    6.500506   -3.623778
     81          1           0       -6.289784    2.109520    7.032727
 ---------------------------------------------------------------------

 SCF Done:  E(RB3LYP) =  -2053.93542053     A.U. after    1 cycles

 Alpha  occ. eigenvalues --  -19.33806 -19.27560 -19.27435 -19.25870 -19.22189
 Alpha  occ. eigenvalues --  -19.21376 -19.18159 -19.17397 -14.59632 -14.48919
 Alpha  occ. eigenvalues --  -14.45452 -14.45033 -14.42430 -14.41944 -14.41479
 Alpha  occ. eigenvalues --  -14.35939 -10.45624 -10.43160 -10.40933 -10.40009
 Alpha  occ. eigenvalues --  -10.38455 -10.35776 -10.35759 -10.34878 -10.34649
 Alpha  occ. eigenvalues --  -10.33907 -10.30906 -10.29817 -10.29725 -10.29467
 Alpha  occ. eigenvalues --  -10.29103 -10.29011 -10.28671 -10.26111 -10.25774
 Alpha  occ. eigenvalues --  -10.25752 -10.25606 -10.25554 -10.25475 -10.25168
 Alpha  occ. eigenvalues --  -10.24801 -10.23384  -1.23816  -1.18610  -1.18603
 Alpha  occ. eigenvalues --   -1.15226  -1.13761  -1.13143  -1.09921  -1.09378
 Alpha  occ. eigenvalues --   -1.05966  -1.05527  -1.05228  -1.04688  -1.01337
 Alpha  occ. eigenvalues --   -0.98949  -0.95771  -0.95752  -0.91403  -0.90898
 Alpha  occ. eigenvalues --   -0.90059  -0.87929  -0.86656  -0.85100  -0.82957
 Alpha  occ. eigenvalues --   -0.81354  -0.80511  -0.80346  -0.79376  -0.77311
 Alpha  occ. eigenvalues --   -0.75905  -0.74863  -0.74497  -0.73891  -0.72142
 Alpha  occ. eigenvalues --   -0.70603  -0.69671  -0.69285  -0.68444  -0.67951
 Alpha  occ. eigenvalues --   -0.67308  -0.66644  -0.66330  -0.65178  -0.64422
 Alpha  occ. eigenvalues --   -0.63777  -0.63116  -0.61840  -0.61363  -0.61063
 Alpha  occ. eigenvalues --   -0.60787  -0.60274  -0.59878  -0.58548  -0.58524
 Alpha  occ. eigenvalues --   -0.57987  -0.57179  -0.57069  -0.56533  -0.55789
 Alpha  occ. eigenvalues --   -0.55710  -0.55108  -0.54745  -0.54553  -0.54178
 Alpha  occ. eigenvalues --   -0.54156  -0.53706  -0.53134  -0.52976  -0.52391
 Alpha  occ. eigenvalues --   -0.51814  -0.51452  -0.51058  -0.50839  -0.50478
 Alpha  occ. eigenvalues --   -0.50110  -0.49945  -0.49580  -0.49423  -0.49008
 Alpha  occ. eigenvalues --   -0.48717  -0.48108  -0.47783  -0.47312  -0.46973
 Alpha  occ. eigenvalues --   -0.46142  -0.45939  -0.45687  -0.45234  -0.44942
 Alpha  occ. eigenvalues --   -0.44909  -0.44236  -0.43222  -0.42611  -0.42226
 Alpha  occ. eigenvalues --   -0.42073  -0.40943  -0.40744  -0.40492  -0.40428
 Alpha  occ. eigenvalues --   -0.40424  -0.40171  -0.39719  -0.38946  -0.38439
 Alpha  occ. eigenvalues --   -0.36278  -0.35728  -0.35544  -0.34219  -0.34046
 Alpha  occ. eigenvalues --   -0.32878  -0.32074  -0.31583  -0.30537  -0.29288
 Alpha  occ. eigenvalues --   -0.29088  -0.27675
 Alpha virt. eigenvalues --   -0.13346  -0.11788  -0.09781  -0.08277  -0.07184
 Alpha virt. eigenvalues --   -0.06923  -0.06145  -0.04352  -0.03786  -0.03560
 Alpha virt. eigenvalues --   -0.02760  -0.02585  -0.02066  -0.01739  -0.00898

 Mulliken charges:
               1
     1  N   -0.756117
     2  H    0.432806
     3  H    0.406655
     4  H    0.428851
     5  C   -0.121589
     6  H    0.231634
     7  C    0.663971
     8  C   -0.322598
     9  H    0.199357
    10  H    0.214042
    11  O   -0.532727
    12  C   -0.364795
    13  H    0.231144
    14  H    0.175805
    15  C    0.582626
    16  O   -0.396733
    17  O   -0.609675
    18  N   -0.602852
    19  H    0.369239
    20  C   -0.082502
    21  H    0.195060
    22  C    0.624578
    23  C   -0.366947
    24  H    0.178771
    25  H    0.168756
    26  O   -0.537543
    27  C    0.080703
    28  C   -0.018760
    29  H    0.150991
    30  C    0.099973
    31  C    0.304814
    32  C   -0.206838
    33  H    0.113325
    34  N   -0.689227
    35  H    0.334914
    36  C   -0.150233
    37  H    0.139619
    38  C   -0.162683
    39  H    0.133558
    40  C   -0.138166
    41  H    0.134298
    42  N   -0.632589
    43  H    0.359156
    44  C   -0.060278
    45  H    0.200350
    46  C    0.628313
    47  C    0.109813
    48  H    0.173221
    49  O   -0.525251
    50  C   -0.441842
    51  H    0.143907
    52  H    0.163603
    53  H    0.125621
    54  O   -0.714119
    55  N   -0.631811
    56  H    0.358585
    57  C   -0.034475
    58  H    0.203925
    59  C    0.587900
    60  C   -0.278202
    61  H    0.202135
    62  H    0.165071
    63  O   -0.481325
    64  C   -0.285284
    65  H    0.136400
    66  H    0.152249
    67  C   -0.147770
    68  H    0.157424
    69  H    0.167856
    70  N   -0.590828
    71  H    0.331637
    72  N   -0.746060
    73  H    0.338446
    74  H    0.339778
    75  N   -0.731658
    76  H    0.462527
    77  H    0.289429
    78  C    0.664809
    79  O   -0.557885
    80  H    0.422690
    81  H    0.439025
 Sum of Mulliken charges =   1.00000

 Dipole moment (field-independent basis, Debye):
    X=            -19.2808    Y=              5.0864    Z=              9.0788  Tot=             21.9100
 Quadrupole moment (field-independent basis, Debye-Ang):
   XX=           -123.0649   YY=           -203.8542   ZZ=            -95.5336
   XY=            -33.2087   XZ=           -106.1746   YZ=             -7.0108

 Normal termination of Gaussian 16 at Thu May 26 18:13:26 2022.
