 Gaussian 16, Revision C.01,
 Gaussian 16:  ES64L-G16RevC.01  3-Jul-2019

 -------------------------------------------------------------------
 # B3LYP/6-31G* guess=read geom=check nosymm integral(ultrafinegrid)
 -------------------------------------------------------------------

 ------------------------------------------------------
 Candidate Structure: Conf:448 Charge calc in gas phase
 ------------------------------------------------------
 Structure from the checkpoint file:  "conf-448.chk"
 Charge =  1 Multiplicity = 1

                          Input orientation:
 ---------------------------------------------------------------------
 Center     Atomic      Atomic             Coordinates (Angstroms)
 Number     Number       Type             X           Y           Z
 ---------------------------------------------------------------------
      1          7           0       -4.910641   -1.506237    2.008472
      2          1           0       -5.454698   -0.926889    2.664813
      3          1           0       -5.247704   -1.287714    1.040328
      4          1           0       -5.015640   -2.520085    2.164690
      5          6           0       -3.460669   -1.074323    1.959778
      6          1           0       -3.206406   -0.584896    2.900280
      7          6           0       -3.452249   -0.051016    0.800799
      8          6           0       -2.493524   -2.251613    1.761925
      9          1           0       -1.497221   -1.789480    1.791494
     10          1           0       -2.588853   -2.896775    2.642634
     11          8           0       -4.311947   -0.171456   -0.091775
     12          6           0       -2.681303   -3.096411    0.481264
     13          1           0       -1.720884   -3.419993    0.071755
     14          1           0       -3.177232   -2.508984   -0.304289
     15          6           0       -3.550335   -4.312979    0.700271
     16          8           0       -4.475400   -4.378013    1.498198
     17          8           0       -3.221080   -5.345087   -0.087277
     18          7           0       -2.512176    0.884535    0.894420
     19          1           0       -1.700425    0.655547    1.560880
     20          6           0       -2.353084    1.955236   -0.091188
     21          1           0       -2.817174    1.604741   -1.020684
     22          6           0       -0.838560    2.211020   -0.307923
     23          6           0       -3.073943    3.255041    0.364109
     24          1           0       -2.914142    4.009777   -0.411481
     25          1           0       -2.577778    3.628363    1.267557
     26          8           0       -0.410067    3.335553   -0.572731
     27          6           0       -4.541146    3.039059    0.617408
     28          6           0       -5.556866    3.240776   -0.283165
     29          1           0       -5.517403    3.660630   -1.279326
     30          6           0       -5.157753    2.448395    1.784947
     31          6           0       -6.545295    2.290945    1.499026
     32          6           0       -4.680711    2.021751    3.037856
     33          1           0       -3.635348    2.154294    3.300646
     34          7           0       -6.757529    2.795387    0.236476
     35          1           0       -7.649929    2.853982   -0.229056
     36          6           0       -6.924971    1.244770    3.612977
     37          1           0       -7.592121    0.784437    4.336494
     38          6           0       -7.435191    1.686836    2.396421
     39          1           0       -8.487837    1.567496    2.153430
     40          6           0       -5.559932    1.420722    3.936144
     41          1           0       -5.201728    1.115057    4.916344
     42          7           0       -0.051947    1.122225   -0.105313
     43          1           0       -0.517860    0.241472    0.219331
     44          6           0        1.146529    1.212955    0.711974
     45          1           0        1.144243    2.193825    1.204952
     46          6           0        2.393004    1.086798   -0.135770
     47          6           0        0.970755    0.046828    1.845304
     48          1           0        1.630904   -0.778792    1.509233
     49          8           0        2.513610    0.287551   -1.057586
     50          6           0        1.528208    0.583866    3.171880
     51          1           0        2.571666    0.915567    3.076429
     52          1           0        1.485580   -0.198957    3.936284
     53          1           0        0.921601    1.429535    3.522272
     54          8           0       -0.333668   -0.357567    1.932839
     55          7           0        3.397860    1.982017    0.184035
     56          1           0        3.209185    2.689539    0.880736
     57          6           0        4.499733    2.187222   -0.724277
     58          1           0        4.558790    1.252219   -1.296002
     59          6           0        5.853112    2.378829   -0.047838
     60          6           0        4.251310    3.353199   -1.710010
     61          1           0        5.105947    3.391824   -2.395627
     62          1           0        4.261033    4.303806   -1.157988
     63          8           0        6.834479    2.788918   -0.631060
     64          6           0        2.916343    3.207507   -2.455168
     65          1           0        2.827680    2.210740   -2.906326
     66          1           0        2.077148    3.286469   -1.754193
     67          6           0        2.697259    4.279370   -3.521194
     68          1           0        1.688361    4.188721   -3.942310
     69          1           0        2.810275    5.279134   -3.084441
     70          7           0        3.690246    4.140497   -4.610541
     71          1           0        4.190706    3.261275   -4.654354
     72          7           0        3.167384    6.128258   -5.677613
     73          1           0        3.456372    6.917114   -6.237686
     74          1           0        2.328784    6.232692   -5.125733
     75          7           0        4.976321    4.875813   -6.393464
     76          1           0        5.658043    4.145353   -6.247158
     77          1           0        5.059374    5.420601   -7.239048
     78          6           0        3.940109    5.039821   -5.554145
     79          8           0        5.853817    2.034438    1.253169
     80          1           0        6.766780    2.169960    1.572663
     81          1           0       -3.845513   -6.070876    0.107223
 ---------------------------------------------------------------------

 SCF Done:  E(RB3LYP) =  -2053.88779005     A.U. after    1 cycles

 Alpha  occ. eigenvalues --  -19.27547 -19.26872 -19.22452 -19.21036 -19.19854
 Alpha  occ. eigenvalues --  -19.17197 -19.16736 -19.09463 -14.53516 -14.53346
 Alpha  occ. eigenvalues --  -14.53079 -14.51825 -14.44159 -14.42074 -14.41766
 Alpha  occ. eigenvalues --  -14.38639 -10.49667 -10.40291 -10.39333 -10.36218
 Alpha  occ. eigenvalues --  -10.35880 -10.33825 -10.33685 -10.32897 -10.31233
 Alpha  occ. eigenvalues --  -10.29185 -10.28829 -10.28366 -10.28264 -10.27905
 Alpha  occ. eigenvalues --  -10.27326 -10.26312 -10.25681 -10.25642 -10.25509
 Alpha  occ. eigenvalues --  -10.25311 -10.25205 -10.25038 -10.24954 -10.24771
 Alpha  occ. eigenvalues --  -10.24170 -10.19946  -1.18717  -1.18220  -1.17822
 Alpha  occ. eigenvalues --   -1.11768  -1.09487  -1.08917  -1.08691  -1.08205
 Alpha  occ. eigenvalues --   -1.07195  -1.06456  -1.06113  -1.04054  -0.99944
 Alpha  occ. eigenvalues --   -0.98886  -0.97460  -0.93984  -0.90738  -0.90366
 Alpha  occ. eigenvalues --   -0.87860  -0.86252  -0.85228  -0.82967  -0.81058
 Alpha  occ. eigenvalues --   -0.80481  -0.79906  -0.79203  -0.78039  -0.77168
 Alpha  occ. eigenvalues --   -0.75584  -0.73874  -0.73219  -0.72909  -0.70790
 Alpha  occ. eigenvalues --   -0.70111  -0.68615  -0.67471  -0.67228  -0.66667
 Alpha  occ. eigenvalues --   -0.66364  -0.66115  -0.65586  -0.65226  -0.64648
 Alpha  occ. eigenvalues --   -0.63703  -0.62209  -0.62036  -0.61074  -0.60421
 Alpha  occ. eigenvalues --   -0.59980  -0.59905  -0.59269  -0.58610  -0.57295
 Alpha  occ. eigenvalues --   -0.56346  -0.56190  -0.55622  -0.55525  -0.55207
 Alpha  occ. eigenvalues --   -0.55018  -0.54195  -0.53887  -0.53683  -0.53385
 Alpha  occ. eigenvalues --   -0.52556  -0.51834  -0.51619  -0.50995  -0.50244
 Alpha  occ. eigenvalues --   -0.50036  -0.49398  -0.48782  -0.48434  -0.48257
 Alpha  occ. eigenvalues --   -0.47711  -0.47473  -0.47090  -0.46733  -0.46382
 Alpha  occ. eigenvalues --   -0.46073  -0.45827  -0.45738  -0.44944  -0.44491
 Alpha  occ. eigenvalues --   -0.44422  -0.44237  -0.43792  -0.43481  -0.43207
 Alpha  occ. eigenvalues --   -0.43149  -0.42824  -0.42503  -0.42044  -0.41560
 Alpha  occ. eigenvalues --   -0.41331  -0.40761  -0.40119  -0.40011  -0.39773
 Alpha  occ. eigenvalues --   -0.39507  -0.38800  -0.37863  -0.36616  -0.36077
 Alpha  occ. eigenvalues --   -0.35243  -0.34307  -0.33577  -0.33106  -0.31393
 Alpha  occ. eigenvalues --   -0.31370  -0.30520  -0.29044  -0.28871  -0.26308
 Alpha  occ. eigenvalues --   -0.24826  -0.23999
 Alpha virt. eigenvalues --   -0.13181  -0.09597  -0.07741  -0.07014  -0.06439
 Alpha virt. eigenvalues --   -0.05796  -0.05718  -0.04917  -0.04354  -0.04170
 Alpha virt. eigenvalues --   -0.04132  -0.03207  -0.01782  -0.00564   0.00260

 Mulliken charges:
               1
     1  N   -0.776430
     2  H    0.403897
     3  H    0.406596
     4  H    0.419036
     5  C   -0.105918
     6  H    0.205573
     7  C    0.650144
     8  C   -0.331750
     9  H    0.277445
    10  H    0.161662
    11  O   -0.571575
    12  C   -0.384930
    13  H    0.206576
    14  H    0.204107
    15  C    0.593676
    16  O   -0.496365
    17  O   -0.540860
    18  N   -0.639973
    19  H    0.375241
    20  C   -0.046241
    21  H    0.187619
    22  C    0.583241
    23  C   -0.340220
    24  H    0.165756
    25  H    0.155917
    26  O   -0.548067
    27  C    0.075577
    28  C    0.018283
    29  H    0.155812
    30  C    0.073267
    31  C    0.322770
    32  C   -0.220592
    33  H    0.143417
    34  N   -0.686212
    35  H    0.335526
    36  C   -0.180544
    37  H    0.140328
    38  C   -0.166827
    39  H    0.138521
    40  C   -0.188784
    41  H    0.137965
    42  N   -0.572447
    43  H    0.341187
    44  C   -0.121993
    45  H    0.124929
    46  C    0.646773
    47  C    0.211037
    48  H    0.093831
    49  O   -0.534121
    50  C   -0.455943
    51  H    0.116481
    52  H    0.148315
    53  H    0.123252
    54  O   -0.691012
    55  N   -0.606253
    56  H    0.332474
    57  C   -0.059178
    58  H    0.215910
    59  C    0.592573
    60  C   -0.269309
    61  H    0.147225
    62  H    0.148479
    63  O   -0.472163
    64  C   -0.342193
    65  H    0.185442
    66  H    0.220351
    67  C   -0.157650
    68  H    0.196030
    69  H    0.181403
    70  N   -0.597480
    71  H    0.369776
    72  N   -0.758553
    73  H    0.385897
    74  H    0.398046
    75  N   -0.764997
    76  H    0.388791
    77  H    0.385479
    78  C    0.842811
    79  O   -0.550452
    80  H    0.420976
    81  H    0.423612
 Sum of Mulliken charges =   1.00000

 Dipole moment (field-independent basis, Debye):
    X=              2.8716    Y=             17.1812    Z=            -18.2682  Tot=             25.2421
 Quadrupole moment (field-independent basis, Debye-Ang):
   XX=            -96.2160   YY=           -109.5686   ZZ=            -97.0564
   XY=             89.4073   XZ=            -97.6578   YZ=           -124.5970

 Normal termination of Gaussian 16 at Thu May 26 18:09:17 2022.
