 Gaussian 16, Revision C.01,
 Gaussian 16:  ES64L-G16RevC.01  3-Jul-2019

 -------------------------------------------------------------------
 # B3LYP/6-31G* guess=read geom=check nosymm integral(ultrafinegrid)
 -------------------------------------------------------------------

 ------------------------------------------------------
 Candidate Structure: Conf:190 Charge calc in gas phase
 ------------------------------------------------------
 Structure from the checkpoint file:  "conf-190.chk"
 Charge =  1 Multiplicity = 1

                          Input orientation:
 ---------------------------------------------------------------------
 Center     Atomic      Atomic             Coordinates (Angstroms)
 Number     Number       Type             X           Y           Z
 ---------------------------------------------------------------------
      1          7           0       -4.471522   -3.930202   -0.436202
      2          1           0       -4.760397   -3.508912    0.463917
      3          1           0       -5.084337   -3.522608   -1.191419
      4          1           0       -4.550519   -4.947792   -0.384923
      5          6           0       -3.094540   -3.442382   -0.844150
      6          1           0       -2.556060   -3.178779    0.066853
      7          6           0       -3.444612   -2.165186   -1.660652
      8          6           0       -2.312484   -4.481450   -1.647459
      9          1           0       -2.867652   -4.752757   -2.552795
     10          1           0       -1.385389   -3.972358   -1.946295
     11          8           0       -4.568153   -2.116827   -2.190625
     12          6           0       -1.944058   -5.737215   -0.835286
     13          1           0       -2.837741   -6.254661   -0.452731
     14          1           0       -1.314431   -5.474478    0.018345
     15          6           0       -1.177377   -6.757492   -1.659667
     16          8           0       -0.096068   -7.214716   -1.381303
     17          8           0       -1.875680   -7.116565   -2.766841
     18          7           0       -2.499249   -1.234902   -1.656289
     19          1           0       -1.508091   -1.534411   -1.329503
     20          6           0       -2.676515    0.122436   -2.170775
     21          1           0       -3.387351    0.088452   -3.005943
     22          6           0       -1.309187    0.651518   -2.667200
     23          6           0       -3.245920    1.082632   -1.082272
     24          1           0       -3.319047    2.075737   -1.534161
     25          1           0       -2.506945    1.166804   -0.276479
     26          8           0       -1.075216    1.869740   -2.654682
     27          6           0       -4.573753    0.642964   -0.535225
     28          6           0       -5.808673    0.991399   -1.023183
     29          1           0       -6.064536    1.682238   -1.815245
     30          6           0       -4.817812   -0.314245    0.517526
     31          6           0       -6.227832   -0.519870    0.585871
     32          6           0       -3.992338   -1.031137    1.402069
     33          1           0       -2.917682   -0.869750    1.405725
     34          7           0       -6.800695    0.299588   -0.358134
     35          1           0       -7.790333    0.400151   -0.524821
     36          6           0       -5.966517   -2.154200    2.308622
     37          1           0       -6.390950   -2.858088    3.018997
     38          6           0       -6.812340   -1.434537    1.468450
     39          1           0       -7.888964   -1.577390    1.503213
     40          6           0       -4.566848   -1.947883    2.282582
     41          1           0       -3.937031   -2.482168    2.989387
     42          7           0       -0.392119   -0.277842   -3.017822
     43          1           0       -0.687348   -1.256224   -2.896775
     44          6           0        0.957232   -0.224742   -2.479821
     45          1           0        1.053473    0.685743   -1.874276
     46          6           0        1.997294   -0.100964   -3.584634
     47          6           0        1.080167   -1.538894   -1.489933
     48          1           0        1.885136   -2.167545   -1.922692
     49          8           0        1.697375    0.219897   -4.747389
     50          6           0        1.544104   -1.066432   -0.102576
     51          1           0        2.501988   -0.526125   -0.127955
     52          1           0        1.660935   -1.933194    0.555660
     53          1           0        0.791180   -0.402176    0.341484
     54          8           0       -0.098723   -2.218383   -1.451507
     55          7           0        3.282152   -0.278063   -3.211696
     56          1           0        3.515002   -0.628380   -2.287319
     57          6           0        4.409860   -0.099286   -4.116196
     58          1           0        4.275314   -0.733132   -5.002177
     59          6           0        5.637826   -0.622700   -3.374542
     60          6           0        4.606657    1.377207   -4.587536
     61          1           0        5.670334    1.628444   -4.548007
     62          1           0        4.109487    2.014119   -3.847751
     63          8           0        5.641342   -0.985242   -2.218805
     64          6           0        4.074370    1.670373   -6.012810
     65          1           0        4.909302    1.733720   -6.718551
     66          1           0        3.431956    0.853971   -6.353409
     67          6           0        3.282425    2.978531   -6.125226
     68          1           0        3.860227    3.814732   -5.710704
     69          1           0        3.089564    3.192373   -7.186113
     70          7           0        2.009536    2.872850   -5.398952
     71          1           0        1.693653    1.918490   -5.163975
     72          7           0        1.553599    5.146988   -5.488444
     73          1           0        1.011998    5.944181   -5.190316
     74          1           0        2.142898    5.273886   -6.296890
     75          7           0        0.189422    3.737841   -4.249928
     76          1           0       -0.039590    2.867047   -3.742536
     77          1           0       -0.469742    4.491881   -4.123872
     78          6           0        1.243748    3.903047   -5.052010
     79          8           0        6.723707   -0.634508   -4.167659
     80          1           0        7.465297   -0.981144   -3.635365
     81          1           0       -1.326897   -7.769203   -3.241990
 ---------------------------------------------------------------------

 SCF Done:  E(RB3LYP) =  -2053.91515376     A.U. after    1 cycles

 Alpha  occ. eigenvalues --  -19.28619 -19.26707 -19.23220 -19.21423 -19.20949
 Alpha  occ. eigenvalues --  -19.20885 -19.20218 -19.11754 -14.54738 -14.49317
 Alpha  occ. eigenvalues --  -14.47411 -14.47092 -14.45932 -14.44550 -14.42909
 Alpha  occ. eigenvalues --  -14.41737 -10.44648 -10.41210 -10.39379 -10.38017
 Alpha  occ. eigenvalues --  -10.37204 -10.37112 -10.35149 -10.33537 -10.33174
 Alpha  occ. eigenvalues --  -10.31591 -10.30233 -10.29677 -10.29336 -10.29115
 Alpha  occ. eigenvalues --  -10.28726 -10.28479 -10.28352 -10.28307 -10.27500
 Alpha  occ. eigenvalues --  -10.27220 -10.27213 -10.27051 -10.26945 -10.26689
 Alpha  occ. eigenvalues --  -10.25949 -10.22406  -1.19723  -1.17488  -1.13654
 Alpha  occ. eigenvalues --   -1.13148  -1.12155  -1.11651  -1.10807  -1.08609
 Alpha  occ. eigenvalues --   -1.08581  -1.05898  -1.02437  -1.02380  -1.01100
 Alpha  occ. eigenvalues --   -1.01082  -0.99726  -0.97037  -0.92336  -0.90088
 Alpha  occ. eigenvalues --   -0.89520  -0.88172  -0.85585  -0.84779  -0.82222
 Alpha  occ. eigenvalues --   -0.81812  -0.81077  -0.79647  -0.78317  -0.76386
 Alpha  occ. eigenvalues --   -0.75271  -0.74463  -0.72948  -0.71557  -0.70560
 Alpha  occ. eigenvalues --   -0.70238  -0.69627  -0.68894  -0.67995  -0.67528
 Alpha  occ. eigenvalues --   -0.67345  -0.66904  -0.66632  -0.66290  -0.64714
 Alpha  occ. eigenvalues --   -0.64215  -0.62713  -0.62442  -0.62170  -0.61571
 Alpha  occ. eigenvalues --   -0.60864  -0.60066  -0.58503  -0.58309  -0.57912
 Alpha  occ. eigenvalues --   -0.56989  -0.56793  -0.56621  -0.56033  -0.55842
 Alpha  occ. eigenvalues --   -0.55597  -0.55300  -0.55019  -0.54535  -0.54245
 Alpha  occ. eigenvalues --   -0.53926  -0.52927  -0.52829  -0.52139  -0.51829
 Alpha  occ. eigenvalues --   -0.51714  -0.51327  -0.50520  -0.50167  -0.49956
 Alpha  occ. eigenvalues --   -0.49719  -0.49351  -0.49177  -0.48527  -0.48142
 Alpha  occ. eigenvalues --   -0.47910  -0.47687  -0.46961  -0.46397  -0.46220
 Alpha  occ. eigenvalues --   -0.45662  -0.45364  -0.45185  -0.45034  -0.44450
 Alpha  occ. eigenvalues --   -0.44244  -0.44076  -0.43935  -0.43446  -0.43005
 Alpha  occ. eigenvalues --   -0.42661  -0.41983  -0.41443  -0.40892  -0.40736
 Alpha  occ. eigenvalues --   -0.39908  -0.39412  -0.38827  -0.37108  -0.36768
 Alpha  occ. eigenvalues --   -0.36339  -0.35687  -0.35417  -0.34583  -0.34328
 Alpha  occ. eigenvalues --   -0.34218  -0.33502  -0.32686  -0.30832  -0.28169
 Alpha  occ. eigenvalues --   -0.27137  -0.26540
 Alpha virt. eigenvalues --   -0.09687  -0.08606  -0.08260  -0.08130  -0.07400
 Alpha virt. eigenvalues --   -0.07194  -0.06536  -0.06184  -0.05061  -0.04126
 Alpha virt. eigenvalues --   -0.01956  -0.01627  -0.00831  -0.00081   0.00573

 Mulliken charges:
               1
     1  N   -0.769153
     2  H    0.413630
     3  H    0.416607
     4  H    0.394666
     5  C   -0.100295
     6  H    0.206802
     7  C    0.648475
     8  C   -0.319132
     9  H    0.179086
    10  H    0.249147
    11  O   -0.565420
    12  C   -0.357280
    13  H    0.144841
    14  H    0.200409
    15  C    0.577989
    16  O   -0.433778
    17  O   -0.564640
    18  N   -0.656817
    19  H    0.393724
    20  C   -0.042310
    21  H    0.193724
    22  C    0.594431
    23  C   -0.345030
    24  H    0.170909
    25  H    0.157964
    26  O   -0.564175
    27  C    0.078876
    28  C    0.023954
    29  H    0.163771
    30  C    0.072875
    31  C    0.325201
    32  C   -0.227739
    33  H    0.149675
    34  N   -0.684658
    35  H    0.340956
    36  C   -0.181305
    37  H    0.147240
    38  C   -0.164898
    39  H    0.146397
    40  C   -0.203952
    41  H    0.144400
    42  N   -0.544039
    43  H    0.348288
    44  C   -0.153221
    45  H    0.170668
    46  C    0.625953
    47  C    0.211612
    48  H    0.089530
    49  O   -0.569746
    50  C   -0.464749
    51  H    0.119096
    52  H    0.158365
    53  H    0.128507
    54  O   -0.698545
    55  N   -0.624915
    56  H    0.379108
    57  C    0.000556
    58  H    0.203625
    59  C    0.563819
    60  C   -0.291252
    61  H    0.181664
    62  H    0.162457
    63  O   -0.451491
    64  C   -0.305346
    65  H    0.168940
    66  H    0.195320
    67  C   -0.160327
    68  H    0.171341
    69  H    0.171127
    70  N   -0.634959
    71  H    0.428067
    72  N   -0.766884
    73  H    0.369360
    74  H    0.377753
    75  N   -0.791414
    76  H    0.422709
    77  H    0.356808
    78  C    0.804989
    79  O   -0.560548
    80  H    0.430704
    81  H    0.421905
 Sum of Mulliken charges =   1.00000

 Dipole moment (field-independent basis, Debye):
    X=             -6.0489    Y=              4.4389    Z=            -15.4570  Tot=             17.1817
 Quadrupole moment (field-independent basis, Debye-Ang):
   XX=           -109.8795   YY=           -138.5898   ZZ=           -155.9829
   XY=             58.7698   XZ=            -46.1401   YZ=            -64.4847

 Normal termination of Gaussian 16 at Thu May 26 18:09:12 2022.
