 Gaussian 16, Revision C.01,
 Gaussian 16:  ES64L-G16RevC.01  3-Jul-2019

 -------------------------------------------------------------------
 # B3LYP/6-31G* guess=read geom=check nosymm integral(ultrafinegrid)
 -------------------------------------------------------------------

 ------------------------------------------------------
 Candidate Structure: Conf:883 Charge calc in gas phase
 ------------------------------------------------------
 Structure from the checkpoint file:  "conf-883.chk"
 Charge =  1 Multiplicity = 1

                          Input orientation:
 ---------------------------------------------------------------------
 Center     Atomic      Atomic             Coordinates (Angstroms)
 Number     Number       Type             X           Y           Z
 ---------------------------------------------------------------------
      1          7           0       -5.736571    0.501015    3.429592
      2          1           0       -6.431125    1.230370    3.246294
      3          1           0       -5.775633   -0.226858    2.639389
      4          1           0       -5.931081    0.083424    4.343549
      5          6           0       -4.305602    0.985221    3.282174
      6          1           0       -4.303859    2.077319    3.322720
      7          6           0       -3.942018    0.455873    1.862075
      8          6           0       -3.449902    0.387668    4.413955
      9          1           0       -3.930872    0.623324    5.370876
     10          1           0       -3.437487   -0.705187    4.308402
     11          8           0       -4.682193   -0.432837    1.393627
     12          6           0       -2.007459    0.925774    4.460805
     13          1           0       -2.021895    2.021409    4.535384
     14          1           0       -1.428839    0.657091    3.575932
     15          6           0       -1.249600    0.394754    5.668801
     16          8           0       -0.179987   -0.157992    5.631655
     17          8           0       -1.933320    0.630304    6.818699
     18          7           0       -2.878665    0.982408    1.292316
     19          1           0       -2.279970    1.696197    1.737563
     20          6           0       -2.260215    0.570037    0.028451
     21          1           0       -2.277066   -0.521089   -0.042732
     22          6           0       -0.807279    1.101345    0.186129
     23          6           0       -3.031676    1.183408   -1.174938
     24          1           0       -2.898593    2.271265   -1.147896
     25          1           0       -4.095115    0.990253   -0.990230
     26          8           0       -0.607247    1.971149    1.056925
     27          6           0       -2.655579    0.644539   -2.526625
     28          6           0       -3.101399   -0.537967   -3.069997
     29          1           0       -3.752773   -1.290278   -2.644892
     30          6           0       -1.840748    1.275661   -3.538500
     31          6           0       -1.845193    0.419181   -4.672766
     32          6           0       -1.128120    2.485346   -3.608496
     33          1           0       -1.095141    3.160091   -2.757160
     34          7           0       -2.613910   -0.680697   -4.351126
     35          1           0       -2.813733   -1.455855   -4.963571
     36          6           0       -0.493923    1.951906   -5.901101
     37          1           0        0.016203    2.247840   -6.814035
     38          6           0       -1.183083    0.744846   -5.861327
     39          1           0       -1.228373    0.090548   -6.729033
     40          6           0       -0.463015    2.811514   -4.782751
     41          1           0        0.085732    3.746562   -4.846455
     42          7           0        0.118743    0.580913   -0.605716
     43          1           0       -0.090761   -0.053761   -1.386160
     44          6           0        1.513273    1.016737   -0.653695
     45          1           0        1.549682    2.109441   -0.718346
     46          6           0        2.101826    0.398668   -1.945257
     47          6           0        2.335027    0.625572    0.611171
     48          1           0        1.819809    1.060171    1.475660
     49          8           0        1.350461   -0.345546   -2.647378
     50          6           0        2.449226   -0.890596    0.814052
     51          1           0        1.464732   -1.367098    0.906405
     52          1           0        3.017122   -1.089203    1.728463
     53          1           0        2.981138   -1.354400   -0.023893
     54          8           0        3.602688    1.244053    0.548766
     55          7           0        3.368296    0.717177   -2.145820
     56          1           0        3.909605    1.119922   -0.383499
     57          6           0        3.902515    0.114502   -3.337722
     58          1           0        3.526808   -0.913969   -3.454317
     59          6           0        5.413715    0.015980   -3.259545
     60          6           0        3.503675    0.925769   -4.613234
     61          1           0        4.100457    1.843310   -4.653887
     62          1           0        2.461167    1.223104   -4.466385
     63          8           0        6.206502    0.739552   -2.723168
     64          6           0        3.629675    0.148832   -5.932124
     65          1           0        3.490608    0.822211   -6.787166
     66          1           0        4.640141   -0.265567   -6.033362
     67          6           0        2.586906   -0.982469   -5.996863
     68          1           0        2.403670   -1.416566   -5.010776
     69          1           0        1.621250   -0.598952   -6.335477
     70          7           0        2.950355   -2.080613   -6.919058
     71          1           0        2.661407   -2.000498   -7.885355
     72          7           0        4.470925   -3.145795   -5.503586
     73          1           0        4.846336   -4.027160   -5.182677
     74          1           0        4.769861   -2.311458   -4.987577
     75          7           0        3.774773   -4.176451   -7.454387
     76          1           0        3.056556   -4.322250   -8.148160
     77          1           0        4.543734   -4.829788   -7.431934
     78          6           0        3.737665   -3.113703   -6.618733
     79          8           0        5.867227   -1.093690   -3.987020
     80          1           0        6.841919   -1.060847   -3.928459
     81          1           0       -1.380537    0.288578    7.547784
 ---------------------------------------------------------------------

 SCF Done:  E(RB3LYP) =  -2053.87412372     A.U. after    1 cycles

 Alpha  occ. eigenvalues --  -19.28065 -19.26047 -19.25380 -19.22236 -19.19216
 Alpha  occ. eigenvalues --  -19.18120 -19.12520 -19.11543 -14.58870 -14.50543
 Alpha  occ. eigenvalues --  -14.50130 -14.49137 -14.47249 -14.44301 -14.40582
 Alpha  occ. eigenvalues --  -14.30205 -10.46347 -10.41966 -10.40724 -10.39834
 Alpha  occ. eigenvalues --  -10.36561 -10.34982 -10.33423 -10.31957 -10.31650
 Alpha  occ. eigenvalues --  -10.30648 -10.28323 -10.27788 -10.27251 -10.27106
 Alpha  occ. eigenvalues --  -10.26272 -10.25912 -10.24927 -10.24743 -10.24620
 Alpha  occ. eigenvalues --  -10.24340 -10.24287 -10.24269 -10.24097 -10.23638
 Alpha  occ. eigenvalues --  -10.23536 -10.19035  -1.18798  -1.17789  -1.15536
 Alpha  occ. eigenvalues --   -1.14671  -1.12524  -1.09949  -1.09928  -1.06850
 Alpha  occ. eigenvalues --   -1.04121  -1.03914  -1.03904  -1.02655  -1.02307
 Alpha  occ. eigenvalues --   -1.00527  -0.96749  -0.93545  -0.90346  -0.89569
 Alpha  occ. eigenvalues --   -0.87992  -0.86681  -0.85759  -0.83033  -0.80691
 Alpha  occ. eigenvalues --   -0.79254  -0.78695  -0.78236  -0.77286  -0.76592
 Alpha  occ. eigenvalues --   -0.74800  -0.74353  -0.72854  -0.72592  -0.72001
 Alpha  occ. eigenvalues --   -0.71334  -0.69335  -0.69162  -0.68737  -0.68106
 Alpha  occ. eigenvalues --   -0.67667  -0.65431  -0.65012  -0.64163  -0.63877
 Alpha  occ. eigenvalues --   -0.63278  -0.62785  -0.62483  -0.62176  -0.60004
 Alpha  occ. eigenvalues --   -0.59484  -0.58859  -0.57984  -0.57885  -0.57354
 Alpha  occ. eigenvalues --   -0.56260  -0.55674  -0.55274  -0.55214  -0.55127
 Alpha  occ. eigenvalues --   -0.54355  -0.53707  -0.53432  -0.53192  -0.52757
 Alpha  occ. eigenvalues --   -0.51904  -0.51735  -0.51272  -0.50900  -0.50079
 Alpha  occ. eigenvalues --   -0.49778  -0.49497  -0.49208  -0.48941  -0.48715
 Alpha  occ. eigenvalues --   -0.48401  -0.47893  -0.47548  -0.47321  -0.46840
 Alpha  occ. eigenvalues --   -0.46803  -0.46277  -0.45798  -0.45224  -0.44962
 Alpha  occ. eigenvalues --   -0.44272  -0.43834  -0.43357  -0.43059  -0.42688
 Alpha  occ. eigenvalues --   -0.41458  -0.41216  -0.41016  -0.40680  -0.40430
 Alpha  occ. eigenvalues --   -0.40284  -0.40032  -0.39377  -0.39025  -0.38750
 Alpha  occ. eigenvalues --   -0.38005  -0.37752  -0.37552  -0.37337  -0.35708
 Alpha  occ. eigenvalues --   -0.35262  -0.34325  -0.33269  -0.32569  -0.32247
 Alpha  occ. eigenvalues --   -0.30420  -0.27975  -0.26962  -0.26301  -0.26082
 Alpha  occ. eigenvalues --   -0.25408  -0.23173
 Alpha virt. eigenvalues --   -0.10893  -0.10788  -0.10244  -0.07730  -0.07042
 Alpha virt. eigenvalues --   -0.06789  -0.05468  -0.04176  -0.04032  -0.03268
 Alpha virt. eigenvalues --   -0.03100  -0.02585  -0.02034  -0.00816  -0.00417

 Mulliken charges:
               1
     1  N   -0.759983
     2  H    0.414136
     3  H    0.432744
     4  H    0.409951
     5  C   -0.110462
     6  H    0.213553
     7  C    0.651027
     8  C   -0.304646
     9  H    0.192340
    10  H    0.189385
    11  O   -0.558292
    12  C   -0.367520
    13  H    0.194890
    14  H    0.219079
    15  C    0.573768
    16  O   -0.418379
    17  O   -0.569308
    18  N   -0.606774
    19  H    0.382817
    20  C   -0.059883
    21  H    0.185103
    22  C    0.633859
    23  C   -0.351317
    24  H    0.166698
    25  H    0.164312
    26  O   -0.572535
    27  C    0.046179
    28  C    0.005144
    29  H    0.154686
    30  C    0.096094
    31  C    0.331271
    32  C   -0.198594
    33  H    0.136638
    34  N   -0.689076
    35  H    0.328724
    36  C   -0.153938
    37  H    0.123136
    38  C   -0.164035
    39  H    0.111004
    40  C   -0.136438
    41  H    0.136050
    42  N   -0.618469
    43  H    0.366205
    44  C   -0.058564
    45  H    0.172733
    46  C    0.546332
    47  C    0.156235
    48  H    0.133909
    49  O   -0.652092
    50  C   -0.451475
    51  H    0.111073
    52  H    0.152487
    53  H    0.141822
    54  O   -0.657286
    55  N   -0.575179
    56  H    0.414182
    57  C   -0.015938
    58  H    0.119754
    59  C    0.589606
    60  C   -0.291825
    61  H    0.163102
    62  H    0.192936
    63  O   -0.425525
    64  C   -0.288309
    65  H    0.149478
    66  H    0.140411
    67  C   -0.193736
    68  H    0.230922
    69  H    0.188083
    70  N   -0.589721
    71  H    0.356194
    72  N   -0.785189
    73  H    0.368394
    74  H    0.450555
    75  N   -0.768845
    76  H    0.374711
    77  H    0.376737
    78  C    0.802525
    79  O   -0.634878
    80  H    0.409865
    81  H    0.427369
 Sum of Mulliken charges =   1.00000

 Dipole moment (field-independent basis, Debye):
    X=            -13.2979    Y=            -11.8551    Z=            -11.2502  Tot=             21.0700
 Quadrupole moment (field-independent basis, Debye-Ang):
   XX=           -108.4459   YY=           -193.3727   ZZ=              5.5653
   XY=            -72.1599   XZ=           -156.4512   YZ=             96.7895

 Normal termination of Gaussian 16 at Thu May 26 18:13:17 2022.
