 Gaussian 16, Revision C.01,
 Gaussian 16:  ES64L-G16RevC.01  3-Jul-2019

 -------------------------------------------------------------------
 # B3LYP/6-31G* guess=read geom=check nosymm integral(ultrafinegrid)
 -------------------------------------------------------------------

 ------------------------------------------------------
 Candidate Structure: Conf:747 Charge calc in gas phase
 ------------------------------------------------------
 Structure from the checkpoint file:  "conf-747.chk"
 Charge =  1 Multiplicity = 1

                          Input orientation:
 ---------------------------------------------------------------------
 Center     Atomic      Atomic             Coordinates (Angstroms)
 Number     Number       Type             X           Y           Z
 ---------------------------------------------------------------------
      1          7           0       -4.516859    0.100606    4.878871
      2          1           0       -5.355523    0.298342    5.426927
      3          1           0       -4.677986   -0.682503    4.197074
      4          1           0       -3.717812   -0.159648    5.515222
      5          6           0       -4.085124    1.246799    3.998606
      6          1           0       -4.978899    1.849355    3.807792
      7          6           0       -3.701608    0.544162    2.659943
      8          6           0       -3.026470    2.147587    4.667836
      9          1           0       -3.005211    3.081554    4.095687
     10          1           0       -3.398851    2.429975    5.660687
     11          8           0       -4.043935   -0.634409    2.518147
     12          6           0       -1.570784    1.653625    4.773457
     13          1           0       -0.945065    2.487044    5.111931
     14          1           0       -1.156501    1.394550    3.788439
     15          6           0       -1.329881    0.502983    5.718407
     16          8           0       -2.188337   -0.242885    6.185032
     17          8           0       -0.041945    0.356612    6.012999
     18          7           0       -3.069106    1.299592    1.760327
     19          1           0       -2.586452    2.141756    2.076935
     20          6           0       -2.388588    0.755095    0.583481
     21          1           0       -2.487027   -0.332557    0.612020
     22          6           0       -0.906724    1.181226    0.758253
     23          6           0       -2.990620    1.305740   -0.736030
     24          1           0       -2.371359    0.928248   -1.559883
     25          1           0       -2.872408    2.396714   -0.737088
     26          8           0       -0.630794    2.059534    1.599789
     27          6           0       -4.428519    0.940876   -0.950800
     28          6           0       -5.508807    1.781988   -0.848159
     29          1           0       -5.537658    2.840037   -0.623227
     30          6           0       -4.954448   -0.357787   -1.302984
     31          6           0       -6.366737   -0.227193   -1.395039
     32          6           0       -4.371730   -1.610644   -1.565245
     33          1           0       -3.293818   -1.744378   -1.517073
     34          7           0       -6.676321    1.086871   -1.098826
     35          1           0       -7.592640    1.499961   -1.176943
     36          6           0       -6.591535   -2.524832   -1.985981
     37          1           0       -7.207136   -3.378339   -2.255479
     38          6           0       -7.197784   -1.299684   -1.734808
     39          1           0       -8.275851   -1.180443   -1.805014
     40          6           0       -5.192380   -2.678788   -1.903164
     41          1           0       -4.751570   -3.649464   -2.111369
     42          7           0       -0.037013    0.563392   -0.030619
     43          1           0       -0.320651   -0.082349   -0.780253
     44          6           0        1.390388    0.842428   -0.150686
     45          1           0        1.543527    1.919256   -0.288726
     46          6           0        1.835020    0.079754   -1.435712
     47          6           0        2.215245    0.440680    1.106173
     48          1           0        1.802592    1.004049    1.951734
     49          8           0        0.941865   -0.519644   -2.090656
     50          6           0        2.148317   -1.058237    1.423424
     51          1           0        1.117459   -1.391433    1.599276
     52          1           0        2.736467   -1.260586    2.324980
     53          1           0        2.566734   -1.649451    0.602482
     54          8           0        3.547779    0.885556    0.940647
     55          7           0        3.139702    0.159927   -1.669591
     56          1           0        3.778402    0.620918    0.013749
     57          6           0        3.604418   -0.577177   -2.829105
     58          1           0        2.754953   -1.002651   -3.387308
     59          6           0        4.498595   -1.741301   -2.404583
     60          6           0        4.442143    0.331496   -3.741242
     61          1           0        4.842166   -0.271607   -4.566520
     62          1           0        5.286325    0.676560   -3.122663
     63          8           0        5.670519   -1.877389   -2.712441
     64          6           0        3.690111    1.549727   -4.269831
     65          1           0        2.883786    1.248302   -4.951679
     66          1           0        3.216470    2.058256   -3.422114
     67          6           0        4.608771    2.559726   -4.961442
     68          1           0        4.058574    3.457524   -5.259206
     69          1           0        5.413910    2.880695   -4.292882
     70          7           0        5.249579    2.057041   -6.203369
     71          1           0        4.689284    2.092514   -7.045823
     72          7           0        7.164859    1.121047   -5.258060
     73          1           0        8.141695    0.880333   -5.351111
     74          1           0        6.686066    0.807827   -4.419256
     75          7           0        7.019819    1.412420   -7.550648
     76          1           0        6.653617    1.924112   -8.340416
     77          1           0        7.765866    0.754926   -7.726850
     78          6           0        6.463745    1.521081   -6.326425
     79          8           0        3.856864   -2.636306   -1.626698
     80          1           0        4.519002   -3.312432   -1.388965
     81          1           0        0.053657   -0.421401    6.596843
 ---------------------------------------------------------------------

 SCF Done:  E(RB3LYP) =  -2053.89985274     A.U. after    1 cycles

 Alpha  occ. eigenvalues --  -19.30604 -19.26387 -19.23193 -19.23129 -19.17750
 Alpha  occ. eigenvalues --  -19.17734 -19.13220 -19.11645 -14.54559 -14.51456
 Alpha  occ. eigenvalues --  -14.51203 -14.50515 -14.45570 -14.43258 -14.40250
 Alpha  occ. eigenvalues --  -14.30946 -10.47457 -10.44131 -10.40147 -10.37728
 Alpha  occ. eigenvalues --  -10.35343 -10.34516 -10.33602 -10.32549 -10.30802
 Alpha  occ. eigenvalues --  -10.30530 -10.27724 -10.27408 -10.26839 -10.26377
 Alpha  occ. eigenvalues --  -10.26038 -10.25401 -10.25124 -10.25001 -10.24763
 Alpha  occ. eigenvalues --  -10.23739 -10.23670 -10.23336 -10.23270 -10.23101
 Alpha  occ. eigenvalues --  -10.22620 -10.19167  -1.22277  -1.15761  -1.15507
 Alpha  occ. eigenvalues --   -1.14091  -1.13223  -1.09483  -1.08990  -1.04928
 Alpha  occ. eigenvalues --   -1.04898  -1.03893  -1.03072  -1.02909  -1.02286
 Alpha  occ. eigenvalues --   -1.01183  -0.96576  -0.92280  -0.90662  -0.88618
 Alpha  occ. eigenvalues --   -0.87601  -0.87026  -0.85071  -0.82217  -0.81358
 Alpha  occ. eigenvalues --   -0.78739  -0.78286  -0.77941  -0.77689  -0.76651
 Alpha  occ. eigenvalues --   -0.74512  -0.73367  -0.73226  -0.72299  -0.71235
 Alpha  occ. eigenvalues --   -0.70065  -0.69382  -0.68612  -0.67590  -0.67159
 Alpha  occ. eigenvalues --   -0.66934  -0.64906  -0.64679  -0.64304  -0.64183
 Alpha  occ. eigenvalues --   -0.63587  -0.62586  -0.61695  -0.60757  -0.59903
 Alpha  occ. eigenvalues --   -0.59619  -0.59163  -0.58642  -0.58444  -0.57340
 Alpha  occ. eigenvalues --   -0.57052  -0.56589  -0.55773  -0.55079  -0.54149
 Alpha  occ. eigenvalues --   -0.53380  -0.53220  -0.52921  -0.52674  -0.52178
 Alpha  occ. eigenvalues --   -0.51964  -0.51831  -0.51227  -0.51075  -0.50385
 Alpha  occ. eigenvalues --   -0.49639  -0.48977  -0.48698  -0.48359  -0.47971
 Alpha  occ. eigenvalues --   -0.47857  -0.47625  -0.47294  -0.47129  -0.46751
 Alpha  occ. eigenvalues --   -0.46242  -0.45585  -0.45320  -0.44922  -0.44449
 Alpha  occ. eigenvalues --   -0.43772  -0.43502  -0.43298  -0.43094  -0.42634
 Alpha  occ. eigenvalues --   -0.42483  -0.42077  -0.41401  -0.41244  -0.40075
 Alpha  occ. eigenvalues --   -0.39984  -0.39681  -0.39149  -0.38870  -0.38315
 Alpha  occ. eigenvalues --   -0.38201  -0.38068  -0.37575  -0.36302  -0.36038
 Alpha  occ. eigenvalues --   -0.35376  -0.34718  -0.32654  -0.31757  -0.31459
 Alpha  occ. eigenvalues --   -0.30432  -0.27303  -0.27095  -0.26582  -0.25878
 Alpha  occ. eigenvalues --   -0.25389  -0.23499
 Alpha virt. eigenvalues --   -0.11848  -0.10584  -0.09530  -0.07433  -0.05962
 Alpha virt. eigenvalues --   -0.05732  -0.03655  -0.03378  -0.02804  -0.02584
 Alpha virt. eigenvalues --   -0.02095  -0.01725  -0.01661  -0.00893   0.00283

 Mulliken charges:
               1
     1  N   -0.779433
     2  H    0.395950
     3  H    0.422577
     4  H    0.445192
     5  C   -0.111548
     6  H    0.218864
     7  C    0.635038
     8  C   -0.324039
     9  H    0.198817
    10  H    0.180610
    11  O   -0.523359
    12  C   -0.387380
    13  H    0.219960
    14  H    0.251911
    15  C    0.612521
    16  O   -0.511331
    17  O   -0.519391
    18  N   -0.578326
    19  H    0.356456
    20  C   -0.095356
    21  H    0.203364
    22  C    0.634035
    23  C   -0.367401
    24  H    0.182222
    25  H    0.150935
    26  O   -0.576959
    27  C    0.084194
    28  C   -0.012153
    29  H    0.144454
    30  C    0.088961
    31  C    0.308653
    32  C   -0.210869
    33  H    0.131826
    34  N   -0.690569
    35  H    0.330625
    36  C   -0.150129
    37  H    0.132718
    38  C   -0.163497
    39  H    0.127617
    40  C   -0.139657
    41  H    0.131248
    42  N   -0.615267
    43  H    0.364235
    44  C   -0.057611
    45  H    0.160803
    46  C    0.551729
    47  C    0.156920
    48  H    0.124699
    49  O   -0.617959
    50  C   -0.468026
    51  H    0.113233
    52  H    0.140222
    53  H    0.171861
    54  O   -0.664401
    55  N   -0.594506
    56  H    0.399952
    57  C   -0.046885
    58  H    0.168514
    59  C    0.601437
    60  C   -0.289294
    61  H    0.123213
    62  H    0.141724
    63  O   -0.509121
    64  C   -0.249489
    65  H    0.150835
    66  H    0.193525
    67  C   -0.189855
    68  H    0.186517
    69  H    0.189797
    70  N   -0.580406
    71  H    0.361717
    72  N   -0.748933
    73  H    0.378042
    74  H    0.410323
    75  N   -0.762208
    76  H    0.379538
    77  H    0.382209
    78  C    0.803704
    79  O   -0.551984
    80  H    0.406582
    81  H    0.437264
 Sum of Mulliken charges =   1.00000

 Dipole moment (field-independent basis, Debye):
    X=              2.6672    Y=              9.6023    Z=             -6.9716  Tot=             12.1623
 Quadrupole moment (field-independent basis, Debye-Ang):
   XX=            -21.3712   YY=           -218.8237   ZZ=             11.3988
   XY=              3.7219   XZ=           -209.4444   YZ=            -33.7045

 Normal termination of Gaussian 16 at Thu May 26 18:13:14 2022.
