 Gaussian 16, Revision C.01,
 Gaussian 16:  ES64L-G16RevC.01  3-Jul-2019

 -------------------------------------------------------------------
 # B3LYP/6-31G* guess=read geom=check nosymm integral(ultrafinegrid)
 -------------------------------------------------------------------

 -----------------------------------------------------
 Candidate Structure: Conf:95 Charge calc in gas phase
 -----------------------------------------------------
 Structure from the checkpoint file:  "conf-95.chk"
 Charge =  1 Multiplicity = 1

                          Input orientation:
 ---------------------------------------------------------------------
 Center     Atomic      Atomic             Coordinates (Angstroms)
 Number     Number       Type             X           Y           Z
 ---------------------------------------------------------------------
      1          7           0       -2.370396   -0.325395    4.361932
      2          1           0       -3.310105   -0.721895    4.460491
      3          1           0       -1.804380   -0.984909    3.784905
      4          1           0       -1.954908   -0.207494    5.290968
      5          6           0       -2.354933    0.943333    3.554846
      6          1           0       -3.158528    1.618279    3.868914
      7          6           0       -2.577914    0.393253    2.143205
      8          6           0       -1.000290    1.659406    3.766277
      9          1           0       -0.853305    1.736677    4.854545
     10          1           0       -0.168815    1.071354    3.346367
     11          8           0       -2.091464   -0.711885    1.917030
     12          6           0       -0.976062    3.057923    3.141060
     13          1           0       -1.733352    3.720138    3.578623
     14          1           0       -1.168402    2.983873    2.061382
     15          6           0        0.363073    3.753222    3.304143
     16          8           0        1.452272    3.246181    3.382074
     17          8           0        0.180125    5.104428    3.334522
     18          7           0       -3.254179    1.142514    1.237571
     19          1           0       -3.393573    2.124989    1.439442
     20          6           0       -2.993343    0.783426   -0.172251
     21          1           0       -3.141784   -0.295684   -0.237162
     22          6           0       -1.504228    1.129603   -0.292797
     23          6           0       -3.906826    1.514232   -1.163699
     24          1           0       -3.482830    1.375461   -2.165980
     25          1           0       -3.861968    2.589040   -0.949780
     26          8           0       -1.133689    2.282238   -0.025835
     27          6           0       -5.331560    1.039537   -1.123865
     28          6           0       -6.405955    1.703485   -0.586422
     29          1           0       -6.452340    2.684210   -0.131790
     30          6           0       -5.834617   -0.228443   -1.598655
     31          6           0       -7.223650   -0.267704   -1.304522
     32          6           0       -5.243879   -1.333681   -2.237467
     33          1           0       -4.184765   -1.330703   -2.483447
     34          7           0       -7.543785    0.925701   -0.689148
     35          1           0       -8.462274    1.192364   -0.371630
     36          6           0       -7.411839   -2.446596   -2.251233
     37          1           0       -8.004473   -3.318423   -2.513039
     38          6           0       -8.025017   -1.369982   -1.621868
     39          1           0       -9.085826   -1.383368   -1.386493
     40          6           0       -6.035929   -2.428023   -2.559717
     41          1           0       -5.591818   -3.286919   -3.054582
     42          7           0       -0.710557    0.079027   -0.498911
     43          1           0       -1.104487   -0.825023   -0.721682
     44          6           0        0.697116    0.100533   -0.215702
     45          1           0        0.980151    1.133600   -0.009042
     46          6           0        1.513295   -0.515389   -1.314271
     47          6           0        0.720404   -0.704242    1.193704
     48          1           0        0.328303   -1.715370    0.869407
     49          8           0        1.317643   -1.657687   -1.728044
     50          6           0        2.187357   -0.949950    1.639149
     51          1           0        2.741062   -1.570831    0.920421
     52          1           0        2.169999   -1.457828    2.608764
     53          1           0        2.715752    0.004174    1.771564
     54          8           0       -0.050069   -0.086879    2.062921
     55          7           0        2.517786    0.274026   -1.842485
     56          1           0        2.757592    1.132216   -1.365017
     57          6           0        3.488120   -0.296344   -2.752213
     58          1           0        2.966950   -1.060739   -3.332219
     59          6           0        4.635969   -1.008121   -2.031592
     60          6           0        4.049472    0.790502   -3.689850
     61          1           0        4.573600    1.553061   -3.098382
     62          1           0        3.190736    1.282443   -4.162428
     63          8           0        5.172299   -2.022967   -2.419452
     64          6           0        4.977776    0.214525   -4.766921
     65          1           0        5.854636   -0.251341   -4.300866
     66          1           0        4.452029   -0.577277   -5.313679
     67          6           0        5.436869    1.280139   -5.761051
     68          1           0        4.562530    1.732291   -6.244397
     69          1           0        5.988283    2.077606   -5.242288
     70          7           0        6.281448    0.661871   -6.801095
     71          1           0        6.868161   -0.095175   -6.462818
     72          7           0        6.487628    2.629237   -8.058198
     73          1           0        6.605374    3.028257   -8.980371
     74          1           0        5.796384    3.078259   -7.474172
     75          7           0        7.674251    0.709722   -8.659060
     76          1           0        7.612710   -0.299061   -8.727550
     77          1           0        7.955155    1.167057   -9.516640
     78          6           0        6.793641    1.337592   -7.843612
     79          8           0        5.030613   -0.339071   -0.924284
     80          1           0        5.768946   -0.847522   -0.539696
     81          1           0        1.072917    5.487617    3.418177
 ---------------------------------------------------------------------

 SCF Done:  E(RB3LYP) =  -2053.78733173     A.U. after    1 cycles

 Alpha  occ. eigenvalues --  -19.26475 -19.22934 -19.20807 -19.17447 -19.17404
 Alpha  occ. eigenvalues --  -19.15110 -19.13460 -19.03462 -14.55607 -14.54871
 Alpha  occ. eigenvalues --  -14.54804 -14.53668 -14.42004 -14.41141 -14.41037
 Alpha  occ. eigenvalues --  -14.38607 -10.51484 -10.38663 -10.37809 -10.35624
 Alpha  occ. eigenvalues --  -10.33368 -10.32562 -10.32101 -10.31285 -10.30864
 Alpha  occ. eigenvalues --  -10.30830 -10.29550 -10.27207 -10.26036 -10.25732
 Alpha  occ. eigenvalues --  -10.24107 -10.23851 -10.23226 -10.23120 -10.22693
 Alpha  occ. eigenvalues --  -10.22387 -10.22337 -10.22173 -10.22149 -10.21763
 Alpha  occ. eigenvalues --  -10.21737 -10.16803  -1.19715  -1.17312  -1.13830
 Alpha  occ. eigenvalues --   -1.11072  -1.08923  -1.08287  -1.08212  -1.07225
 Alpha  occ. eigenvalues --   -1.06974  -1.05272  -1.05017  -1.01837  -0.97841
 Alpha  occ. eigenvalues --   -0.97695  -0.95974  -0.92584  -0.92142  -0.87581
 Alpha  occ. eigenvalues --   -0.86173  -0.86060  -0.84530  -0.81793  -0.80541
 Alpha  occ. eigenvalues --   -0.79058  -0.78602  -0.77259  -0.76947  -0.76128
 Alpha  occ. eigenvalues --   -0.74873  -0.73338  -0.71906  -0.71523  -0.70877
 Alpha  occ. eigenvalues --   -0.68966  -0.68273  -0.67479  -0.67129  -0.66904
 Alpha  occ. eigenvalues --   -0.66373  -0.66058  -0.64617  -0.63753  -0.63331
 Alpha  occ. eigenvalues --   -0.62945  -0.61624  -0.61477  -0.61104  -0.60358
 Alpha  occ. eigenvalues --   -0.59368  -0.58681  -0.58132  -0.57461  -0.56424
 Alpha  occ. eigenvalues --   -0.55913  -0.55182  -0.54631  -0.53712  -0.53572
 Alpha  occ. eigenvalues --   -0.53366  -0.52372  -0.52029  -0.51732  -0.51191
 Alpha  occ. eigenvalues --   -0.50579  -0.50296  -0.50020  -0.49300  -0.48526
 Alpha  occ. eigenvalues --   -0.48452  -0.47920  -0.47324  -0.46797  -0.46731
 Alpha  occ. eigenvalues --   -0.46628  -0.46279  -0.46032  -0.45472  -0.45311
 Alpha  occ. eigenvalues --   -0.45020  -0.44778  -0.44325  -0.43858  -0.43804
 Alpha  occ. eigenvalues --   -0.43582  -0.43262  -0.42808  -0.42487  -0.41570
 Alpha  occ. eigenvalues --   -0.41281  -0.40988  -0.40545  -0.40011  -0.39658
 Alpha  occ. eigenvalues --   -0.39078  -0.38687  -0.38480  -0.37182  -0.37053
 Alpha  occ. eigenvalues --   -0.36846  -0.35321  -0.35285  -0.34329  -0.33932
 Alpha  occ. eigenvalues --   -0.31503  -0.31165  -0.30963  -0.30263  -0.29782
 Alpha  occ. eigenvalues --   -0.29142  -0.27518  -0.26857  -0.26019  -0.24167
 Alpha  occ. eigenvalues --   -0.19367  -0.17465
 Alpha virt. eigenvalues --   -0.16401  -0.10806  -0.07059  -0.06336  -0.05905
 Alpha virt. eigenvalues --   -0.05705  -0.05133  -0.04846  -0.03700  -0.02524
 Alpha virt. eigenvalues --   -0.02022  -0.01746  -0.01196  -0.01022  -0.00219

 Mulliken charges:
               1
     1  N   -0.731910
     2  H    0.398595
     3  H    0.439470
     4  H    0.396377
     5  C   -0.127858
     6  H    0.167898
     7  C    0.652871
     8  C   -0.277948
     9  H    0.105560
    10  H    0.276751
    11  O   -0.463167
    12  C   -0.396618
    13  H    0.145641
    14  H    0.246024
    15  C    0.582599
    16  O   -0.450125
    17  O   -0.573221
    18  N   -0.605788
    19  H    0.328366
    20  C   -0.057135
    21  H    0.176580
    22  C    0.622784
    23  C   -0.381334
    24  H    0.161404
    25  H    0.154807
    26  O   -0.577836
    27  C    0.084024
    28  C   -0.006032
    29  H    0.144409
    30  C    0.083143
    31  C    0.312981
    32  C   -0.210551
    33  H    0.119847
    34  N   -0.691239
    35  H    0.329484
    36  C   -0.151063
    37  H    0.129631
    38  C   -0.162212
    39  H    0.126744
    40  C   -0.140199
    41  H    0.125784
    42  N   -0.539960
    43  H    0.342418
    44  C   -0.130015
    45  H    0.151065
    46  C    0.636990
    47  C    0.266596
    48  H    0.033725
    49  O   -0.544002
    50  C   -0.469040
    51  H    0.105650
    52  H    0.125061
    53  H    0.121335
    54  O   -0.649674
    55  N   -0.623888
    56  H    0.335589
    57  C   -0.023871
    58  H    0.205881
    59  C    0.594542
    60  C   -0.302461
    61  H    0.159289
    62  H    0.170307
    63  O   -0.466030
    64  C   -0.311796
    65  H    0.177451
    66  H    0.184657
    67  C   -0.163852
    68  H    0.184150
    69  H    0.190684
    70  N   -0.588663
    71  H    0.377539
    72  N   -0.732469
    73  H    0.386860
    74  H    0.398517
    75  N   -0.733053
    76  H    0.390492
    77  H    0.382307
    78  C    0.785840
    79  O   -0.560418
    80  H    0.420209
    81  H    0.404503
 Sum of Mulliken charges =   1.00000

 Dipole moment (field-independent basis, Debye):
    X=             18.7773    Y=              9.8061    Z=            -25.2345  Tot=             32.9473
 Quadrupole moment (field-independent basis, Debye-Ang):
   XX=             14.2379   YY=           -226.7855   ZZ=             92.2499
   XY=             39.4980   XZ=           -271.1741   YZ=            -57.0853

 Normal termination of Gaussian 16 at Thu May 26 18:09:08 2022.
