 Gaussian 16, Revision C.01,
 Gaussian 16:  ES64L-G16RevC.01  3-Jul-2019

 -------------------------------------------------------------------
 # B3LYP/6-31G* guess=read geom=check nosymm integral(ultrafinegrid)
 -------------------------------------------------------------------

 ------------------------------------------------------
 Candidate Structure: Conf:305 Charge calc in gas phase
 ------------------------------------------------------
 Structure from the checkpoint file:  "conf-305.chk"
 Charge =  1 Multiplicity = 1

                          Input orientation:
 ---------------------------------------------------------------------
 Center     Atomic      Atomic             Coordinates (Angstroms)
 Number     Number       Type             X           Y           Z
 ---------------------------------------------------------------------
      1          7           0       -1.909445   -1.229352    2.085005
      2          1           0       -2.138414   -2.009001    1.469749
      3          1           0       -0.229719   -0.511979    1.451892
      4          1           0       -1.927012   -1.576153    3.042199
      5          6           0       -2.948366   -0.190641    1.890421
      6          1           0       -3.959959   -0.586059    2.089840
      7          6           0       -2.898675    0.109183    0.380395
      8          6           0       -2.700145    1.026904    2.790044
      9          1           0       -1.703374    1.431660    2.576917
     10          1           0       -3.433380    1.807093    2.558170
     11          8           0       -2.807015   -0.835634   -0.416951
     12          6           0       -2.824544    0.730822    4.289529
     13          1           0       -1.960782    0.189397    4.688084
     14          1           0       -3.708115    0.106505    4.490239
     15          6           0       -3.008941    2.007114    5.093925
     16          8           0       -3.454585    3.048409    4.663421
     17          8           0       -2.641372    1.836456    6.381730
     18          7           0       -2.897056    1.396931   -0.013877
     19          1           0       -2.862380    2.149772    0.664772
     20          6           0       -2.682158    1.833773   -1.392554
     21          1           0       -3.139355    1.080085   -2.043448
     22          6           0       -1.158353    1.832630   -1.676289
     23          6           0       -3.358309    3.211533   -1.633874
     24          1           0       -4.413819    3.008799   -1.846839
     25          1           0       -2.923702    3.639849   -2.541594
     26          8           0       -0.538189    2.821428   -2.061286
     27          6           0       -3.276022    4.198208   -0.494075
     28          6           0       -4.177329    4.263470    0.549272
     29          1           0       -5.066855    3.672542    0.725795
     30          6           0       -2.320994    5.262493   -0.266959
     31          6           0       -2.709513    5.921455    0.932061
     32          6           0       -1.193329    5.740553   -0.961635
     33          1           0       -0.860457    5.248299   -1.867635
     34          7           0       -3.844513    5.291580    1.402131
     35          1           0       -4.307993    5.493971    2.274740
     36          6           0       -0.902313    7.460779    0.744734
     37          1           0       -0.336830    8.310532    1.116716
     38          6           0       -2.009244    7.015000    1.453980
     39          1           0       -2.324461    7.499587    2.374177
     40          6           0       -0.502061    6.830425   -0.452140
     41          1           0        0.369917    7.204761   -0.981207
     42          7           0       -0.558149    0.628686   -1.460297
     43          1           0       -1.153311   -0.140625   -1.157709
     44          6           0        0.875530    0.545016   -1.192130
     45          1           0        1.199079    1.542501   -0.875224
     46          6           0        1.579424    0.205169   -2.512270
     47          6           0        1.151300   -0.428514   -0.020593
     48          1           0        0.754731   -1.418333   -0.297232
     49          8           0        1.925849   -0.947849   -2.825472
     50          6           0        2.647915   -0.551394    0.281222
     51          1           0        3.205953   -0.946424   -0.572653
     52          1           0        2.789870   -1.220509    1.135453
     53          1           0        3.056276    0.427667    0.555924
     54          8           0        0.482286    0.094491    1.112706
     55          7           0        1.747700    1.259667   -3.340789
     56          1           0        1.342520    2.164382   -3.095600
     57          6           0        2.317784    1.079327   -4.664178
     58          1           0        3.299513    0.603876   -4.535760
     59          6           0        2.590393    2.451137   -5.269296
     60          6           0        1.447411    0.164237   -5.577777
     61          1           0        1.011073    0.735116   -6.404306
     62          1           0        0.613691   -0.193721   -4.967815
     63          8           0        2.399916    3.505652   -4.713552
     64          6           0        2.245247   -1.042480   -6.096467
     65          1           0        2.840577   -0.769154   -6.974966
     66          1           0        2.959280   -1.335822   -5.319012
     67          6           0        1.350244   -2.255740   -6.411525
     68          1           0        0.481385   -2.285884   -5.745036
     69          1           0        0.960761   -2.218929   -7.431764
     70          7           0        2.049728   -3.546028   -6.282342
     71          1           0        2.410098   -3.975182   -7.123155
     72          7           0        2.010417   -3.606166   -3.951817
     73          1           0        2.118208   -4.142568   -3.102164
     74          1           0        1.897612   -2.598606   -3.803270
     75          7           0        2.793806   -5.424541   -5.152034
     76          1           0        2.858049   -5.951542   -6.010551
     77          1           0        3.134141   -5.870550   -4.312987
     78          6           0        2.294280   -4.172308   -5.125315
     79          8           0        3.095380    2.335140   -6.517206
     80          1           0        3.264117    3.241360   -6.839283
     81          1           0       -2.820163    2.679598    6.840147
 ---------------------------------------------------------------------

 SCF Done:  E(RB3LYP) =  -2053.95678329     A.U. after    1 cycles

 Alpha  occ. eigenvalues --  -19.28863 -19.26120 -19.23224 -19.21747 -19.20616
 Alpha  occ. eigenvalues --  -19.19728 -19.19554 -19.18720 -14.52798 -14.52794
 Alpha  occ. eigenvalues --  -14.51359 -14.44811 -14.44001 -14.42824 -14.42614
 Alpha  occ. eigenvalues --  -14.41292 -10.48882 -10.41358 -10.38891 -10.38040
 Alpha  occ. eigenvalues --  -10.36850 -10.36130 -10.36008 -10.33715 -10.30976
 Alpha  occ. eigenvalues --  -10.30903 -10.30842 -10.30339 -10.30266 -10.29516
 Alpha  occ. eigenvalues --  -10.27661 -10.27196 -10.26690 -10.26284 -10.25825
 Alpha  occ. eigenvalues --  -10.23804 -10.23730 -10.22977 -10.22892 -10.22499
 Alpha  occ. eigenvalues --  -10.22184 -10.21879  -1.19783  -1.17217  -1.17060
 Alpha  occ. eigenvalues --   -1.12947  -1.11899  -1.10958  -1.10815  -1.08102
 Alpha  occ. eigenvalues --   -1.06660  -1.06480  -1.05010  -1.02758  -1.01691
 Alpha  occ. eigenvalues --   -1.00763  -0.99000  -0.97570  -0.91600  -0.87948
 Alpha  occ. eigenvalues --   -0.87284  -0.86836  -0.85899  -0.84176  -0.81970
 Alpha  occ. eigenvalues --   -0.81474  -0.78883  -0.78318  -0.77620  -0.77505
 Alpha  occ. eigenvalues --   -0.76105  -0.74640  -0.72874  -0.72710  -0.71625
 Alpha  occ. eigenvalues --   -0.70879  -0.70425  -0.67435  -0.67045  -0.66526
 Alpha  occ. eigenvalues --   -0.66335  -0.65903  -0.65099  -0.64890  -0.64691
 Alpha  occ. eigenvalues --   -0.63585  -0.61944  -0.61301  -0.61108  -0.60085
 Alpha  occ. eigenvalues --   -0.59660  -0.58863  -0.58721  -0.58113  -0.57937
 Alpha  occ. eigenvalues --   -0.57726  -0.57149  -0.56210  -0.55794  -0.55354
 Alpha  occ. eigenvalues --   -0.55063  -0.54593  -0.54225  -0.54159  -0.53579
 Alpha  occ. eigenvalues --   -0.53034  -0.52828  -0.52321  -0.51541  -0.51299
 Alpha  occ. eigenvalues --   -0.50505  -0.50054  -0.49376  -0.49090  -0.48744
 Alpha  occ. eigenvalues --   -0.48158  -0.47909  -0.47457  -0.47113  -0.46859
 Alpha  occ. eigenvalues --   -0.46654  -0.46569  -0.46359  -0.45949  -0.45628
 Alpha  occ. eigenvalues --   -0.45529  -0.45207  -0.44863  -0.44541  -0.44342
 Alpha  occ. eigenvalues --   -0.44310  -0.43401  -0.43231  -0.42950  -0.42704
 Alpha  occ. eigenvalues --   -0.42468  -0.42006  -0.41141  -0.40931  -0.39336
 Alpha  occ. eigenvalues --   -0.38366  -0.38137  -0.37537  -0.37456  -0.36939
 Alpha  occ. eigenvalues --   -0.36313  -0.35575  -0.34987  -0.34772  -0.34236
 Alpha  occ. eigenvalues --   -0.33013  -0.32613  -0.32157  -0.32046  -0.31227
 Alpha  occ. eigenvalues --   -0.26606  -0.25010
 Alpha virt. eigenvalues --   -0.12477  -0.09291  -0.08599  -0.07489  -0.07064
 Alpha virt. eigenvalues --   -0.05668  -0.05502  -0.05171  -0.04424  -0.04119
 Alpha virt. eigenvalues --   -0.01841  -0.01490  -0.01366  -0.00229  -0.00130

 Mulliken charges:
               1
     1  N   -0.760068
     2  H    0.335441
     3  H    0.442425
     4  H    0.324205
     5  C   -0.067023
     6  H    0.159137
     7  C    0.635744
     8  C   -0.300351
     9  H    0.189424
    10  H    0.175228
    11  O   -0.568989
    12  C   -0.376122
    13  H    0.185370
    14  H    0.183269
    15  C    0.590454
    16  O   -0.463831
    17  O   -0.558477
    18  N   -0.608587
    19  H    0.371247
    20  C   -0.075003
    21  H    0.187246
    22  C    0.620912
    23  C   -0.351372
    24  H    0.157203
    25  H    0.179639
    26  O   -0.519724
    27  C    0.014994
    28  C   -0.007923
    29  H    0.153521
    30  C    0.077156
    31  C    0.309452
    32  C   -0.200856
    33  H    0.155976
    34  N   -0.676026
    35  H    0.340742
    36  C   -0.147984
    37  H    0.130866
    38  C   -0.161652
    39  H    0.129693
    40  C   -0.143531
    41  H    0.126264
    42  N   -0.627337
    43  H    0.375048
    44  C   -0.060221
    45  H    0.191296
    46  C    0.654486
    47  C    0.123602
    48  H    0.108884
    49  O   -0.602134
    50  C   -0.458129
    51  H    0.143162
    52  H    0.154485
    53  H    0.162752
    54  O   -0.674114
    55  N   -0.618839
    56  H    0.391545
    57  C   -0.008058
    58  H    0.195679
    59  C    0.567096
    60  C   -0.282964
    61  H    0.178335
    62  H    0.171772
    63  O   -0.435290
    64  C   -0.289453
    65  H    0.178216
    66  H    0.160900
    67  C   -0.176886
    68  H    0.194087
    69  H    0.195331
    70  N   -0.597693
    71  H    0.363123
    72  N   -0.785654
    73  H    0.372806
    74  H    0.447155
    75  N   -0.769131
    76  H    0.380919
    77  H    0.382538
    78  C    0.826854
    79  O   -0.571116
    80  H    0.430219
    81  H    0.418640
 Sum of Mulliken charges =   1.00000

 Dipole moment (field-independent basis, Debye):
    X=              4.6564    Y=            -14.7384    Z=            -17.2788  Tot=             23.1832
 Quadrupole moment (field-independent basis, Debye-Ang):
   XX=           -193.0057   YY=           -155.9034   ZZ=            -67.2895
   XY=            -47.3442   XZ=            -78.7637   YZ=             86.0611

 Normal termination of Gaussian 16 at Thu May 26 18:09:11 2022.
