 Gaussian 16, Revision C.01,
 Gaussian 16:  ES64L-G16RevC.01  3-Jul-2019

 -------------------------------------------------------------------
 # B3LYP/6-31G* guess=read geom=check nosymm integral(ultrafinegrid)
 -------------------------------------------------------------------

 ------------------------------------------------------
 Candidate Structure: Conf:156 Charge calc in gas phase
 ------------------------------------------------------
 Structure from the checkpoint file:  "conf-156.chk"
 Charge =  1 Multiplicity = 1

                          Input orientation:
 ---------------------------------------------------------------------
 Center     Atomic      Atomic             Coordinates (Angstroms)
 Number     Number       Type             X           Y           Z
 ---------------------------------------------------------------------
      1          7           0       -5.519971   -0.270603    2.116888
      2          1           0       -5.814037    0.628728    2.547778
      3          1           0       -5.849047   -0.266081    1.118199
      4          1           0       -5.910699   -1.053705    2.645494
      5          6           0       -4.013889   -0.331199    1.966665
      6          1           0       -3.587283    0.219315    2.807834
      7          6           0       -3.828029    0.431351    0.619675
      8          6           0       -3.534514   -1.793977    1.939543
      9          1           0       -4.194863   -2.402644    2.574030
     10          1           0       -3.622970   -2.202440    0.928393
     11          8           0       -4.746718    0.311487   -0.207134
     12          6           0       -2.099244   -1.964801    2.453384
     13          1           0       -2.023179   -1.711002    3.516594
     14          1           0       -1.369624   -1.326049    1.935560
     15          6           0       -1.618154   -3.387580    2.250212
     16          8           0       -2.079452   -4.168485    1.445429
     17          8           0       -0.592728   -3.682517    3.071256
     18          7           0       -2.752958    1.199771    0.510884
     19          1           0       -1.921334    1.053992    1.091123
     20          6           0       -2.457403    2.115042   -0.595875
     21          1           0       -2.897733    1.709229   -1.512081
     22          6           0       -0.915394    2.226853   -0.757414
     23          6           0       -3.057513    3.523302   -0.323695
     24          1           0       -2.761744    4.148394   -1.170433
     25          1           0       -2.557122    3.943953    0.557824
     26          8           0       -0.520537    3.122398   -1.556063
     27          6           0       -4.547232    3.531970   -0.130604
     28          6           0       -5.497472    3.690549   -1.107989
     29          1           0       -5.368825    3.907063   -2.159893
     30          6           0       -5.275572    3.264533    1.086571
     31          6           0       -6.665588    3.245150    0.759551
     32          6           0       -4.899106    3.029930    2.421198
     33          1           0       -3.853535    3.080816    2.713228
     34          7           0       -6.764966    3.516325   -0.583240
     35          1           0       -7.625704    3.611754   -1.100249
     36          6           0       -7.251160    2.705899    3.013217
     37          1           0       -7.998461    2.503238    3.775293
     38          6           0       -7.656714    2.964142    1.706494
     39          1           0       -8.709215    2.952997    1.436141
     40          6           0       -5.882066    2.745537    3.371756
     41          1           0       -5.599888    2.600449    4.411789
     42          7           0       -0.248419    1.370200   -0.014912
     43          1           0       -0.067741   -0.425366    0.430649
     44          6           0        1.196289    1.390123    0.179763
     45          1           0        1.524986    2.373240    0.558086
     46          6           0        2.091880    1.126924   -1.061413
     47          6           0        1.474449    0.303025    1.258261
     48          1           0        2.515242   -0.017476    1.173126
     49          8           0        3.098647    0.417817   -1.016386
     50          6           0        1.200806    0.807788    2.674433
     51          1           0        1.917035    1.587682    2.961434
     52          1           0        1.288800   -0.018273    3.387894
     53          1           0        0.190716    1.229040    2.753526
     54          8           0        0.656800   -0.837232    0.955366
     55          7           0        1.716769    1.776250   -2.201193
     56          1           0        0.924633    2.445179   -2.130226
     57          6           0        2.581393    1.731931   -3.357500
     58          1           0        3.589433    1.499674   -2.983491
     59          6           0        2.663870    3.081464   -4.066798
     60          6           0        2.193731    0.650430   -4.384613
     61          1           0        2.944704    0.694973   -5.183175
     62          1           0        1.222198    0.929536   -4.822848
     63          8           0        2.642426    3.220340   -5.274477
     64          6           0        2.107094   -0.761297   -3.800613
     65          1           0        3.044536   -1.031896   -3.302413
     66          1           0        1.338584   -0.790500   -3.020675
     67          6           0        1.734695   -1.819062   -4.842890
     68          1           0        1.575856   -2.791189   -4.366925
     69          1           0        0.808191   -1.563430   -5.367199
     70          7           0        2.775048   -2.041517   -5.876329
     71          1           0        3.565299   -2.612228   -5.601372
     72          7           0        1.992514   -0.534573   -7.471786
     73          1           0        1.910462   -0.270115   -8.443470
     74          1           0        1.653574    0.125494   -6.782116
     75          7           0        3.646428   -2.058791   -8.023053
     76          1           0        4.093638   -2.952266   -7.874582
     77          1           0        3.919592   -1.533999   -8.841789
     78          6           0        2.808295   -1.535212   -7.107708
     79          8           0        2.798201    4.105247   -3.208122
     80          1           0        2.845666    4.919575   -3.744392
     81          1           0       -0.297460   -4.584118    2.841663
 ---------------------------------------------------------------------

 SCF Done:  E(RB3LYP) =  -2053.88965462     A.U. after    1 cycles

 Alpha  occ. eigenvalues --  -19.26014 -19.25813 -19.21259 -19.20673 -19.20329
 Alpha  occ. eigenvalues --  -19.16349 -19.15549 -19.13431 -14.54895 -14.52801
 Alpha  occ. eigenvalues --  -14.52643 -14.52238 -14.45139 -14.43869 -14.38920
 Alpha  occ. eigenvalues --  -14.33377 -10.48962 -10.38747 -10.38712 -10.38270
 Alpha  occ. eigenvalues --  -10.36011 -10.35101 -10.32239 -10.30168 -10.30090
 Alpha  occ. eigenvalues --  -10.29876 -10.29613 -10.28618 -10.28265 -10.28029
 Alpha  occ. eigenvalues --  -10.27830 -10.27773 -10.26981 -10.26817 -10.26747
 Alpha  occ. eigenvalues --  -10.26550 -10.25973 -10.25902 -10.25584 -10.24818
 Alpha  occ. eigenvalues --  -10.24677 -10.20922  -1.17269  -1.17149  -1.16849
 Alpha  occ. eigenvalues --   -1.13796  -1.08786  -1.08084  -1.07881  -1.07373
 Alpha  occ. eigenvalues --   -1.06413  -1.05433  -1.05075  -1.04390  -1.03757
 Alpha  occ. eigenvalues --   -1.00668  -0.96563  -0.91802  -0.90940  -0.90063
 Alpha  occ. eigenvalues --   -0.89796  -0.86984  -0.84383  -0.83500  -0.81652
 Alpha  occ. eigenvalues --   -0.81028  -0.80267  -0.79491  -0.78441  -0.77253
 Alpha  occ. eigenvalues --   -0.75116  -0.74777  -0.73831  -0.71996  -0.71080
 Alpha  occ. eigenvalues --   -0.69815  -0.69699  -0.69074  -0.68323  -0.66791
 Alpha  occ. eigenvalues --   -0.66676  -0.66028  -0.65851  -0.65645  -0.65169
 Alpha  occ. eigenvalues --   -0.63274  -0.63121  -0.62619  -0.61294  -0.60468
 Alpha  occ. eigenvalues --   -0.60080  -0.59167  -0.58903  -0.58102  -0.56670
 Alpha  occ. eigenvalues --   -0.56026  -0.55672  -0.55288  -0.55138  -0.54913
 Alpha  occ. eigenvalues --   -0.54809  -0.54356  -0.53996  -0.53788  -0.52824
 Alpha  occ. eigenvalues --   -0.51790  -0.51642  -0.51077  -0.50962  -0.50704
 Alpha  occ. eigenvalues --   -0.50265  -0.50036  -0.49553  -0.49292  -0.48654
 Alpha  occ. eigenvalues --   -0.47728  -0.47692  -0.47291  -0.46735  -0.46656
 Alpha  occ. eigenvalues --   -0.46202  -0.45919  -0.45899  -0.45209  -0.44707
 Alpha  occ. eigenvalues --   -0.44599  -0.44308  -0.44209  -0.43715  -0.43488
 Alpha  occ. eigenvalues --   -0.43390  -0.43161  -0.42564  -0.41489  -0.41349
 Alpha  occ. eigenvalues --   -0.41062  -0.40661  -0.40568  -0.40160  -0.39623
 Alpha  occ. eigenvalues --   -0.38785  -0.38250  -0.38040  -0.36032  -0.35135
 Alpha  occ. eigenvalues --   -0.34840  -0.34468  -0.34095  -0.33862  -0.31969
 Alpha  occ. eigenvalues --   -0.30236  -0.29690  -0.29273  -0.29222  -0.27466
 Alpha  occ. eigenvalues --   -0.26556  -0.25527
 Alpha virt. eigenvalues --   -0.13212  -0.09072  -0.08727  -0.07949  -0.06171
 Alpha virt. eigenvalues --   -0.05868  -0.05347  -0.05035  -0.04553  -0.04082
 Alpha virt. eigenvalues --   -0.02909  -0.01836  -0.01451  -0.01083   0.00041

 Mulliken charges:
               1
     1  N   -0.765289
     2  H    0.417433
     3  H    0.418373
     4  H    0.391579
     5  C   -0.100958
     6  H    0.194787
     7  C    0.650263
     8  C   -0.291050
     9  H    0.152306
    10  H    0.210921
    11  O   -0.554940
    12  C   -0.393645
    13  H    0.178460
    14  H    0.228851
    15  C    0.597088
    16  O   -0.465438
    17  O   -0.552555
    18  N   -0.597612
    19  H    0.361163
    20  C   -0.035608
    21  H    0.170505
    22  C    0.558687
    23  C   -0.354642
    24  H    0.187376
    25  H    0.151274
    26  O   -0.627474
    27  C    0.090579
    28  C    0.018314
    29  H    0.165748
    30  C    0.072353
    31  C    0.326167
    32  C   -0.233411
    33  H    0.144153
    34  N   -0.685714
    35  H    0.338700
    36  C   -0.172933
    37  H    0.145125
    38  C   -0.165550
    39  H    0.144466
    40  C   -0.217368
    41  H    0.141890
    42  N   -0.619838
    43  H    0.394129
    44  C   -0.095719
    45  H    0.160309
    46  C    0.607303
    47  C    0.160683
    48  H    0.158780
    49  O   -0.544120
    50  C   -0.457932
    51  H    0.140672
    52  H    0.150866
    53  H    0.118448
    54  O   -0.666965
    55  N   -0.647221
    56  H    0.401051
    57  C   -0.032765
    58  H    0.200938
    59  C    0.585116
    60  C   -0.286736
    61  H    0.133881
    62  H    0.141401
    63  O   -0.490008
    64  C   -0.258976
    65  H    0.182128
    66  H    0.195354
    67  C   -0.191409
    68  H    0.198916
    69  H    0.182748
    70  N   -0.579636
    71  H    0.367111
    72  N   -0.749986
    73  H    0.381205
    74  H    0.406326
    75  N   -0.760065
    76  H    0.383583
    77  H    0.384733
    78  C    0.807874
    79  O   -0.542457
    80  H    0.419633
    81  H    0.418268
 Sum of Mulliken charges =   1.00000

 Dipole moment (field-independent basis, Debye):
    X=             -6.0267    Y=             -6.0616    Z=            -19.6058  Tot=             21.3881
 Quadrupole moment (field-independent basis, Debye-Ang):
   XX=           -101.9913   YY=           -219.7639   ZZ=            -13.7511
   XY=            -36.8982   XZ=           -114.1753   YZ=             36.4957

 Normal termination of Gaussian 16 at Thu May 26 18:09:11 2022.
