 Gaussian 16, Revision C.01,
 Gaussian 16:  ES64L-G16RevC.01  3-Jul-2019

 -------------------------------------------------------------------
 # B3LYP/6-31G* guess=read geom=check nosymm integral(ultrafinegrid)
 -------------------------------------------------------------------

 ------------------------------------------------------
 Candidate Structure: Conf:669 Charge calc in gas phase
 ------------------------------------------------------
 Structure from the checkpoint file:  "conf-669.chk"
 Charge =  1 Multiplicity = 1

                          Input orientation:
 ---------------------------------------------------------------------
 Center     Atomic      Atomic             Coordinates (Angstroms)
 Number     Number       Type             X           Y           Z
 ---------------------------------------------------------------------
      1          7           0       -3.530547   -2.483385    1.869782
      2          1           0       -4.531070   -2.637185    1.731534
      3          1           0       -3.001385   -2.581141    0.931238
      4          1           0       -3.178144   -3.152600    2.558723
      5          6           0       -3.170757   -1.048067    2.225897
      6          1           0       -4.096996   -0.483327    2.344760
      7          6           0       -2.453072   -0.590657    0.915060
      8          6           0       -2.371095   -1.096707    3.546142
      9          1           0       -3.036850   -1.566250    4.284719
     10          1           0       -1.482688   -1.720452    3.385771
     11          8           0       -2.229480   -1.465815    0.057305
     12          6           0       -1.796778    0.208657    4.127964
     13          1           0       -0.861558    0.391864    3.553714
     14          1           0       -1.471327    0.006837    5.151397
     15          6           0       -2.685691    1.410998    4.120999
     16          8           0       -3.383525    1.778479    3.177388
     17          8           0       -2.623322    2.122017    5.256690
     18          7           0       -2.201252    0.703970    0.780772
     19          1           0       -2.523831    1.312422    1.534785
     20          6           0       -1.585586    1.308040   -0.404995
     21          1           0       -1.861383    0.682886   -1.260719
     22          6           0       -0.033647    1.340812   -0.350478
     23          6           0       -2.151353    2.732363   -0.603194
     24          1           0       -1.593484    3.172323   -1.434759
     25          1           0       -1.902651    3.333978    0.281660
     26          8           0        0.559082    2.063044   -1.182200
     27          6           0       -3.630159    2.770638   -0.851460
     28          6           0       -4.603134    3.145391    0.042237
     29          1           0       -4.502593    3.481162    1.065881
     30          6           0       -4.316073    2.398922   -2.066799
     31          6           0       -5.708323    2.576803   -1.836540
     32          6           0       -3.891482    1.943836   -3.327988
     33          1           0       -2.833475    1.804969   -3.537086
     34          7           0       -5.852484    3.020648   -0.536843
     35          1           0       -6.719609    3.313041   -0.113725
     36          6           0       -6.216673    1.868903   -4.055737
     37          1           0       -6.936457    1.660309   -4.842248
     38          6           0       -6.668522    2.318403   -2.820308
     39          1           0       -7.728364    2.465683   -2.629320
     40          6           0       -4.841665    1.683259   -4.307353
     41          1           0       -4.524364    1.333616   -5.285993
     42          7           0        0.512046    0.545129    0.555903
     43          1           0       -0.047749   -0.021696    1.282880
     44          6           0        1.855080    0.407236    1.097418
     45          1           0        2.155615    1.351246    1.579942
     46          6           0        2.989446    0.061035    0.134332
     47          6           0        1.642077   -0.717528    2.245598
     48          1           0        2.014937   -1.662080    1.800876
     49          8           0        3.975615   -0.575194    0.492925
     50          6           0        2.530660   -0.390132    3.450663
     51          1           0        3.588143   -0.338752    3.168033
     52          1           0        2.409803   -1.163419    4.217513
     53          1           0        2.231263    0.569732    3.893022
     54          8           0        0.305712   -0.788532    2.553523
     55          7           0        2.864202    0.551377   -1.144425
     56          1           0        2.086989    1.200405   -1.340910
     57          6           0        3.953056    0.389827   -2.079638
     58          1           0        4.730372   -0.144296   -1.512235
     59          6           0        4.530657    1.758083   -2.438795
     60          6           0        3.548029   -0.438327   -3.314807
     61          1           0        2.854985    0.151771   -3.928388
     62          1           0        2.966795   -1.282343   -2.935229
     63          8           0        4.691739    2.206461   -3.574913
     64          6           0        4.736363   -0.964659   -4.164259
     65          1           0        5.682249   -0.514109   -3.838610
     66          1           0        4.852237   -2.043270   -4.020349
     67          6           0        4.582550   -0.709739   -5.668420
     68          1           0        5.415621   -1.162460   -6.220985
     69          1           0        3.644171   -1.147937   -6.034953
     70          7           0        4.577141    0.741800   -5.896019
     71          1           0        4.546298    1.322280   -5.039805
     72          7           0        4.580880    0.701281   -8.225554
     73          1           0        4.904547    1.127336   -9.081969
     74          1           0        4.436993   -0.297465   -8.237095
     75          7           0        4.860887    2.701507   -7.081273
     76          1           0        4.900530    3.199434   -6.200537
     77          1           0        4.575280    3.238847   -7.887915
     78          6           0        4.665111    1.364065   -7.056343
     79          8           0        4.860823    2.471168   -1.365551
     80          1           0        5.206374    3.332524   -1.668759
     81          1           0       -3.175623    2.917791    5.130406
 ---------------------------------------------------------------------

 SCF Done:  E(RB3LYP) =  -2053.88944854     A.U. after    1 cycles

 Alpha  occ. eigenvalues --  -19.29384 -19.27577 -19.25344 -19.22373 -19.22151
 Alpha  occ. eigenvalues --  -19.16195 -19.16058 -19.08040 -14.54745 -14.51617
 Alpha  occ. eigenvalues --  -14.50841 -14.49769 -14.44292 -14.43225 -14.40105
 Alpha  occ. eigenvalues --  -14.37915 -10.47235 -10.42554 -10.40305 -10.38612
 Alpha  occ. eigenvalues --  -10.35744 -10.35137 -10.33234 -10.33031 -10.31460
 Alpha  occ. eigenvalues --  -10.29674 -10.29559 -10.28611 -10.28027 -10.27132
 Alpha  occ. eigenvalues --  -10.27014 -10.26012 -10.25730 -10.25043 -10.23969
 Alpha  occ. eigenvalues --  -10.23811 -10.23663 -10.23531 -10.23466 -10.23451
 Alpha  occ. eigenvalues --  -10.23083 -10.18141  -1.21047  -1.18687  -1.15824
 Alpha  occ. eigenvalues --   -1.14525  -1.11785  -1.09354  -1.08671  -1.08105
 Alpha  occ. eigenvalues --   -1.07141  -1.04897  -1.04207  -1.03041  -1.01405
 Alpha  occ. eigenvalues --   -0.97855  -0.97561  -0.92673  -0.90191  -0.89032
 Alpha  occ. eigenvalues --   -0.88779  -0.86162  -0.84577  -0.82943  -0.80940
 Alpha  occ. eigenvalues --   -0.79552  -0.78519  -0.77884  -0.77490  -0.76605
 Alpha  occ. eigenvalues --   -0.75063  -0.73369  -0.72869  -0.72530  -0.70804
 Alpha  occ. eigenvalues --   -0.69379  -0.69296  -0.69130  -0.67751  -0.67320
 Alpha  occ. eigenvalues --   -0.67084  -0.64857  -0.64626  -0.64349  -0.64209
 Alpha  occ. eigenvalues --   -0.63917  -0.62482  -0.62116  -0.61112  -0.60408
 Alpha  occ. eigenvalues --   -0.59871  -0.59165  -0.58751  -0.58367  -0.57631
 Alpha  occ. eigenvalues --   -0.57559  -0.56743  -0.56373  -0.55624  -0.55043
 Alpha  occ. eigenvalues --   -0.54862  -0.54634  -0.54357  -0.53399  -0.53125
 Alpha  occ. eigenvalues --   -0.52396  -0.52060  -0.52024  -0.51391  -0.50530
 Alpha  occ. eigenvalues --   -0.49531  -0.49394  -0.48815  -0.48674  -0.48360
 Alpha  occ. eigenvalues --   -0.48052  -0.47711  -0.46753  -0.46622  -0.46202
 Alpha  occ. eigenvalues --   -0.45900  -0.45780  -0.45217  -0.44908  -0.44510
 Alpha  occ. eigenvalues --   -0.44130  -0.43863  -0.43762  -0.43105  -0.42872
 Alpha  occ. eigenvalues --   -0.42680  -0.42546  -0.42067  -0.41938  -0.40933
 Alpha  occ. eigenvalues --   -0.40376  -0.40174  -0.39687  -0.39610  -0.38840
 Alpha  occ. eigenvalues --   -0.38400  -0.38328  -0.38233  -0.36833  -0.36420
 Alpha  occ. eigenvalues --   -0.36017  -0.35715  -0.34933  -0.32493  -0.31214
 Alpha  occ. eigenvalues --   -0.30624  -0.29635  -0.28200  -0.27315  -0.25429
 Alpha  occ. eigenvalues --   -0.24148  -0.22254
 Alpha virt. eigenvalues --   -0.11357  -0.09743  -0.07754  -0.07251  -0.07162
 Alpha virt. eigenvalues --   -0.06229  -0.06122  -0.03704  -0.02833  -0.02179
 Alpha virt. eigenvalues --   -0.01966  -0.01693  -0.01592  -0.01121  -0.00272

 Mulliken charges:
               1
     1  N   -0.766769
     2  H    0.401282
     3  H    0.434246
     4  H    0.405047
     5  C   -0.110326
     6  H    0.216895
     7  C    0.655412
     8  C   -0.298521
     9  H    0.145780
    10  H    0.225060
    11  O   -0.556946
    12  C   -0.388687
    13  H    0.258316
    14  H    0.189121
    15  C    0.595015
    16  O   -0.517457
    17  O   -0.539583
    18  N   -0.622716
    19  H    0.398736
    20  C   -0.040015
    21  H    0.195837
    22  C    0.632118
    23  C   -0.396591
    24  H    0.192141
    25  H    0.149066
    26  O   -0.600268
    27  C    0.076836
    28  C   -0.011275
    29  H    0.160501
    30  C    0.081143
    31  C    0.308404
    32  C   -0.213668
    33  H    0.124438
    34  N   -0.691786
    35  H    0.330906
    36  C   -0.151370
    37  H    0.130672
    38  C   -0.164087
    39  H    0.128486
    40  C   -0.139598
    41  H    0.120774
    42  N   -0.666777
    43  H    0.421325
    44  C   -0.096938
    45  H    0.162526
    46  C    0.611568
    47  C    0.218149
    48  H    0.086818
    49  O   -0.515582
    50  C   -0.459989
    51  H    0.146684
    52  H    0.132812
    53  H    0.115257
    54  O   -0.722093
    55  N   -0.648649
    56  H    0.386470
    57  C   -0.046894
    58  H    0.219886
    59  C    0.615101
    60  C   -0.290711
    61  H    0.152178
    62  H    0.189958
    63  O   -0.542719
    64  C   -0.311702
    65  H    0.169635
    66  H    0.185369
    67  C   -0.160483
    68  H    0.176462
    69  H    0.180830
    70  N   -0.629977
    71  H    0.434330
    72  N   -0.759902
    73  H    0.380645
    74  H    0.386881
    75  N   -0.762655
    76  H    0.391361
    77  H    0.374430
    78  C    0.800686
    79  O   -0.513871
    80  H    0.425415
    81  H    0.417598
 Sum of Mulliken charges =   1.00000

 Dipole moment (field-independent basis, Debye):
    X=              2.3705    Y=              2.3935    Z=            -19.7605  Tot=             20.0455
 Quadrupole moment (field-independent basis, Debye-Ang):
   XX=           -100.8989   YY=           -195.5779   ZZ=            -30.7143
   XY=             39.1384   XZ=           -163.7937   YZ=            -27.2213

 Normal termination of Gaussian 16 at Thu May 26 18:13:31 2022.
