 Gaussian 16, Revision C.01,
 Gaussian 16:  ES64L-G16RevC.01  3-Jul-2019

 -------------------------------------------------------------------
 # B3LYP/6-31G* guess=read geom=check nosymm integral(ultrafinegrid)
 -------------------------------------------------------------------

 -----------------------------------------------------
 Candidate Structure: Conf:34 Charge calc in gas phase
 -----------------------------------------------------
 Structure from the checkpoint file:  "conf-34.chk"
 Charge =  1 Multiplicity = 1

                          Input orientation:
 ---------------------------------------------------------------------
 Center     Atomic      Atomic             Coordinates (Angstroms)
 Number     Number       Type             X           Y           Z
 ---------------------------------------------------------------------
      1          7           0       -5.039930    1.687215    4.733184
      2          1           0       -5.623807    2.525673    4.679593
      3          1           0       -5.361818    0.979942    3.985758
      4          1           0       -5.106184    1.300298    5.677853
      5          6           0       -3.614248    1.927064    4.270602
      6          1           0       -3.405006    2.995633    4.264648
      7          6           0       -3.646823    1.327741    2.837293
      8          6           0       -2.651226    1.199860    5.234592
      9          1           0       -2.804998    1.623326    6.236354
     10          1           0       -2.934813    0.140097    5.279274
     11          8           0       -4.608586    0.577285    2.566890
     12          6           0       -1.151521    1.272572    4.897052
     13          1           0       -0.918511    0.784260    3.942815
     14          1           0       -0.589702    0.729607    5.662622
     15          6           0       -0.606940    2.680772    4.783957
     16          8           0       -1.262548    3.658607    4.468702
     17          8           0        0.704810    2.728989    5.044620
     18          7           0       -2.647074    1.652096    2.042928
     19          1           0       -1.830243    2.182609    2.383695
     20          6           0       -2.279559    0.971789    0.796691
     21          1           0       -2.568574   -0.079145    0.882032
     22          6           0       -0.716047    1.057870    0.753298
     23          6           0       -2.993138    1.536121   -0.443240
     24          1           0       -4.073778    1.380803   -0.318424
     25          1           0       -2.688787    0.885923   -1.274675
     26          8           0       -0.178434    1.823113    1.623153
     27          6           0       -2.731817    2.982748   -0.780406
     28          6           0       -1.878755    3.874956   -0.170724
     29          1           0       -1.188363    3.710702    0.645893
     30          6           0       -3.358600    3.707703   -1.864947
     31          6           0       -2.843543    5.037202   -1.844797
     32          6           0       -4.276343    3.353488   -2.874216
     33          1           0       -4.692751    2.350227   -2.915892
     34          7           0       -1.947841    5.102579   -0.801243
     35          1           0       -1.430951    5.922441   -0.521697
     36          6           0       -4.138102    5.624642   -3.762811
     37          1           0       -4.464061    6.353738   -4.499038
     38          6           0       -3.230415    6.004625   -2.778948
     39          1           0       -2.838368    7.017567   -2.738991
     40          6           0       -4.652689    4.310190   -3.814201
     41          1           0       -5.367671    4.049214   -4.589243
     42          7           0       -0.179468    0.303581   -0.169650
     43          1           0        0.128981   -1.840268   -0.459164
     44          6           0        1.267332    0.211234   -0.159513
     45          1           0        1.749130    1.014234    0.419550
     46          6           0        1.812383    0.225995   -1.593101
     47          6           0        1.664581   -1.172524    0.461757
     48          1           0        2.742520   -1.336985    0.333714
     49          8           0        1.104398    0.140319   -2.606465
     50          6           0        1.333873   -1.268840    1.951550
     51          1           0        1.852339   -0.496721    2.531383
     52          1           0        1.632626   -2.254450    2.322449
     53          1           0        0.256328   -1.156957    2.109638
     54          8           0        1.021902   -2.196655   -0.282838
     55          7           0        3.165145    0.328954   -1.716630
     56          1           0        3.735208    0.269167   -0.877646
     57          6           0        3.861139   -0.101409   -2.926308
     58          1           0        3.273154   -0.897007   -3.400584
     59          6           0        5.182870   -0.717009   -2.464514
     60          6           0        4.121012    0.994982   -3.992662
     61          1           0        4.817498    0.566013   -4.719097
     62          1           0        4.642070    1.838263   -3.519310
     63          8           0        5.589485   -0.690355   -1.322508
     64          6           0        2.867201    1.482587   -4.750116
     65          1           0        3.163375    1.782152   -5.764160
     66          1           0        2.148770    0.664219   -4.847536
     67          6           0        2.180469    2.675317   -4.074403
     68          1           0        1.945440    2.457599   -3.034640
     69          1           0        2.847351    3.546600   -4.081086
     70          7           0        0.931335    3.076521   -4.737565
     71          1           0        1.006088    3.463169   -5.669672
     72          7           0       -0.598556    2.205303   -3.198402
     73          1           0       -1.442833    2.387353   -2.666836
     74          1           0       -0.014319    1.401060   -2.902494
     75          7           0       -1.290529    3.705396   -4.825469
     76          1           0       -1.062537    4.587925   -5.260576
     77          1           0       -2.248627    3.609487   -4.501644
     78          6           0       -0.311975    2.982421   -4.231948
     79          8           0        5.850846   -1.292816   -3.479209
     80          1           0        6.673946   -1.663957   -3.106934
     81          1           0        1.003656    3.642165    4.869739
 ---------------------------------------------------------------------

 SCF Done:  E(RB3LYP) =  -2053.91867981     A.U. after    1 cycles

 Alpha  occ. eigenvalues --  -19.28662 -19.27745 -19.23920 -19.23461 -19.22304
 Alpha  occ. eigenvalues --  -19.19267 -19.17454 -19.15132 -14.57396 -14.48173
 Alpha  occ. eigenvalues --  -14.47292 -14.46270 -14.45355 -14.45352 -14.43118
 Alpha  occ. eigenvalues --  -14.33466 -10.43600 -10.41774 -10.40249 -10.40243
 Alpha  occ. eigenvalues --  -10.37685 -10.35713 -10.32809 -10.32093 -10.31847
 Alpha  occ. eigenvalues --  -10.30924 -10.30507 -10.30387 -10.29756 -10.29554
 Alpha  occ. eigenvalues --  -10.28361 -10.27617 -10.27463 -10.27333 -10.27201
 Alpha  occ. eigenvalues --  -10.27076 -10.27033 -10.26810 -10.26761 -10.26711
 Alpha  occ. eigenvalues --  -10.26401 -10.21894  -1.19870  -1.18820  -1.16250
 Alpha  occ. eigenvalues --   -1.12028  -1.10990  -1.10950  -1.10806  -1.09849
 Alpha  occ. eigenvalues --   -1.06241  -1.05959  -1.05311  -1.01728  -1.01689
 Alpha  occ. eigenvalues --   -0.99875  -0.99305  -0.92467  -0.92349  -0.92151
 Alpha  occ. eigenvalues --   -0.88616  -0.88344  -0.85470  -0.84142  -0.83234
 Alpha  occ. eigenvalues --   -0.81953  -0.80354  -0.79486  -0.77850  -0.77586
 Alpha  occ. eigenvalues --   -0.75445  -0.73970  -0.73486  -0.71417  -0.71149
 Alpha  occ. eigenvalues --   -0.70583  -0.69944  -0.68989  -0.68564  -0.67719
 Alpha  occ. eigenvalues --   -0.67449  -0.67159  -0.65954  -0.65415  -0.64953
 Alpha  occ. eigenvalues --   -0.63726  -0.62721  -0.61995  -0.61176  -0.60960
 Alpha  occ. eigenvalues --   -0.60306  -0.59545  -0.58838  -0.58057  -0.57602
 Alpha  occ. eigenvalues --   -0.56830  -0.56509  -0.56448  -0.56189  -0.55541
 Alpha  occ. eigenvalues --   -0.55373  -0.54870  -0.54567  -0.54232  -0.53551
 Alpha  occ. eigenvalues --   -0.53421  -0.52854  -0.52349  -0.51882  -0.51662
 Alpha  occ. eigenvalues --   -0.51338  -0.51040  -0.50324  -0.49967  -0.49853
 Alpha  occ. eigenvalues --   -0.49778  -0.49163  -0.49024  -0.48537  -0.48012
 Alpha  occ. eigenvalues --   -0.47694  -0.47375  -0.47124  -0.46952  -0.46736
 Alpha  occ. eigenvalues --   -0.46346  -0.45892  -0.45368  -0.45179  -0.44437
 Alpha  occ. eigenvalues --   -0.43969  -0.43038  -0.42860  -0.42484  -0.42080
 Alpha  occ. eigenvalues --   -0.41881  -0.41523  -0.41118  -0.40996  -0.39794
 Alpha  occ. eigenvalues --   -0.39676  -0.38711  -0.38323  -0.37033  -0.36720
 Alpha  occ. eigenvalues --   -0.36247  -0.35909  -0.35772  -0.35658  -0.33613
 Alpha  occ. eigenvalues --   -0.32877  -0.30962  -0.30877  -0.30283  -0.28946
 Alpha  occ. eigenvalues --   -0.28516  -0.26583
 Alpha virt. eigenvalues --   -0.09795  -0.09321  -0.09100  -0.08430  -0.08046
 Alpha virt. eigenvalues --   -0.07243  -0.06322  -0.05457  -0.04277  -0.03506
 Alpha virt. eigenvalues --   -0.01787  -0.01543  -0.01030  -0.00185   0.00074

 Mulliken charges:
               1
     1  N   -0.763317
     2  H    0.410611
     3  H    0.429797
     4  H    0.404254
     5  C   -0.109596
     6  H    0.244522
     7  C    0.629718
     8  C   -0.299739
     9  H    0.174410
    10  H    0.178946
    11  O   -0.561322
    12  C   -0.391506
    13  H    0.236111
    14  H    0.204308
    15  C    0.622853
    16  O   -0.487195
    17  O   -0.541652
    18  N   -0.592884
    19  H    0.385175
    20  C   -0.062314
    21  H    0.176930
    22  C    0.549903
    23  C   -0.339372
    24  H    0.165848
    25  H    0.172180
    26  O   -0.658253
    27  C    0.021745
    28  C   -0.002775
    29  H    0.198036
    30  C    0.032684
    31  C    0.325281
    32  C   -0.239119
    33  H    0.147815
    34  N   -0.692790
    35  H    0.337851
    36  C   -0.166318
    37  H    0.146347
    38  C   -0.173178
    39  H    0.140617
    40  C   -0.162551
    41  H    0.147335
    42  N   -0.559975
    43  H    0.402088
    44  C   -0.114195
    45  H    0.149353
    46  C    0.637591
    47  C    0.148778
    48  H    0.125808
    49  O   -0.570350
    50  C   -0.445173
    51  H    0.140277
    52  H    0.157125
    53  H    0.135515
    54  O   -0.640833
    55  N   -0.606678
    56  H    0.360716
    57  C   -0.031095
    58  H    0.207178
    59  C    0.583832
    60  C   -0.284938
    61  H    0.182337
    62  H    0.150332
    63  O   -0.461263
    64  C   -0.263271
    65  H    0.141634
    66  H    0.184928
    67  C   -0.153808
    68  H    0.191908
    69  H    0.167650
    70  N   -0.603058
    71  H    0.349588
    72  N   -0.807247
    73  H    0.392128
    74  H    0.452957
    75  N   -0.770774
    76  H    0.356895
    77  H    0.387198
    78  C    0.771777
    79  O   -0.558469
    80  H    0.428440
    81  H    0.425698
 Sum of Mulliken charges =   1.00000

 Dipole moment (field-independent basis, Debye):
    X=             -8.7308    Y=             17.2456    Z=              2.3613  Tot=             19.4733
 Quadrupole moment (field-independent basis, Debye-Ang):
   XX=           -144.7667   YY=           -177.6403   ZZ=            -90.3965
   XY=            -28.2269   XZ=            -79.7508   YZ=            -20.7606

 Normal termination of Gaussian 16 at Thu May 26 18:09:14 2022.
