 Gaussian 16, Revision C.01,
 Gaussian 16:  ES64L-G16RevC.01  3-Jul-2019

 -------------------------------------------------------------------
 # B3LYP/6-31G* guess=read geom=check nosymm integral(ultrafinegrid)
 -------------------------------------------------------------------

 ------------------------------------------------------
 Candidate Structure: Conf:474 Charge calc in gas phase
 ------------------------------------------------------
 Structure from the checkpoint file:  "conf-474.chk"
 Charge =  1 Multiplicity = 1

                          Input orientation:
 ---------------------------------------------------------------------
 Center     Atomic      Atomic             Coordinates (Angstroms)
 Number     Number       Type             X           Y           Z
 ---------------------------------------------------------------------
      1          7           0       -0.946261   -2.308250    2.360080
      2          1           0       -1.067168   -2.937169    1.567072
      3          1           0        0.654337   -1.338597    1.713468
      4          1           0       -0.949745   -2.876742    3.206276
      5          6           0       -2.111849   -1.396751    2.359983
      6          1           0       -3.058702   -1.963316    2.382448
      7          6           0       -2.077398   -0.724058    0.978373
      8          6           0       -2.125193   -0.488053    3.597703
      9          1           0       -3.043976    0.108038    3.565906
     10          1           0       -2.229574   -1.136813    4.475179
     11          8           0       -1.830271   -1.449289   -0.002078
     12          6           0       -0.901657    0.443588    3.799075
     13          1           0       -0.216843    0.380707    2.943274
     14          1           0       -0.314340    0.168329    4.677491
     15          6           0       -1.315783    1.891937    3.909579
     16          8           0       -2.192312    2.413433    3.235259
     17          8           0       -0.604289    2.581215    4.813627
     18          7           0       -2.291809    0.598224    0.866832
     19          1           0       -2.432079    1.178073    1.694936
     20          6           0       -2.196482    1.313193   -0.415838
     21          1           0       -2.607358    0.645471   -1.181279
     22          6           0       -0.703934    1.568922   -0.740889
     23          6           0       -2.991611    2.630070   -0.362874
     24          1           0       -2.859853    3.126297   -1.331627
     25          1           0       -2.522261    3.289687    0.374501
     26          8           0       -0.212353    2.695277   -0.828230
     27          6           0       -4.446731    2.445399   -0.048122
     28          6           0       -5.066455    2.763208    1.135738
     29          1           0       -4.643636    3.191548    2.034781
     30          6           0       -5.468235    1.900430   -0.910422
     31          6           0       -6.688014    1.917955   -0.178850
     32          6           0       -5.479139    1.412320   -2.229424
     33          1           0       -4.566809    1.395148   -2.821253
     34          7           0       -6.408107    2.442121    1.067498
     35          1           0       -7.087772    2.626938    1.788791
     36          6           0       -7.870029    0.986581   -2.027947
     37          1           0       -8.790113    0.628835   -2.481245
     38          6           0       -7.894290    1.465670   -0.723451
     39          1           0       -8.817639    1.489519   -0.150662
     40          6           0       -6.674238    0.961049   -2.774699
     41          1           0       -6.693002    0.584774   -3.793758
     42          7           0        0.029510    0.432135   -0.897068
     43          1           0       -0.474406   -0.444054   -0.748601
     44          6           0        1.474157    0.444692   -0.673237
     45          1           0        1.706833    1.350993   -0.101693
     46          6           0        2.164736    0.567168   -2.040158
     47          6           0        1.877026   -0.756866    0.208536
     48          1           0        1.540654   -1.682291   -0.282945
     49          8           0        2.761577   -0.368619   -2.603663
     50          6           0        3.383353   -0.829597    0.460955
     51          1           0        3.942738   -0.968838   -0.467954
     52          1           0        3.597739   -1.664280    1.135658
     53          1           0        3.727018    0.088147    0.951356
     54          8           0        1.199876   -0.565982    1.444778
     55          7           0        2.025665    1.786357   -2.598319
     56          1           0        1.458621    2.479543   -2.105325
     57          6           0        2.574899    2.076442   -3.916083
     58          1           0        3.648112    1.840604   -3.868534
     59          6           0        2.521293    3.564728   -4.252737
     60          6           0        1.937778    1.209849   -5.040873
     61          1           0        1.414844    1.848041   -5.757187
     62          1           0        1.188259    0.570535   -4.566503
     63          8           0        2.643398    3.989340   -5.377772
     64          6           0        2.980048    0.332054   -5.755323
     65          1           0        3.454251    0.885851   -6.573615
     66          1           0        3.774286    0.085251   -5.042585
     67          6           0        2.381078   -0.990279   -6.267173
     68          1           0        1.615681   -1.356791   -5.575811
     69          1           0        1.903348   -0.878303   -7.243824
     70          7           0        3.378910   -2.064908   -6.408957
     71          1           0        3.864855   -2.147264   -7.292375
     72          7           0        3.485262   -2.581124   -4.135997
     73          1           0        3.670813   -3.281155   -3.430647
     74          1           0        3.177048   -1.668755   -3.773879
     75          7           0        4.587576   -3.901865   -5.688820
     76          1           0        4.627084   -4.287182   -6.621204
     77          1           0        5.123960   -4.366144   -4.970452
     78          6           0        3.817799   -2.830870   -5.402669
     79          8           0        2.368561    4.343082   -3.164548
     80          1           0        2.356772    5.270551   -3.470846
     81          1           0       -0.912203    3.507776    4.777923
 ---------------------------------------------------------------------

 SCF Done:  E(RB3LYP) =  -2053.96417605     A.U. after    1 cycles

 Alpha  occ. eigenvalues --  -19.28712 -19.27576 -19.22749 -19.22305 -19.22239
 Alpha  occ. eigenvalues --  -19.20077 -19.19715 -19.19303 -14.52280 -14.52260
 Alpha  occ. eigenvalues --  -14.50769 -14.45108 -14.43547 -14.42755 -14.42527
 Alpha  occ. eigenvalues --  -14.41049 -10.48304 -10.41243 -10.40235 -10.38529
 Alpha  occ. eigenvalues --  -10.36454 -10.36066 -10.35527 -10.33732 -10.31741
 Alpha  occ. eigenvalues --  -10.30862 -10.30820 -10.30412 -10.29807 -10.28814
 Alpha  occ. eigenvalues --  -10.27380 -10.27137 -10.26677 -10.26529 -10.25123
 Alpha  occ. eigenvalues --  -10.24430 -10.23456 -10.23291 -10.23166 -10.23057
 Alpha  occ. eigenvalues --  -10.22933 -10.22614  -1.19616  -1.18625  -1.16635
 Alpha  occ. eigenvalues --   -1.13370  -1.11620  -1.10722  -1.10603  -1.09424
 Alpha  occ. eigenvalues --   -1.07769  -1.06102  -1.04418  -1.02591  -1.02099
 Alpha  occ. eigenvalues --   -1.00095  -0.99063  -0.97409  -0.91101  -0.88402
 Alpha  occ. eigenvalues --   -0.87283  -0.86681  -0.85767  -0.84489  -0.81816
 Alpha  occ. eigenvalues --   -0.81267  -0.79138  -0.78260  -0.77990  -0.77531
 Alpha  occ. eigenvalues --   -0.76303  -0.74001  -0.72971  -0.72819  -0.71242
 Alpha  occ. eigenvalues --   -0.70590  -0.70010  -0.68346  -0.67099  -0.66835
 Alpha  occ. eigenvalues --   -0.66566  -0.65895  -0.65435  -0.64695  -0.64512
 Alpha  occ. eigenvalues --   -0.63824  -0.62484  -0.61446  -0.60547  -0.60114
 Alpha  occ. eigenvalues --   -0.59347  -0.59167  -0.58661  -0.58439  -0.57671
 Alpha  occ. eigenvalues --   -0.57376  -0.57064  -0.56736  -0.55959  -0.55827
 Alpha  occ. eigenvalues --   -0.55521  -0.54805  -0.54542  -0.53685  -0.53513
 Alpha  occ. eigenvalues --   -0.53024  -0.52764  -0.52106  -0.51567  -0.51307
 Alpha  occ. eigenvalues --   -0.50924  -0.50188  -0.49807  -0.49125  -0.48802
 Alpha  occ. eigenvalues --   -0.48563  -0.47961  -0.47715  -0.47637  -0.47163
 Alpha  occ. eigenvalues --   -0.46880  -0.46517  -0.46257  -0.46086  -0.45866
 Alpha  occ. eigenvalues --   -0.45576  -0.45268  -0.44822  -0.44664  -0.44012
 Alpha  occ. eigenvalues --   -0.43901  -0.43696  -0.43225  -0.43157  -0.42884
 Alpha  occ. eigenvalues --   -0.42469  -0.42141  -0.40694  -0.40455  -0.39841
 Alpha  occ. eigenvalues --   -0.39567  -0.39034  -0.37929  -0.37852  -0.37009
 Alpha  occ. eigenvalues --   -0.36600  -0.36175  -0.35333  -0.35169  -0.34593
 Alpha  occ. eigenvalues --   -0.33544  -0.32915  -0.32375  -0.32168  -0.31416
 Alpha  occ. eigenvalues --   -0.26829  -0.25015
 Alpha virt. eigenvalues --   -0.12469  -0.08600  -0.08422  -0.07562  -0.07193
 Alpha virt. eigenvalues --   -0.06656  -0.05638  -0.04620  -0.04509  -0.03670
 Alpha virt. eigenvalues --   -0.01993  -0.01295  -0.00719  -0.00241   0.00088

 Mulliken charges:
               1
     1  N   -0.751980
     2  H    0.336244
     3  H    0.441269
     4  H    0.317870
     5  C   -0.068478
     6  H    0.168271
     7  C    0.643929
     8  C   -0.312401
     9  H    0.179750
    10  H    0.161572
    11  O   -0.580104
    12  C   -0.385206
    13  H    0.239177
    14  H    0.185852
    15  C    0.587695
    16  O   -0.482659
    17  O   -0.542219
    18  N   -0.632400
    19  H    0.399557
    20  C   -0.069467
    21  H    0.192603
    22  C    0.629094
    23  C   -0.388268
    24  H    0.167659
    25  H    0.176316
    26  O   -0.537604
    27  C    0.068628
    28  C   -0.009788
    29  H    0.168666
    30  C    0.085856
    31  C    0.311659
    32  C   -0.210653
    33  H    0.111693
    34  N   -0.690378
    35  H    0.331897
    36  C   -0.150910
    37  H    0.131597
    38  C   -0.161161
    39  H    0.129739
    40  C   -0.138453
    41  H    0.122765
    42  N   -0.630501
    43  H    0.386726
    44  C   -0.070171
    45  H    0.189415
    46  C    0.655613
    47  C    0.123118
    48  H    0.118455
    49  O   -0.600126
    50  C   -0.458278
    51  H    0.144510
    52  H    0.154068
    53  H    0.160607
    54  O   -0.668429
    55  N   -0.626001
    56  H    0.396644
    57  C   -0.014931
    58  H    0.198093
    59  C    0.571172
    60  C   -0.282192
    61  H    0.190810
    62  H    0.165385
    63  O   -0.447460
    64  C   -0.287304
    65  H    0.177964
    66  H    0.156313
    67  C   -0.176387
    68  H    0.192536
    69  H    0.195905
    70  N   -0.593783
    71  H    0.363523
    72  N   -0.790075
    73  H    0.369702
    74  H    0.454559
    75  N   -0.768860
    76  H    0.380533
    77  H    0.380987
    78  C    0.814936
    79  O   -0.557363
    80  H    0.431498
    81  H    0.421562
 Sum of Mulliken charges =   1.00000

 Dipole moment (field-independent basis, Debye):
    X=             10.2920    Y=             -9.1181    Z=            -13.7979  Tot=             19.4794
 Quadrupole moment (field-independent basis, Debye-Ang):
   XX=           -156.4014   YY=           -181.3641   ZZ=            -93.4030
   XY=            -49.7387   XZ=           -101.8078   YZ=             62.5705

 Normal termination of Gaussian 16 at Thu May 26 18:13:41 2022.
