 Gaussian 16, Revision C.01,
 Gaussian 16:  ES64L-G16RevC.01  3-Jul-2019

 -------------------------------------------------------------------
 # B3LYP/6-31G* guess=read geom=check nosymm integral(ultrafinegrid)
 -------------------------------------------------------------------

 ------------------------------------------------------
 Candidate Structure: Conf:879 Charge calc in gas phase
 ------------------------------------------------------
 Structure from the checkpoint file:  "conf-879.chk"
 Charge =  1 Multiplicity = 1

                          Input orientation:
 ---------------------------------------------------------------------
 Center     Atomic      Atomic             Coordinates (Angstroms)
 Number     Number       Type             X           Y           Z
 ---------------------------------------------------------------------
      1          7           0       -5.779150    1.606218    3.442276
      2          1           0       -6.442430    2.358037    3.238050
      3          1           0       -5.963606    0.774554    2.784044
      4          1           0       -5.892036    1.330148    4.421578
      5          6           0       -4.346273    1.941352    3.071797
      6          1           0       -4.314220    2.991346    2.769130
      7          6           0       -4.102553    1.007404    1.846266
      8          6           0       -3.385896    1.672224    4.237500
      9          1           0       -3.494096    0.625211    4.552320
     10          1           0       -2.361207    1.770154    3.866182
     11          8           0       -4.985306    0.174710    1.590352
     12          6           0       -3.581080    2.624780    5.431378
     13          1           0       -4.590429    2.573881    5.852504
     14          1           0       -3.403838    3.659199    5.109761
     15          6           0       -2.631572    2.316118    6.581466
     16          8           0       -2.975483    2.099388    7.716742
     17          8           0       -1.347974    2.318490    6.160328
     18          7           0       -2.964451    1.181652    1.189296
     19          1           0       -2.210957    1.757224    1.570830
     20          6           0       -2.481210    0.318741    0.113526
     21          1           0       -2.998183   -0.641874    0.186872
     22          6           0       -0.966976    0.174484    0.389202
     23          6           0       -2.714035    0.945575   -1.293929
     24          1           0       -2.339519    0.219251   -2.028126
     25          1           0       -2.073813    1.832476   -1.379361
     26          8           0       -0.412870    0.970400    1.151171
     27          6           0       -4.132916    1.312532   -1.604066
     28          6           0       -4.617877    2.590917   -1.741040
     29          1           0       -4.095058    3.535472   -1.666053
     30          6           0       -5.243390    0.422946   -1.857001
     31          6           0       -6.373043    1.237364   -2.139104
     32          6           0       -5.393214   -0.975012   -1.888623
     33          1           0       -4.550580   -1.631141   -1.684589
     34          7           0       -5.965077    2.556154   -2.039489
     35          1           0       -6.512956    3.353862   -2.324595
     36          6           0       -7.740551   -0.684797   -2.475331
     37          1           0       -8.697763   -1.136182   -2.719411
     38          6           0       -7.626539    0.700002   -2.449555
     39          1           0       -8.477379    1.338657   -2.671507
     40          6           0       -6.634780   -1.514454   -2.197475
     41          1           0       -6.758844   -2.592914   -2.230542
     42          7           0       -0.332852   -0.797195   -0.298094
     43          1           0       -0.853947   -1.529629   -0.779661
     44          6           0        1.063366   -1.166657   -0.086861
     45          1           0        1.421658   -0.672196    0.819963
     46          6           0        1.999725   -0.741323   -1.229397
     47          6           0        1.111332   -2.722333    0.070247
     48          1           0        2.160462   -3.019384   -0.037010
     49          8           0        3.183371   -1.078916   -1.190686
     50          6           0        0.592293   -3.174388    1.431757
     51          1           0        1.194349   -2.756176    2.246178
     52          1           0        0.632434   -4.265598    1.488893
     53          1           0       -0.451182   -2.870648    1.576404
     54          8           0        0.305307   -3.301842   -0.939952
     55          7           0        1.450867   -0.034610   -2.246989
     56          1           0        0.502335    0.299975   -2.148973
     57          6           0        2.174643    0.319056   -3.455633
     58          1           0        3.202573   -0.019143   -3.312485
     59          6           0        2.147483    1.832803   -3.627923
     60          6           0        1.529745   -0.359399   -4.704108
     61          1           0        0.682069    0.254467   -5.035394
     62          1           0        1.107282   -1.304370   -4.352564
     63          8           0        1.275642    2.555397   -3.197297
     64          6           0        2.455755   -0.629956   -5.902999
     65          1           0        1.820045   -0.920309   -6.750937
     66          1           0        2.969975    0.289151   -6.211020
     67          6           0        3.516345   -1.731802   -5.691240
     68          1           0        4.052235   -1.889490   -6.633996
     69          1           0        4.262930   -1.403443   -4.963770
     70          7           0        2.981837   -3.025649   -5.235688
     71          1           0        2.207375   -3.356069   -5.801659
     72          7           0        3.910656   -3.121618   -3.103984
     73          1           0        3.792443   -2.745279   -2.170168
     74          1           0        4.778468   -2.896122   -3.564472
     75          7           0        1.675185   -3.672513   -3.332312
     76          1           0        0.922259   -3.662341   -4.020402
     77          1           0        0.871743   -3.512988   -1.736760
     78          6           0        2.790466   -3.275445   -3.870939
     79          8           0        3.178482    2.269277   -4.380185
     80          1           0        3.063794    3.232994   -4.492715
     81          1           0       -0.785920    2.124752    6.935626
 ---------------------------------------------------------------------

 SCF Done:  E(RB3LYP) =  -2053.92247227     A.U. after    1 cycles

 Alpha  occ. eigenvalues --  -19.30139 -19.27818 -19.27366 -19.24459 -19.22329
 Alpha  occ. eigenvalues --  -19.22018 -19.19203 -19.18990 -14.60257 -14.49719
 Alpha  occ. eigenvalues --  -14.46110 -14.45788 -14.44152 -14.41639 -14.40088
 Alpha  occ. eigenvalues --  -14.36070 -10.44032 -10.43032 -10.41601 -10.40018
 Alpha  occ. eigenvalues --  -10.39363 -10.36698 -10.35364 -10.35203 -10.34823
 Alpha  occ. eigenvalues --  -10.33593 -10.31802 -10.30802 -10.30555 -10.30388
 Alpha  occ. eigenvalues --  -10.29783 -10.29645 -10.29480 -10.27215 -10.26851
 Alpha  occ. eigenvalues --  -10.26452 -10.26333 -10.26246 -10.26120 -10.25725
 Alpha  occ. eigenvalues --  -10.25324 -10.23978  -1.21005  -1.19849  -1.18605
 Alpha  occ. eigenvalues --   -1.14460  -1.13905  -1.12204  -1.11293  -1.09645
 Alpha  occ. eigenvalues --   -1.07019  -1.06487  -1.05914  -1.04240  -1.02231
 Alpha  occ. eigenvalues --   -1.00357  -0.95622  -0.94964  -0.91507  -0.91171
 Alpha  occ. eigenvalues --   -0.90569  -0.88024  -0.87600  -0.85781  -0.83634
 Alpha  occ. eigenvalues --   -0.81671  -0.81053  -0.80249  -0.79137  -0.78010
 Alpha  occ. eigenvalues --   -0.76557  -0.75189  -0.74584  -0.73246  -0.72250
 Alpha  occ. eigenvalues --   -0.71535  -0.70546  -0.69868  -0.69114  -0.67609
 Alpha  occ. eigenvalues --   -0.67279  -0.66978  -0.66865  -0.66172  -0.65332
 Alpha  occ. eigenvalues --   -0.64503  -0.63791  -0.61826  -0.61692  -0.61416
 Alpha  occ. eigenvalues --   -0.60292  -0.59987  -0.59216  -0.58801  -0.58180
 Alpha  occ. eigenvalues --   -0.57937  -0.57602  -0.57000  -0.56343  -0.56107
 Alpha  occ. eigenvalues --   -0.55816  -0.55699  -0.55205  -0.54820  -0.54490
 Alpha  occ. eigenvalues --   -0.53820  -0.53488  -0.53148  -0.52990  -0.52580
 Alpha  occ. eigenvalues --   -0.51554  -0.51361  -0.51011  -0.50866  -0.50851
 Alpha  occ. eigenvalues --   -0.50660  -0.50232  -0.49957  -0.49769  -0.49584
 Alpha  occ. eigenvalues --   -0.49182  -0.48775  -0.48405  -0.48033  -0.47652
 Alpha  occ. eigenvalues --   -0.46911  -0.46701  -0.45725  -0.45359  -0.45133
 Alpha  occ. eigenvalues --   -0.44382  -0.44119  -0.43181  -0.42935  -0.42819
 Alpha  occ. eigenvalues --   -0.42344  -0.42105  -0.41937  -0.41409  -0.41077
 Alpha  occ. eigenvalues --   -0.40804  -0.39733  -0.39667  -0.39068  -0.37943
 Alpha  occ. eigenvalues --   -0.37240  -0.36659  -0.35730  -0.34962  -0.34921
 Alpha  occ. eigenvalues --   -0.33666  -0.33093  -0.31956  -0.31184  -0.29911
 Alpha  occ. eigenvalues --   -0.29128  -0.28335
 Alpha virt. eigenvalues --   -0.12882  -0.11739  -0.09569  -0.08917  -0.07955
 Alpha virt. eigenvalues --   -0.07027  -0.07000  -0.05503  -0.04955  -0.04719
 Alpha virt. eigenvalues --   -0.03243  -0.02562  -0.02477  -0.01503  -0.01411

 Mulliken charges:
               1
     1  N   -0.762750
     2  H    0.416417
     3  H    0.440888
     4  H    0.414390
     5  C   -0.107634
     6  H    0.217381
     7  C    0.656588
     8  C   -0.319597
     9  H    0.189006
    10  H    0.230219
    11  O   -0.530196
    12  C   -0.360166
    13  H    0.166617
    14  H    0.198679
    15  C    0.579574
    16  O   -0.423826
    17  O   -0.554916
    18  N   -0.588404
    19  H    0.371618
    20  C   -0.083949
    21  H    0.200996
    22  C    0.628441
    23  C   -0.371909
    24  H    0.166226
    25  H    0.173168
    26  O   -0.533300
    27  C    0.075698
    28  C   -0.017977
    29  H    0.156385
    30  C    0.098610
    31  C    0.300194
    32  C   -0.205359
    33  H    0.119202
    34  N   -0.688695
    35  H    0.336979
    36  C   -0.150738
    37  H    0.141981
    38  C   -0.165222
    39  H    0.135144
    40  C   -0.139314
    41  H    0.138235
    42  N   -0.637331
    43  H    0.360684
    44  C   -0.054364
    45  H    0.201806
    46  C    0.629687
    47  C    0.100651
    48  H    0.162858
    49  O   -0.548225
    50  C   -0.441152
    51  H    0.146700
    52  H    0.175681
    53  H    0.129259
    54  O   -0.690353
    55  N   -0.596686
    56  H    0.345572
    57  C   -0.044694
    58  H    0.203057
    59  C    0.592506
    60  C   -0.292901
    61  H    0.153419
    62  H    0.161948
    63  O   -0.468869
    64  C   -0.279884
    65  H    0.146467
    66  H    0.165991
    67  C   -0.158115
    68  H    0.170568
    69  H    0.154530
    70  N   -0.581275
    71  H    0.315610
    72  N   -0.742897
    73  H    0.381683
    74  H    0.338496
    75  N   -0.696720
    76  H    0.276887
    77  H    0.453720
    78  C    0.618509
    79  O   -0.556839
    80  H    0.421575
    81  H    0.433757
 Sum of Mulliken charges =   1.00000

 Dipole moment (field-independent basis, Debye):
    X=            -17.5857    Y=              9.9423    Z=              3.4436  Tot=             20.4930
 Quadrupole moment (field-independent basis, Debye-Ang):
   XX=           -108.1380   YY=           -217.6472   ZZ=           -152.6513
   XY=            -47.9995   XZ=            -64.8589   YZ=             20.2559

 Normal termination of Gaussian 16 at Thu May 26 18:13:16 2022.
