 Gaussian 16, Revision C.01,
 Gaussian 16:  ES64L-G16RevC.01  3-Jul-2019

 -------------------------------------------------------------------
 # B3LYP/6-31G* guess=read geom=check nosymm integral(ultrafinegrid)
 -------------------------------------------------------------------

 ------------------------------------------------------
 Candidate Structure: Conf:578 Charge calc in gas phase
 ------------------------------------------------------
 Structure from the checkpoint file:  "conf-578.chk"
 Charge =  1 Multiplicity = 1

                          Input orientation:
 ---------------------------------------------------------------------
 Center     Atomic      Atomic             Coordinates (Angstroms)
 Number     Number       Type             X           Y           Z
 ---------------------------------------------------------------------
      1          7           0       -4.983983    1.332457    3.564478
      2          1           0       -5.467441    0.693250    2.882359
      3          1           0       -4.568512    0.737442    4.287114
      4          1           0       -5.570952    2.059651    4.009474
      5          6           0       -3.943783    1.998484    2.700582
      6          1           0       -4.469589    2.837188    2.232227
      7          6           0       -3.690056    0.954110    1.578830
      8          6           0       -2.735401    2.502975    3.495600
      9          1           0       -2.066991    1.669497    3.741004
     10          1           0       -2.169018    3.165104    2.832887
     11          8           0       -4.566574    0.085811    1.435142
     12          6           0       -3.058419    3.260029    4.812358
     13          1           0       -2.162060    3.780823    5.155106
     14          1           0       -3.331791    2.544533    5.597863
     15          6           0       -4.215657    4.235521    4.708547
     16          8           0       -5.374940    3.902138    4.502982
     17          8           0       -3.850428    5.508331    4.870253
     18          7           0       -2.601115    1.123459    0.847241
     19          1           0       -1.821748    1.744997    1.101324
     20          6           0       -2.183899    0.295481   -0.285239
     21          1           0       -2.574152   -0.715036   -0.156791
     22          6           0       -0.635039    0.318074   -0.235303
     23          6           0       -2.676106    0.887394   -1.634534
     24          1           0       -2.342713    0.190083   -2.410800
     25          1           0       -2.133066    1.828770   -1.797017
     26          8           0       -0.119492    1.354972    0.305634
     27          6           0       -4.155185    1.126451   -1.727229
     28          6           0       -5.098949    0.258780   -2.219156
     29          1           0       -4.968750   -0.722177   -2.656149
     30          6           0       -4.880749    2.285724   -1.264054
     31          6           0       -6.264361    2.043711   -1.499834
     32          6           0       -4.504359    3.510061   -0.679741
     33          1           0       -3.454032    3.736182   -0.510377
     34          7           0       -6.362333    0.800249   -2.083785
     35          1           0       -7.218058    0.359572   -2.384231
     36          6           0       -6.852434    4.164612   -0.575642
     37          1           0       -7.598899    4.906509   -0.306468
     38          6           0       -7.256552    2.970676   -1.161744
     39          1           0       -8.307093    2.767629   -1.352526
     40          6           0       -5.487391    4.434093   -0.339326
     41          1           0       -5.202914    5.389235    0.095365
     42          7           0       -0.068732   -0.716356   -0.790094
     43          1           0        0.107286   -2.664474   -1.188945
     44          6           0        1.382926   -0.766399   -0.779231
     45          1           0        1.756327   -1.010307    0.230009
     46          6           0        2.048786    0.517535   -1.252950
     47          6           0        1.771822   -1.942107   -1.729529
     48          1           0        1.537598   -1.606903   -2.754308
     49          8           0        1.730153    1.076717   -2.316998
     50          6           0        3.237083   -2.350927   -1.646973
     51          1           0        3.903150   -1.540782   -1.965870
     52          1           0        3.415588   -3.215471   -2.293746
     53          1           0        3.498690   -2.639696   -0.622486
     54          8           0        0.984885   -3.060627   -1.378531
     55          7           0        3.077710    0.992092   -0.507879
     56          1           0        3.371488    0.492916    0.322249
     57          6           0        3.864506    2.145959   -0.891976
     58          1           0        3.827475    2.224083   -1.981127
     59          6           0        5.306052    1.904342   -0.463333
     60          6           0        3.359184    3.468708   -0.246746
     61          1           0        4.049802    4.280018   -0.514778
     62          1           0        3.439086    3.344328    0.839534
     63          8           0        5.656194    1.088568    0.358067
     64          6           0        1.905784    3.839321   -0.592397
     65          1           0        1.277643    2.945218   -0.625039
     66          1           0        1.502315    4.445321    0.229813
     67          6           0        1.706610    4.714350   -1.839306
     68          1           0        0.638575    4.799731   -2.058942
     69          1           0        2.084075    5.725076   -1.646972
     70          7           0        2.367075    4.301167   -3.099353
     71          1           0        3.300101    4.656400   -3.263148
     72          7           0        0.702531    2.906318   -3.911218
     73          1           0        0.210548    2.558807   -4.725169
     74          1           0        0.785058    2.232930   -3.123879
     75          7           0        2.270324    3.841568   -5.368201
     76          1           0        2.898001    4.601424   -5.590064
     77          1           0        2.092041    3.160158   -6.092563
     78          6           0        1.783053    3.666176   -4.122480
     79          8           0        6.155493    2.753121   -1.084622
     80          1           0        7.047286    2.566381   -0.732278
     81          1           0       -4.653810    6.062854    4.806422
 ---------------------------------------------------------------------

 SCF Done:  E(RB3LYP) =  -2053.90506826     A.U. after    1 cycles

 Alpha  occ. eigenvalues --  -19.32007 -19.28142 -19.26860 -19.22433 -19.21564
 Alpha  occ. eigenvalues --  -19.18555 -19.15405 -19.13792 -14.55581 -14.50716
 Alpha  occ. eigenvalues --  -14.50300 -14.47555 -14.44108 -14.44033 -14.43017
 Alpha  occ. eigenvalues --  -14.32396 -10.45911 -10.45015 -10.40371 -10.38771
 Alpha  occ. eigenvalues --  -10.36909 -10.35289 -10.33567 -10.33079 -10.32942
 Alpha  occ. eigenvalues --  -10.32008 -10.29246 -10.28165 -10.28016 -10.27946
 Alpha  occ. eigenvalues --  -10.27818 -10.27007 -10.26519 -10.25541 -10.25354
 Alpha  occ. eigenvalues --  -10.25339 -10.25137 -10.24927 -10.24874 -10.24702
 Alpha  occ. eigenvalues --  -10.24111 -10.21045  -1.23203  -1.18964  -1.14498
 Alpha  occ. eigenvalues --   -1.14399  -1.13887  -1.10397  -1.09891  -1.09542
 Alpha  occ. eigenvalues --   -1.04471  -1.03980  -1.03932  -1.03629  -1.02074
 Alpha  occ. eigenvalues --   -1.00199  -0.99637  -0.92965  -0.90912  -0.90208
 Alpha  occ. eigenvalues --   -0.88847  -0.86850  -0.85483  -0.84750  -0.81768
 Alpha  occ. eigenvalues --   -0.79979  -0.79664  -0.78762  -0.78238  -0.77441
 Alpha  occ. eigenvalues --   -0.75669  -0.74000  -0.72449  -0.72124  -0.71634
 Alpha  occ. eigenvalues --   -0.70811  -0.70503  -0.69158  -0.68608  -0.68301
 Alpha  occ. eigenvalues --   -0.67564  -0.66093  -0.65816  -0.65295  -0.63053
 Alpha  occ. eigenvalues --   -0.62945  -0.62537  -0.62452  -0.61891  -0.61414
 Alpha  occ. eigenvalues --   -0.60533  -0.59942  -0.59328  -0.59128  -0.58315
 Alpha  occ. eigenvalues --   -0.57449  -0.57245  -0.55917  -0.55624  -0.55170
 Alpha  occ. eigenvalues --   -0.55048  -0.54908  -0.54606  -0.54098  -0.53625
 Alpha  occ. eigenvalues --   -0.53271  -0.53077  -0.52632  -0.52128  -0.51409
 Alpha  occ. eigenvalues --   -0.50967  -0.50493  -0.49943  -0.49718  -0.49464
 Alpha  occ. eigenvalues --   -0.49404  -0.48701  -0.48632  -0.48237  -0.47751
 Alpha  occ. eigenvalues --   -0.47696  -0.47541  -0.46670  -0.45908  -0.45540
 Alpha  occ. eigenvalues --   -0.45193  -0.44899  -0.44684  -0.44049  -0.43990
 Alpha  occ. eigenvalues --   -0.43253  -0.42773  -0.42434  -0.41749  -0.41336
 Alpha  occ. eigenvalues --   -0.41040  -0.40861  -0.40591  -0.40152  -0.39871
 Alpha  occ. eigenvalues --   -0.39667  -0.39412  -0.38536  -0.37983  -0.36288
 Alpha  occ. eigenvalues --   -0.36166  -0.35238  -0.34544  -0.33527  -0.32974
 Alpha  occ. eigenvalues --   -0.32731  -0.30066  -0.28620  -0.28321  -0.27216
 Alpha  occ. eigenvalues --   -0.26247  -0.25408
 Alpha virt. eigenvalues --   -0.12165  -0.11464  -0.08224  -0.07545  -0.07502
 Alpha virt. eigenvalues --   -0.06803  -0.06197  -0.04380  -0.03889  -0.02955
 Alpha virt. eigenvalues --   -0.02885  -0.01594  -0.01317  -0.00617  -0.00199

 Mulliken charges:
               1
     1  N   -0.759026
     2  H    0.424621
     3  H    0.393962
     4  H    0.429186
     5  C   -0.127005
     6  H    0.236148
     7  C    0.677245
     8  C   -0.315507
     9  H    0.196977
    10  H    0.202717
    11  O   -0.559635
    12  C   -0.374016
    13  H    0.214404
    14  H    0.184578
    15  C    0.606076
    16  O   -0.487159
    17  O   -0.529851
    18  N   -0.615506
    19  H    0.356731
    20  C   -0.025190
    21  H    0.173162
    22  C    0.538057
    23  C   -0.354401
    24  H    0.167509
    25  H    0.132498
    26  O   -0.661816
    27  C    0.080196
    28  C    0.011834
    29  H    0.162505
    30  C    0.076558
    31  C    0.318132
    32  C   -0.236845
    33  H    0.113326
    34  N   -0.688633
    35  H    0.335284
    36  C   -0.157191
    37  H    0.131844
    38  C   -0.163189
    39  H    0.134844
    40  C   -0.153079
    41  H    0.114550
    42  N   -0.571569
    43  H    0.400111
    44  C   -0.046742
    45  H    0.120309
    46  C    0.683163
    47  C    0.168561
    48  H    0.107328
    49  O   -0.629462
    50  C   -0.460578
    51  H    0.125227
    52  H    0.164346
    53  H    0.149721
    54  O   -0.650173
    55  N   -0.594085
    56  H    0.354680
    57  C   -0.036078
    58  H    0.173639
    59  C    0.584329
    60  C   -0.277977
    61  H    0.142608
    62  H    0.166003
    63  O   -0.449596
    64  C   -0.293891
    65  H    0.238527
    66  H    0.148151
    67  C   -0.163689
    68  H    0.191403
    69  H    0.169662
    70  N   -0.576916
    71  H    0.355532
    72  N   -0.736292
    73  H    0.357721
    74  H    0.438621
    75  N   -0.752680
    76  H    0.372554
    77  H    0.379720
    78  C    0.759116
    79  O   -0.575480
    80  H    0.424773
    81  H    0.434508
 Sum of Mulliken charges =   1.00000

 Dipole moment (field-independent basis, Debye):
    X=             -5.9223    Y=             22.1548    Z=             -0.7368  Tot=             22.9445
 Quadrupole moment (field-independent basis, Debye-Ang):
   XX=           -124.6004   YY=           -167.1040   ZZ=           -111.6351
   XY=             17.0468   XZ=            -75.0206   YZ=            -17.9490

 Normal termination of Gaussian 16 at Thu May 26 18:13:26 2022.
