 Gaussian 16, Revision C.01,
 Gaussian 16:  ES64L-G16RevC.01  3-Jul-2019

 -------------------------------------------------------------------
 # B3LYP/6-31G* guess=read geom=check nosymm integral(ultrafinegrid)
 -------------------------------------------------------------------

 ------------------------------------------------------
 Candidate Structure: Conf:746 Charge calc in gas phase
 ------------------------------------------------------
 Structure from the checkpoint file:  "conf-746.chk"
 Charge =  1 Multiplicity = 1

                          Input orientation:
 ---------------------------------------------------------------------
 Center     Atomic      Atomic             Coordinates (Angstroms)
 Number     Number       Type             X           Y           Z
 ---------------------------------------------------------------------
      1          7           0       -1.864600   -0.564044    3.520139
      2          1           0        0.005879   -0.019960    2.914626
      3          1           0       -1.830978    0.222508    4.170816
      4          1           0       -1.854401   -1.418914    4.075840
      5          6           0       -3.118286   -0.468032    2.745930
      6          1           0       -3.120880   -1.299019    2.034405
      7          6           0       -2.984491    0.862567    1.989436
      8          6           0       -4.404409   -0.511680    3.591371
      9          1           0       -4.438740   -1.461599    4.138982
     10          1           0       -4.365034    0.294004    4.333205
     11          8           0       -2.765095    1.903468    2.597273
     12          6           0       -5.708298   -0.334649    2.772903
     13          1           0       -5.724412    0.662370    2.321005
     14          1           0       -6.569360   -0.422289    3.439862
     15          6           0       -5.833241   -1.343219    1.651949
     16          8           0       -5.271544   -1.266744    0.569230
     17          8           0       -6.616185   -2.384526    1.977651
     18          7           0       -2.985002    0.763694    0.624518
     19          1           0       -3.424504   -0.057713    0.223092
     20          6           0       -2.618954    1.875436   -0.249458
     21          1           0       -2.703330    1.487438   -1.271386
     22          6           0       -1.124252    2.247651   -0.108796
     23          6           0       -3.536964    3.119662   -0.135720
     24          1           0       -2.923642    3.996157   -0.363402
     25          1           0       -3.837787    3.228610    0.910177
     26          8           0       -0.679078    3.273613   -0.650908
     27          6           0       -4.711004    3.090705   -1.075954
     28          6           0       -5.580527    2.057039   -1.337480
     29          1           0       -5.638433    1.069026   -0.899008
     30          6           0       -5.101648    4.173095   -1.943821
     31          6           0       -6.207186    3.722204   -2.720174
     32          6           0       -4.632209    5.488210   -2.133675
     33          1           0       -3.840336    5.890261   -1.503691
     34          7           0       -6.474397    2.430451   -2.324484
     35          1           0       -7.221366    1.852300   -2.678070
     36          6           0       -6.323945    5.816056   -3.860860
     37          1           0       -6.788996    6.470148   -4.592600
     38          6           0       -6.823711    4.530441   -3.680811
     39          1           0       -7.668645    4.172333   -4.262717
     40          6           0       -5.242164    6.293724   -3.092182
     41          1           0       -4.902602    7.316710   -3.230338
     42          7           0       -0.351720    1.384861    0.558177
     43          1           0       -0.800466    0.567030    0.943632
     44          6           0        1.080412    1.527574    0.754600
     45          1           0        1.278637    2.481052    1.257782
     46          6           0        1.785664    1.479466   -0.611358
     47          6           0        1.548142    0.372706    1.700759
     48          1           0        1.324666   -0.574049    1.182029
     49          8           0        1.402213    0.734341   -1.506154
     50          6           0        3.040412    0.439939    2.008864
     51          1           0        3.659750    0.360853    1.110936
     52          1           0        3.299088   -0.381201    2.682344
     53          1           0        3.281604    1.378018    2.521528
     54          8           0        0.861480    0.459429    2.932476
     55          7           0        2.857870    2.320405   -0.752468
     56          1           0        3.249288    2.758704    0.075159
     57          6           0        3.784001    2.170634   -1.866538
     58          1           0        3.615932    1.180148   -2.303184
     59          6           0        5.202822    2.228592   -1.308327
     60          6           0        3.602944    3.225520   -2.988918
     61          1           0        4.284916    2.954638   -3.800213
     62          1           0        3.931810    4.208287   -2.623313
     63          8           0        5.476438    2.527611   -0.166157
     64          6           0        2.152479    3.310526   -3.515588
     65          1           0        2.173088    3.458949   -4.603959
     66          1           0        1.633992    2.363175   -3.338348
     67          6           0        1.366833    4.447626   -2.837611
     68          1           0        1.479270    4.373688   -1.755587
     69          1           0        1.748153    5.430442   -3.142968
     70          7           0       -0.083927    4.402509   -3.070170
     71          1           0       -0.616512    3.969558   -2.302891
     72          7           0       -0.038156    5.294524   -5.220040
     73          1           0       -0.474170    5.891558   -5.906463
     74          1           0        0.953034    5.132236   -5.304447
     75          7           0       -2.058419    4.964034   -4.151799
     76          1           0       -2.632157    4.862446   -3.320607
     77          1           0       -2.556830    5.130540   -5.013506
     78          6           0       -0.718103    4.879434   -4.130489
     79          8           0        6.119637    1.933044   -2.246747
     80          1           0        6.998274    2.005819   -1.825900
     81          1           0       -6.619864   -2.996718    1.215982
 ---------------------------------------------------------------------

 SCF Done:  E(RB3LYP) =  -2053.97051947     A.U. after    1 cycles

 Alpha  occ. eigenvalues --  -19.29075 -19.28774 -19.23739 -19.23303 -19.21665
 Alpha  occ. eigenvalues --  -19.20681 -19.20207 -19.20149 -14.50522 -14.49496
 Alpha  occ. eigenvalues --  -14.48876 -14.46003 -14.45294 -14.45198 -14.44735
 Alpha  occ. eigenvalues --  -14.42192 -10.46241 -10.41825 -10.41253 -10.38448
 Alpha  occ. eigenvalues --  -10.37541 -10.37366 -10.33480 -10.32965 -10.32948
 Alpha  occ. eigenvalues --  -10.32003 -10.31637 -10.31455 -10.30045 -10.29819
 Alpha  occ. eigenvalues --  -10.29128 -10.29054 -10.29017 -10.28627 -10.27125
 Alpha  occ. eigenvalues --  -10.27086 -10.27059 -10.26762 -10.26590 -10.26533
 Alpha  occ. eigenvalues --  -10.26352 -10.24377  -1.20086  -1.19799  -1.14619
 Alpha  occ. eigenvalues --   -1.13458  -1.12579  -1.11956  -1.10871  -1.10828
 Alpha  occ. eigenvalues --   -1.08203  -1.05888  -1.03722  -1.02903  -1.02528
 Alpha  occ. eigenvalues --   -1.01310  -1.00655  -0.98525  -0.92051  -0.90158
 Alpha  occ. eigenvalues --   -0.88965  -0.88396  -0.86595  -0.84882  -0.83903
 Alpha  occ. eigenvalues --   -0.81732  -0.80367  -0.79928  -0.79527  -0.78455
 Alpha  occ. eigenvalues --   -0.75926  -0.75386  -0.72912  -0.72474  -0.71400
 Alpha  occ. eigenvalues --   -0.70846  -0.70383  -0.68913  -0.68449  -0.67820
 Alpha  occ. eigenvalues --   -0.67501  -0.67210  -0.66952  -0.65956  -0.64002
 Alpha  occ. eigenvalues --   -0.63804  -0.62957  -0.62512  -0.61942  -0.61791
 Alpha  occ. eigenvalues --   -0.60433  -0.59808  -0.58983  -0.58743  -0.58293
 Alpha  occ. eigenvalues --   -0.57619  -0.57451  -0.57192  -0.56552  -0.56468
 Alpha  occ. eigenvalues --   -0.55819  -0.55614  -0.55275  -0.55016  -0.54758
 Alpha  occ. eigenvalues --   -0.54379  -0.53363  -0.52526  -0.52352  -0.51834
 Alpha  occ. eigenvalues --   -0.51308  -0.51225  -0.51111  -0.50853  -0.50227
 Alpha  occ. eigenvalues --   -0.49974  -0.49734  -0.49417  -0.48992  -0.48484
 Alpha  occ. eigenvalues --   -0.48119  -0.47950  -0.47669  -0.47238  -0.46858
 Alpha  occ. eigenvalues --   -0.46454  -0.45949  -0.45660  -0.45599  -0.45233
 Alpha  occ. eigenvalues --   -0.44882  -0.44707  -0.44384  -0.44359  -0.43915
 Alpha  occ. eigenvalues --   -0.43188  -0.42925  -0.41739  -0.41550  -0.41211
 Alpha  occ. eigenvalues --   -0.41160  -0.40870  -0.39340  -0.38398  -0.37513
 Alpha  occ. eigenvalues --   -0.37083  -0.37002  -0.35873  -0.35718  -0.35169
 Alpha  occ. eigenvalues --   -0.34548  -0.34163  -0.33745  -0.33373  -0.32812
 Alpha  occ. eigenvalues --   -0.30490  -0.28330
 Alpha virt. eigenvalues --   -0.10224  -0.09692  -0.09161  -0.08262  -0.07588
 Alpha virt. eigenvalues --   -0.07438  -0.06757  -0.06472  -0.05772  -0.03396
 Alpha virt. eigenvalues --   -0.02061  -0.01426  -0.00722  -0.00609  -0.00540

 Mulliken charges:
               1
     1  N   -0.750619
     2  H    0.431978
     3  H    0.344752
     4  H    0.326446
     5  C   -0.061256
     6  H    0.156881
     7  C    0.594181
     8  C   -0.289960
     9  H    0.162603
    10  H    0.181301
    11  O   -0.510399
    12  C   -0.356915
    13  H    0.189447
    14  H    0.194121
    15  C    0.584329
    16  O   -0.492320
    17  O   -0.537181
    18  N   -0.652648
    19  H    0.374682
    20  C   -0.036002
    21  H    0.181443
    22  C    0.657178
    23  C   -0.367142
    24  H    0.163723
    25  H    0.206767
    26  O   -0.589230
    27  C    0.058964
    28  C   -0.013203
    29  H    0.172566
    30  C    0.072070
    31  C    0.322178
    32  C   -0.286311
    33  H    0.143524
    34  N   -0.690482
    35  H    0.339223
    36  C   -0.158226
    37  H    0.143087
    38  C   -0.158029
    39  H    0.143713
    40  C   -0.145006
    41  H    0.135932
    42  N   -0.588468
    43  H    0.348015
    44  C   -0.019568
    45  H    0.173322
    46  C    0.620577
    47  C    0.090761
    48  H    0.136676
    49  O   -0.530199
    50  C   -0.461339
    51  H    0.149512
    52  H    0.176199
    53  H    0.163870
    54  O   -0.652871
    55  N   -0.612035
    56  H    0.356493
    57  C   -0.049209
    58  H    0.211765
    59  C    0.586449
    60  C   -0.281452
    61  H    0.182211
    62  H    0.151744
    63  O   -0.458684
    64  C   -0.292584
    65  H    0.132133
    66  H    0.206583
    67  C   -0.182244
    68  H    0.213765
    69  H    0.163681
    70  N   -0.606713
    71  H    0.402596
    72  N   -0.767196
    73  H    0.374555
    74  H    0.383176
    75  N   -0.777109
    76  H    0.392600
    77  H    0.371270
    78  C    0.812664
    79  O   -0.558053
    80  H    0.429231
    81  H    0.421715
 Sum of Mulliken charges =   1.00000

 Dipole moment (field-independent basis, Debye):
    X=             -7.9970    Y=             12.0908    Z=            -12.7066  Tot=             19.2769
 Quadrupole moment (field-independent basis, Debye-Ang):
   XX=           -134.8907   YY=           -157.5173   ZZ=           -156.1142
   XY=             11.3863   XZ=             -1.7621   YZ=            -93.6914

 Normal termination of Gaussian 16 at Thu May 26 18:13:35 2022.
