 Gaussian 16, Revision C.01,
 Gaussian 16:  ES64L-G16RevC.01  3-Jul-2019

 -------------------------------------------------------------------
 # B3LYP/6-31G* guess=read geom=check nosymm integral(ultrafinegrid)
 -------------------------------------------------------------------

 ------------------------------------------------------
 Candidate Structure: Conf:472 Charge calc in gas phase
 ------------------------------------------------------
 Structure from the checkpoint file:  "conf-472.chk"
 Charge =  1 Multiplicity = 1

                          Input orientation:
 ---------------------------------------------------------------------
 Center     Atomic      Atomic             Coordinates (Angstroms)
 Number     Number       Type             X           Y           Z
 ---------------------------------------------------------------------
      1          7           0       -5.895070    2.483158    2.845619
      2          1           0       -6.325524    2.475498    1.898131
      3          1           0       -5.824624    1.493471    3.169349
      4          1           0       -6.471332    3.042063    3.480041
      5          6           0       -4.452184    2.941761    2.776075
      6          1           0       -4.380655    3.717742    2.017416
      7          6           0       -3.735263    1.638570    2.339042
      8          6           0       -4.023163    3.492245    4.156186
      9          1           0       -4.430893    4.505223    4.246394
     10          1           0       -4.477544    2.879006    4.944416
     11          8           0       -4.163196    0.576800    2.808723
     12          6           0       -2.502153    3.511633    4.405696
     13          1           0       -2.142895    2.518955    4.692346
     14          1           0       -2.283587    4.175119    5.250718
     15          6           0       -1.711168    3.963414    3.187419
     16          8           0       -2.203523    4.622631    2.283769
     17          8           0       -0.474685    3.476915    3.179647
     18          7           0       -2.754140    1.784705    1.447842
     19          1           0       -2.425992    2.715613    1.191625
     20          6           0       -1.987543    0.704279    0.840543
     21          1           0       -2.014570   -0.155142    1.516068
     22          6           0       -0.542811    1.233114    0.669645
     23          6           0       -2.592254    0.289445   -0.536785
     24          1           0       -1.971683   -0.522412   -0.931224
     25          1           0       -2.483507    1.137111   -1.224809
     26          8           0       -0.335902    2.459540    0.681643
     27          6           0       -4.024944   -0.151868   -0.437874
     28          6           0       -4.453947   -1.445587   -0.270582
     29          1           0       -3.876334   -2.360115   -0.258267
     30          6           0       -5.209363    0.671005   -0.373708
     31          6           0       -6.317740   -0.197609   -0.136213
     32          6           0       -5.454672    2.051629   -0.484706
     33          1           0       -4.642857    2.738566   -0.709264
     34          7           0       -5.822187   -1.478300   -0.088685
     35          1           0       -6.370769   -2.315846    0.035205
     36          6           0       -7.830477    1.650783   -0.056822
     37          1           0       -8.836165    2.048075    0.047284
     38          6           0       -7.623818    0.276949    0.028264
     39          1           0       -8.452167   -0.402232    0.210506
     40          6           0       -6.755038    2.533485   -0.319223
     41          1           0       -6.955305    3.595060   -0.443615
     42          7           0        0.368182    0.272489    0.476044
     43          1           0       -0.000611   -0.677688    0.415743
     44          6           0        1.698192    0.472679    0.016220
     45          1           0        2.493548    0.262504    0.723723
     46          6           0        1.932698    1.149580   -1.164937
     47          6           0        0.865852   -1.944663   -1.607267
     48          1           0        0.796903   -1.067015   -2.275227
     49          8           0        1.031382    1.434773   -2.037088
     50          6           0        2.115093   -2.776171   -1.727310
     51          1           0        2.999786   -2.131554   -1.701610
     52          1           0        2.113372   -3.291191   -2.698952
     53          1           0        2.158447   -3.521616   -0.929683
     54          8           0       -0.067767   -2.227996   -0.865556
     55          7           0        3.264253    1.572477   -1.408570
     56          1           0        3.942925    1.200623   -0.755520
     57          6           0        3.744857    1.727424   -2.761638
     58          1           0        2.866629    1.683923   -3.408479
     59          6           0        4.657449    0.614391   -3.279044
     60          6           0        4.460786    3.084631   -3.001537
     61          1           0        4.611693    3.198242   -4.080716
     62          1           0        5.463403    3.054080   -2.555932
     63          8           0        5.036708    0.534747   -4.426367
     64          6           0        3.726294    4.297353   -2.409963
     65          1           0        3.785914    4.260092   -1.317441
     66          1           0        4.255220    5.209452   -2.720845
     67          6           0        2.234816    4.425380   -2.743572
     68          1           0        1.670024    3.603356   -2.301869
     69          1           0        1.842274    5.358137   -2.321585
     70          7           0        1.975770    4.442595   -4.195620
     71          1           0        2.473859    5.141053   -4.732072
     72          7           0        0.554191    2.596973   -4.320880
     73          1           0       -0.179687    2.134237   -4.839254
     74          1           0        0.825510    2.170837   -3.372599
     75          7           0        0.836984    3.978425   -6.162883
     76          1           0        1.273662    4.782038   -6.590967
     77          1           0        0.574348    3.239651   -6.799985
     78          6           0        1.131900    3.653133   -4.872332
     79          8           0        5.034160   -0.266487   -2.319469
     80          1           0        5.636671   -0.901031   -2.753219
     81          1           0       -0.150637    3.450990    2.240687
 ---------------------------------------------------------------------

 SCF Done:  E(RB3LYP) =  -2053.89626567     A.U. after    1 cycles

 Alpha  occ. eigenvalues --  -19.26753 -19.25799 -19.22665 -19.21751 -19.20458
 Alpha  occ. eigenvalues --  -19.19981 -19.18104 -19.14921 -14.56642 -14.48505
 Alpha  occ. eigenvalues --  -14.48460 -14.46380 -14.45876 -14.45523 -14.41478
 Alpha  occ. eigenvalues --  -14.39144 -10.44106 -10.40212 -10.39843 -10.38534
 Alpha  occ. eigenvalues --  -10.36936 -10.34923 -10.32853 -10.31725 -10.31226
 Alpha  occ. eigenvalues --  -10.31035 -10.30903 -10.30865 -10.29925 -10.29780
 Alpha  occ. eigenvalues --  -10.29626 -10.28147 -10.28137 -10.27932 -10.27801
 Alpha  occ. eigenvalues --  -10.27349 -10.26890 -10.26708 -10.26278 -10.26191
 Alpha  occ. eigenvalues --  -10.24039 -10.21751  -1.17668  -1.17282  -1.15200
 Alpha  occ. eigenvalues --   -1.12505  -1.10573  -1.09489  -1.09148  -1.08852
 Alpha  occ. eigenvalues --   -1.08167  -1.06360  -1.05075  -1.02491  -1.02149
 Alpha  occ. eigenvalues --   -0.99959  -0.97534  -0.96095  -0.93053  -0.91478
 Alpha  occ. eigenvalues --   -0.88600  -0.87292  -0.85270  -0.83056  -0.82475
 Alpha  occ. eigenvalues --   -0.82175  -0.80491  -0.79750  -0.77621  -0.76717
 Alpha  occ. eigenvalues --   -0.75377  -0.73836  -0.73070  -0.71117  -0.70692
 Alpha  occ. eigenvalues --   -0.70310  -0.69596  -0.69108  -0.68410  -0.67977
 Alpha  occ. eigenvalues --   -0.67026  -0.66111  -0.65588  -0.64618  -0.64329
 Alpha  occ. eigenvalues --   -0.62810  -0.62658  -0.62054  -0.61609  -0.61024
 Alpha  occ. eigenvalues --   -0.60578  -0.59859  -0.58681  -0.57738  -0.57491
 Alpha  occ. eigenvalues --   -0.57068  -0.56426  -0.56286  -0.55984  -0.55537
 Alpha  occ. eigenvalues --   -0.55481  -0.54601  -0.53986  -0.53512  -0.52944
 Alpha  occ. eigenvalues --   -0.52816  -0.52575  -0.52425  -0.52204  -0.51934
 Alpha  occ. eigenvalues --   -0.51649  -0.50872  -0.50467  -0.50245  -0.49701
 Alpha  occ. eigenvalues --   -0.49343  -0.49076  -0.48711  -0.48259  -0.48131
 Alpha  occ. eigenvalues --   -0.47842  -0.47518  -0.47030  -0.46698  -0.46350
 Alpha  occ. eigenvalues --   -0.46076  -0.45890  -0.45306  -0.44577  -0.44444
 Alpha  occ. eigenvalues --   -0.44061  -0.43875  -0.43260  -0.42732  -0.42695
 Alpha  occ. eigenvalues --   -0.42297  -0.41821  -0.41725  -0.41032  -0.40091
 Alpha  occ. eigenvalues --   -0.38985  -0.38789  -0.38172  -0.37251  -0.36480
 Alpha  occ. eigenvalues --   -0.36415  -0.35609  -0.35382  -0.35146  -0.32652
 Alpha  occ. eigenvalues --   -0.32056  -0.31524  -0.30925  -0.30282  -0.29591
 Alpha  occ. eigenvalues --   -0.28609  -0.22362
 Alpha virt. eigenvalues --   -0.10358  -0.09411  -0.08250  -0.07898  -0.07582
 Alpha virt. eigenvalues --   -0.07374  -0.06279  -0.05683  -0.05446  -0.04721
 Alpha virt. eigenvalues --   -0.01519  -0.01333  -0.00936  -0.00372   0.00094

 Mulliken charges:
               1
     1  N   -0.766255
     2  H    0.418357
     3  H    0.416249
     4  H    0.398710
     5  C   -0.108825
     6  H    0.226035
     7  C    0.641335
     8  C   -0.280553
     9  H    0.182413
    10  H    0.167219
    11  O   -0.550142
    12  C   -0.369353
    13  H    0.203672
    14  H    0.206972
    15  C    0.592095
    16  O   -0.494636
    17  O   -0.568091
    18  N   -0.606247
    19  H    0.381899
    20  C   -0.082271
    21  H    0.189769
    22  C    0.650948
    23  C   -0.369909
    24  H    0.199087
    25  H    0.157775
    26  O   -0.591819
    27  C    0.079863
    28  C    0.020544
    29  H    0.183189
    30  C    0.077216
    31  C    0.325793
    32  C   -0.237805
    33  H    0.144001
    34  N   -0.683789
    35  H    0.343272
    36  C   -0.170420
    37  H    0.148021
    38  C   -0.163433
    39  H    0.149086
    40  C   -0.222024
    41  H    0.144243
    42  N   -0.604455
    43  H    0.364372
    44  C   -0.224081
    45  H    0.111109
    46  C    0.645308
    47  C    0.258912
    48  H    0.136168
    49  O   -0.699407
    50  C   -0.524324
    51  H    0.182166
    52  H    0.170063
    53  H    0.178405
    54  O   -0.445767
    55  N   -0.627655
    56  H    0.324675
    57  C   -0.058495
    58  H    0.166991
    59  C    0.580943
    60  C   -0.268304
    61  H    0.151686
    62  H    0.155231
    63  O   -0.462373
    64  C   -0.274357
    65  H    0.180873
    66  H    0.139539
    67  C   -0.183640
    68  H    0.230489
    69  H    0.175654
    70  N   -0.598750
    71  H    0.344399
    72  N   -0.793048
    73  H    0.350393
    74  H    0.468828
    75  N   -0.764260
    76  H    0.362194
    77  H    0.367424
    78  C    0.793153
    79  O   -0.568495
    80  H    0.418945
    81  H    0.457298
 Sum of Mulliken charges =   1.00000

 Dipole moment (field-independent basis, Debye):
    X=            -13.3339    Y=             13.3240    Z=             -5.1201  Tot=             19.5330
 Quadrupole moment (field-independent basis, Debye-Ang):
   XX=            -97.8577   YY=           -168.3911   ZZ=           -133.7509
   XY=            -16.6614   XZ=            -63.6034   YZ=            -25.7720

 Normal termination of Gaussian 16 at Thu May 26 18:13:39 2022.
