 Gaussian 16, Revision C.01,
 Gaussian 16:  ES64L-G16RevC.01  3-Jul-2019

 -------------------------------------------------------------------
 # B3LYP/6-31G* guess=read geom=check nosymm integral(ultrafinegrid)
 -------------------------------------------------------------------

 ------------------------------------------------------
 Candidate Structure: Conf:306 Charge calc in gas phase
 ------------------------------------------------------
 Structure from the checkpoint file:  "conf-306.chk"
 Charge =  1 Multiplicity = 1

                          Input orientation:
 ---------------------------------------------------------------------
 Center     Atomic      Atomic             Coordinates (Angstroms)
 Number     Number       Type             X           Y           Z
 ---------------------------------------------------------------------
      1          7           0       -5.777481    1.408815    3.157700
      2          1           0       -6.111382    1.987709    2.355867
      3          1           0       -5.950381    0.410214    2.909357
      4          1           0       -6.285601    1.677198    4.004647
      5          6           0       -4.269277    1.489988    3.293132
      6          1           0       -3.960358    2.514942    3.088588
      7          6           0       -3.804461    0.490492    2.207266
      8          6           0       -3.807310    1.056968    4.691911
      9          1           0       -4.169005    0.040817    4.892059
     10          1           0       -2.715036    0.997269    4.643386
     11          8           0       -4.492382   -0.528279    2.058639
     12          6           0       -4.192110    1.991933    5.847807
     13          1           0       -3.808805    1.574417    6.787124
     14          1           0       -5.276847    2.074936    6.010274
     15          6           0       -3.616047    3.392018    5.695679
     16          8           0       -2.933711    3.760033    4.760999
     17          8           0       -3.955045    4.175592    6.731828
     18          7           0       -2.721768    0.836374    1.515887
     19          1           0       -2.152573    1.651319    1.753336
     20          6           0       -2.199205    0.111659    0.360505
     21          1           0       -2.424101   -0.951718    0.481266
     22          6           0       -0.686858    0.414398    0.346014
     23          6           0       -2.826137    0.646710   -0.969780
     24          1           0       -2.350001    0.111816   -1.800280
     25          1           0       -2.528030    1.697113   -1.075120
     26          8           0       -0.300100    1.475921    0.843224
     27          6           0       -4.321624    0.520599   -1.027979
     28          6           0       -5.042490   -0.554547   -1.487987
     29          1           0       -4.695735   -1.463851   -1.960648
     30          6           0       -5.290117    1.451834   -0.499916
     31          6           0       -6.579996    0.852936   -0.646610
     32          6           0       -5.206683    2.730429    0.083348
     33          1           0       -4.249214    3.238037    0.164056
     34          7           0       -6.391015   -0.362666   -1.259172
     35          1           0       -7.122974   -1.001277   -1.534955
     36          6           0       -7.634634    2.722927    0.408368
     37          1           0       -8.527714    3.237519    0.751960
     38          6           0       -7.752563    1.471843   -0.191884
     39          1           0       -8.723871    0.998950   -0.311622
     40          6           0       -6.372275    3.353987    0.537212
     41          1           0       -6.319450    4.359964    0.947363
     42          7           0        0.086589   -0.493464   -0.269484
     43          1           0       -0.308751   -1.355515   -0.632361
     44          6           0        1.481392   -0.282105   -0.654885
     45          1           0        1.926729    0.452813    0.017354
     46          6           0        1.553383    0.334612   -2.071850
     47          6           0        2.214559   -1.665066   -0.556531
     48          1           0        3.243751   -1.476167   -0.926913
     49          8           0        2.005306    1.451508   -2.284278
     50          6           0        2.334693   -2.113511    0.907335
     51          1           0        2.848986   -1.368579    1.528533
     52          1           0        2.903453   -3.049007    0.954047
     53          1           0        1.342735   -2.298685    1.335990
     54          8           0        1.542451   -2.627816   -1.335418
     55          7           0        1.053064   -0.493794   -3.046795
     56          1           0        0.972458   -1.471079   -2.729572
     57          6           0        1.232072   -0.208679   -4.457633
     58          1           0        1.902540    0.661664   -4.519591
     59          6           0       -0.066959    0.221341   -5.149593
     60          6           0        1.848534   -1.421569   -5.180901
     61          1           0        1.811552   -1.247969   -6.259629
     62          1           0        1.200803   -2.290486   -4.997304
     63          8           0       -0.354051   -0.028544   -6.301516
     64          6           0        3.290532   -1.716214   -4.706663
     65          1           0        4.023066   -1.322803   -5.420635
     66          1           0        3.480469   -1.197521   -3.759705
     67          6           0        3.586277   -3.206629   -4.481649
     68          1           0        3.265366   -3.780886   -5.364555
     69          1           0        4.670435   -3.353626   -4.364362
     70          7           0        2.869673   -3.685393   -3.301531
     71          1           0        2.401837   -3.010735   -2.598318
     72          7           0        3.274402   -5.982681   -3.587115
     73          1           0        3.551931   -6.821684   -3.096380
     74          1           0        3.783979   -5.798512   -4.439464
     75          7           0        2.323148   -5.134221   -1.623484
     76          1           0        1.924074   -4.266487   -1.196419
     77          1           0        1.911752   -6.031294   -1.405696
     78          6           0        2.832292   -4.928539   -2.853903
     79          8           0       -0.870272    0.961102   -4.348620
     80          1           0       -1.614765    1.241102   -4.916734
     81          1           0       -3.535955    5.048720    6.592660
 ---------------------------------------------------------------------

 SCF Done:  E(RB3LYP) =  -2053.93539435     A.U. after    1 cycles

 Alpha  occ. eigenvalues --  -19.30116 -19.25551 -19.24873 -19.23784 -19.19851
 Alpha  occ. eigenvalues --  -19.19148 -19.16424 -19.13991 -14.57746 -14.47416
 Alpha  occ. eigenvalues --  -14.47248 -14.46607 -14.43714 -14.43385 -14.43126
 Alpha  occ. eigenvalues --  -14.40300 -10.43190 -10.41123 -10.41025 -10.38011
 Alpha  occ. eigenvalues --  -10.37811 -10.36471 -10.33300 -10.32833 -10.32803
 Alpha  occ. eigenvalues --  -10.32651 -10.31801 -10.31209 -10.31126 -10.29735
 Alpha  occ. eigenvalues --  -10.29007 -10.28911 -10.28726 -10.28551 -10.28465
 Alpha  occ. eigenvalues --  -10.28395 -10.28285 -10.27974 -10.27453 -10.26482
 Alpha  occ. eigenvalues --  -10.25704 -10.22405  -1.21210  -1.16363  -1.16348
 Alpha  occ. eigenvalues --   -1.12347  -1.11658  -1.11000  -1.10000  -1.08132
 Alpha  occ. eigenvalues --   -1.07335  -1.07219  -1.03725  -1.01380  -0.99628
 Alpha  occ. eigenvalues --   -0.98150  -0.97730  -0.97122  -0.93860  -0.93270
 Alpha  occ. eigenvalues --   -0.89865  -0.87172  -0.86733  -0.84847  -0.83384
 Alpha  occ. eigenvalues --   -0.82596  -0.81483  -0.80161  -0.78072  -0.76499
 Alpha  occ. eigenvalues --   -0.75522  -0.74370  -0.72023  -0.71936  -0.71553
 Alpha  occ. eigenvalues --   -0.70994  -0.69779  -0.69352  -0.68890  -0.68816
 Alpha  occ. eigenvalues --   -0.66912  -0.66381  -0.65644  -0.65509  -0.64185
 Alpha  occ. eigenvalues --   -0.63777  -0.63316  -0.63084  -0.62788  -0.61936
 Alpha  occ. eigenvalues --   -0.59901  -0.59062  -0.58835  -0.58395  -0.58147
 Alpha  occ. eigenvalues --   -0.57833  -0.57107  -0.56979  -0.56464  -0.55905
 Alpha  occ. eigenvalues --   -0.55762  -0.55234  -0.54626  -0.54195  -0.53676
 Alpha  occ. eigenvalues --   -0.53538  -0.53340  -0.53272  -0.52790  -0.52570
 Alpha  occ. eigenvalues --   -0.51734  -0.51329  -0.50785  -0.50517  -0.50065
 Alpha  occ. eigenvalues --   -0.49805  -0.49620  -0.48890  -0.48691  -0.48560
 Alpha  occ. eigenvalues --   -0.48486  -0.47834  -0.47516  -0.47014  -0.46918
 Alpha  occ. eigenvalues --   -0.46302  -0.45662  -0.45605  -0.45208  -0.44367
 Alpha  occ. eigenvalues --   -0.44286  -0.43825  -0.43472  -0.42836  -0.42438
 Alpha  occ. eigenvalues --   -0.42350  -0.41640  -0.41430  -0.41078  -0.40763
 Alpha  occ. eigenvalues --   -0.39919  -0.38684  -0.38216  -0.37632  -0.37572
 Alpha  occ. eigenvalues --   -0.37105  -0.36602  -0.34446  -0.34187  -0.33926
 Alpha  occ. eigenvalues --   -0.33333  -0.32368  -0.30374  -0.29823  -0.29611
 Alpha  occ. eigenvalues --   -0.28863  -0.28144
 Alpha virt. eigenvalues --   -0.11207  -0.10755  -0.10070  -0.08514  -0.07499
 Alpha virt. eigenvalues --   -0.06426  -0.05868  -0.05105  -0.02825  -0.02625
 Alpha virt. eigenvalues --   -0.02348  -0.02012  -0.01805  -0.01144  -0.00558

 Mulliken charges:
               1
     1  N   -0.763434
     2  H    0.421689
     3  H    0.416828
     4  H    0.397218
     5  C   -0.120335
     6  H    0.229014
     7  C    0.662366
     8  C   -0.286488
     9  H    0.182626
    10  H    0.212051
    11  O   -0.549903
    12  C   -0.384453
    13  H    0.224862
    14  H    0.169661
    15  C    0.589521
    16  O   -0.453628
    17  O   -0.548350
    18  N   -0.603740
    19  H    0.374127
    20  C   -0.068121
    21  H    0.179697
    22  C    0.641419
    23  C   -0.366800
    24  H    0.181523
    25  H    0.180235
    26  O   -0.534067
    27  C    0.086023
    28  C    0.022551
    29  H    0.170010
    30  C    0.070393
    31  C    0.323979
    32  C   -0.239742
    33  H    0.153073
    34  N   -0.683222
    35  H    0.344842
    36  C   -0.173303
    37  H    0.152107
    38  C   -0.166057
    39  H    0.151537
    40  C   -0.213480
    41  H    0.151034
    42  N   -0.596789
    43  H    0.338328
    44  C   -0.082693
    45  H    0.187852
    46  C    0.596179
    47  C    0.158159
    48  H    0.096728
    49  O   -0.505548
    50  C   -0.446179
    51  H    0.142526
    52  H    0.143091
    53  H    0.134495
    54  O   -0.732922
    55  N   -0.620676
    56  H    0.351986
    57  C   -0.061600
    58  H    0.211836
    59  C    0.593896
    60  C   -0.290384
    61  H    0.186886
    62  H    0.150167
    63  O   -0.462952
    64  C   -0.305946
    65  H    0.168366
    66  H    0.175269
    67  C   -0.151938
    68  H    0.157514
    69  H    0.166007
    70  N   -0.637659
    71  H    0.428498
    72  N   -0.758649
    73  H    0.362414
    74  H    0.367223
    75  N   -0.790492
    76  H    0.410291
    77  H    0.338916
    78  C    0.760441
    79  O   -0.559002
    80  H    0.411157
    81  H    0.431940
 Sum of Mulliken charges =   1.00000

 Dipole moment (field-independent basis, Debye):
    X=            -16.7761    Y=             -7.3828    Z=              6.0000  Tot=             19.2859
 Quadrupole moment (field-independent basis, Debye-Ang):
   XX=            -76.3994   YY=           -158.4279   ZZ=           -159.7531
   XY=            -73.4927   XZ=            -84.5363   YZ=             71.6807

 Normal termination of Gaussian 16 at Thu May 26 18:09:11 2022.
