 Gaussian 16, Revision C.01,
 Gaussian 16:  ES64L-G16RevC.01  3-Jul-2019

 -------------------------------------------------------------------
 # B3LYP/6-31G* guess=read geom=check nosymm integral(ultrafinegrid)
 -------------------------------------------------------------------

 ------------------------------------------------------
 Candidate Structure: Conf:515 Charge calc in gas phase
 ------------------------------------------------------
 Structure from the checkpoint file:  "conf-515.chk"
 Charge =  1 Multiplicity = 1

                          Input orientation:
 ---------------------------------------------------------------------
 Center     Atomic      Atomic             Coordinates (Angstroms)
 Number     Number       Type             X           Y           Z
 ---------------------------------------------------------------------
      1          7           0       -0.434314   -0.642251    2.004493
      2          1           0        0.347735   -0.621730    1.349599
      3          1           0        0.310221    1.065069    2.974834
      4          1           0       -0.323211   -1.479689    2.573882
      5          6           0       -1.715944   -0.698657    1.264206
      6          1           0       -1.794158   -1.600568    0.634661
      7          6           0       -1.641863    0.471670    0.270057
      8          6           0       -2.903656   -0.668490    2.234491
      9          1           0       -2.803695    0.201120    2.899572
     10          1           0       -3.833375   -0.556571    1.665496
     11          8           0       -0.813315    0.436429   -0.648582
     12          6           0       -3.001829   -1.946955    3.087817
     13          1           0       -2.137990   -2.064318    3.746981
     14          1           0       -3.049600   -2.826269    2.430171
     15          6           0       -4.224025   -1.985757    3.986856
     16          8           0       -4.213272   -2.225351    5.170450
     17          8           0       -5.366029   -1.734372    3.295342
     18          7           0       -2.397060    1.572354    0.502430
     19          1           0       -3.176855    1.543077    1.149119
     20          6           0       -2.190718    2.792743   -0.272613
     21          1           0       -2.389968    2.595986   -1.331162
     22          6           0       -0.709457    3.220760   -0.169457
     23          6           0       -3.133230    3.918388    0.228903
     24          1           0       -2.938497    4.798232   -0.397750
     25          1           0       -2.839252    4.194610    1.248750
     26          8           0       -0.095412    3.703011   -1.138711
     27          6           0       -4.585990    3.545938    0.200679
     28          6           0       -5.392307    3.350559    1.300017
     29          1           0       -5.160776    3.458192    2.351899
     30          6           0       -5.415402    3.319251   -0.959980
     31          6           0       -6.714569    2.989664   -0.485227
     32          6           0       -5.198794    3.376177   -2.348968
     33          1           0       -4.222553    3.642447   -2.747398
     34          7           0       -6.665022    3.013700    0.894999
     35          1           0       -7.450298    2.864900    1.510608
     36          6           0       -7.531940    2.773893   -2.713139
     37          1           0       -8.338275    2.568360   -3.410935
     38          6           0       -7.780536    2.713268   -1.347799
     39          1           0       -8.767292    2.465263   -0.966779
     40          6           0       -6.253931    3.104403   -3.209606
     41          1           0       -6.099688    3.151292   -4.283975
     42          7           0       -0.170511    3.040471    1.041297
     43          1           0       -0.713331    2.563500    1.763668
     44          6           0        1.243592    3.062484    1.387812
     45          1           0        1.670298    4.043236    1.154354
     46          6           0        2.034778    1.958375    0.643173
     47          6           0        1.308712    2.798231    2.947905
     48          1           0        2.264987    2.306334    3.156026
     49          8           0        2.106296    0.812579    1.089232
     50          6           0        1.202058    4.100607    3.733952
     51          1           0        2.056028    4.753842    3.525245
     52          1           0        1.186061    3.880316    4.804629
     53          1           0        0.281364    4.640221    3.482210
     54          8           0        0.228809    1.965327    3.350568
     55          7           0        2.662740    2.346723   -0.499137
     56          1           0        2.534856    3.301909   -0.807703
     57          6           0        3.675913    1.528180   -1.152456
     58          1           0        3.880010    0.701964   -0.460925
     59          6           0        5.003426    2.274578   -1.331075
     60          6           0        3.219462    0.932707   -2.503148
     61          1           0        4.104967    0.521870   -2.995505
     62          1           0        2.862615    1.756414   -3.136412
     63          8           0        5.930149    1.838230   -1.972302
     64          6           0        2.127937   -0.149333   -2.356283
     65          1           0        2.576769   -1.145638   -2.444493
     66          1           0        1.663962   -0.109247   -1.365756
     67          6           0        1.022608   -0.056741   -3.415938
     68          1           0        1.469513   -0.033635   -4.415851
     69          1           0        0.363630   -0.930450   -3.357109
     70          7           0        0.226237    1.161978   -3.224330
     71          1           0       -0.093286    1.324745   -2.263883
     72          7           0       -0.095430    1.697970   -5.475884
     73          1           0       -0.154005    2.415936   -6.182425
     74          1           0        0.105223    0.758996   -5.782068
     75          7           0       -0.675964    3.202879   -3.815085
     76          1           0       -0.578905    3.534569   -2.840315
     77          1           0       -1.202680    3.751337   -4.478444
     78          6           0       -0.180513    2.010636   -4.165508
     79          8           0        5.033339    3.469065   -0.699153
     80          1           0        5.919573    3.845985   -0.864699
     81          1           0       -6.095891   -1.813239    3.939298
 ---------------------------------------------------------------------

 SCF Done:  E(RB3LYP) =  -2053.97641293     A.U. after    1 cycles

 Alpha  occ. eigenvalues --  -19.28907 -19.27092 -19.23618 -19.23600 -19.22792
 Alpha  occ. eigenvalues --  -19.22282 -19.21556 -19.21220 -14.50777 -14.49375
 Alpha  occ. eigenvalues --  -14.48767 -14.47621 -14.46447 -14.46157 -14.46048
 Alpha  occ. eigenvalues --  -14.41945 -10.46319 -10.41181 -10.40131 -10.40052
 Alpha  occ. eigenvalues --  -10.39606 -10.38655 -10.34519 -10.34493 -10.33545
 Alpha  occ. eigenvalues --  -10.32947 -10.32859 -10.32745 -10.30901 -10.30126
 Alpha  occ. eigenvalues --  -10.30113 -10.29075 -10.28862 -10.28851 -10.28746
 Alpha  occ. eigenvalues --  -10.27448 -10.26929 -10.26821 -10.26738 -10.26225
 Alpha  occ. eigenvalues --  -10.26064 -10.25327  -1.19678  -1.17826  -1.15606
 Alpha  occ. eigenvalues --   -1.14678  -1.14354  -1.13262  -1.10602  -1.09986
 Alpha  occ. eigenvalues --   -1.08846  -1.06396  -1.04548  -1.04025  -1.02790
 Alpha  occ. eigenvalues --   -1.02473  -1.02042  -0.98820  -0.91981  -0.90496
 Alpha  occ. eigenvalues --   -0.90162  -0.88344  -0.87297  -0.85636  -0.84698
 Alpha  occ. eigenvalues --   -0.81661  -0.81156  -0.80484  -0.79817  -0.78871
 Alpha  occ. eigenvalues --   -0.76559  -0.75615  -0.73435  -0.72517  -0.71604
 Alpha  occ. eigenvalues --   -0.70931  -0.70416  -0.69563  -0.69165  -0.68598
 Alpha  occ. eigenvalues --   -0.68324  -0.67981  -0.67527  -0.67016  -0.65186
 Alpha  occ. eigenvalues --   -0.64157  -0.63519  -0.62897  -0.62545  -0.61881
 Alpha  occ. eigenvalues --   -0.61285  -0.60521  -0.59461  -0.59342  -0.59275
 Alpha  occ. eigenvalues --   -0.58473  -0.57429  -0.57035  -0.56817  -0.56535
 Alpha  occ. eigenvalues --   -0.55883  -0.55580  -0.55339  -0.55094  -0.54902
 Alpha  occ. eigenvalues --   -0.54087  -0.53850  -0.53599  -0.52918  -0.52730
 Alpha  occ. eigenvalues --   -0.52095  -0.51804  -0.51624  -0.51456  -0.51171
 Alpha  occ. eigenvalues --   -0.50740  -0.50581  -0.50199  -0.49712  -0.49470
 Alpha  occ. eigenvalues --   -0.48967  -0.48298  -0.48135  -0.47975  -0.47475
 Alpha  occ. eigenvalues --   -0.46953  -0.46446  -0.46293  -0.46169  -0.45815
 Alpha  occ. eigenvalues --   -0.45345  -0.45156  -0.44635  -0.44436  -0.44389
 Alpha  occ. eigenvalues --   -0.44108  -0.43434  -0.41642  -0.41399  -0.41377
 Alpha  occ. eigenvalues --   -0.40939  -0.40601  -0.39371  -0.39177  -0.38577
 Alpha  occ. eigenvalues --   -0.38203  -0.37726  -0.37505  -0.36404  -0.36014
 Alpha  occ. eigenvalues --   -0.35596  -0.34573  -0.34519  -0.34377  -0.33855
 Alpha  occ. eigenvalues --   -0.30435  -0.28851
 Alpha virt. eigenvalues --   -0.10422  -0.10251  -0.09658  -0.09046  -0.08199
 Alpha virt. eigenvalues --   -0.07746  -0.06713  -0.06455  -0.05510  -0.03440
 Alpha virt. eigenvalues --   -0.02422  -0.01845  -0.01427  -0.00787  -0.00255

 Mulliken charges:
               1
     1  N   -0.772231
     2  H    0.360013
     3  H    0.443823
     4  H    0.328665
     5  C   -0.041633
     6  H    0.152806
     7  C    0.626399
     8  C   -0.301685
     9  H    0.166357
    10  H    0.174077
    11  O   -0.554051
    12  C   -0.357875
    13  H    0.186021
    14  H    0.182231
    15  C    0.569938
    16  O   -0.437129
    17  O   -0.566801
    18  N   -0.630569
    19  H    0.356654
    20  C   -0.018121
    21  H    0.168180
    22  C    0.647628
    23  C   -0.396966
    24  H    0.180130
    25  H    0.167791
    26  O   -0.595287
    27  C    0.053130
    28  C   -0.010352
    29  H    0.166444
    30  C    0.090597
    31  C    0.312615
    32  C   -0.207319
    33  H    0.100712
    34  N   -0.683596
    35  H    0.342370
    36  C   -0.148718
    37  H    0.144915
    38  C   -0.156255
    39  H    0.143351
    40  C   -0.135495
    41  H    0.127913
    42  N   -0.588540
    43  H    0.365457
    44  C   -0.077437
    45  H    0.170576
    46  C    0.629251
    47  C    0.117857
    48  H    0.161404
    49  O   -0.541406
    50  C   -0.453746
    51  H    0.154124
    52  H    0.181409
    53  H    0.152419
    54  O   -0.661798
    55  N   -0.589725
    56  H    0.351665
    57  C   -0.076822
    58  H    0.223806
    59  C    0.590342
    60  C   -0.270650
    61  H    0.194123
    62  H    0.138171
    63  O   -0.443660
    64  C   -0.309391
    65  H    0.170030
    66  H    0.202436
    67  C   -0.160972
    68  H    0.157018
    69  H    0.187659
    70  N   -0.616154
    71  H    0.412127
    72  N   -0.764432
    73  H    0.375151
    74  H    0.380283
    75  N   -0.803160
    76  H    0.427957
    77  H    0.359800
    78  C    0.801008
    79  O   -0.570402
    80  H    0.426987
    81  H    0.418559
 Sum of Mulliken charges =   1.00000

 Dipole moment (field-independent basis, Debye):
    X=             -6.8011    Y=              9.6381    Z=            -10.5189  Tot=             15.8049
 Quadrupole moment (field-independent basis, Debye-Ang):
   XX=           -169.3161   YY=           -201.3571   ZZ=           -173.1797
   XY=             -3.3929   XZ=             -6.7361   YZ=            -14.2005

 Normal termination of Gaussian 16 at Thu May 26 18:13:29 2022.
