 Gaussian 16, Revision C.01,
 Gaussian 16:  ES64L-G16RevC.01  3-Jul-2019

 -------------------------------------------------------------------
 # B3LYP/6-31G* guess=read geom=check nosymm integral(ultrafinegrid)
 -------------------------------------------------------------------

 ------------------------------------------------------
 Candidate Structure: Conf:684 Charge calc in gas phase
 ------------------------------------------------------
 Structure from the checkpoint file:  "conf-684.chk"
 Charge =  1 Multiplicity = 1

                          Input orientation:
 ---------------------------------------------------------------------
 Center     Atomic      Atomic             Coordinates (Angstroms)
 Number     Number       Type             X           Y           Z
 ---------------------------------------------------------------------
      1          7           0       -3.447170   -0.385322    4.607073
      2          1           0       -4.470771   -0.398159    4.578613
      3          1           0       -3.077685   -1.187804    4.004811
      4          1           0       -3.143715   -0.469293    5.580829
      5          6           0       -2.848871    0.808182    3.882175
      6          1           0       -3.590678    1.604190    3.831356
      7          6           0       -2.543472    0.200924    2.484449
      8          6           0       -1.591604    1.256975    4.656770
      9          1           0       -1.914446    1.592962    5.651668
     10          1           0       -0.943674    0.382466    4.796403
     11          8           0       -2.435261   -1.035364    2.429567
     12          6           0       -0.732207    2.353194    3.994962
     13          1           0       -0.289068    1.961045    3.066869
     14          1           0        0.083602    2.614004    4.672759
     15          6           0       -1.504720    3.595068    3.622047
     16          8           0       -2.537618    3.590437    2.963832
     17          8           0       -0.935796    4.723079    4.055755
     18          7           0       -2.456931    1.050278    1.467743
     19          1           0       -2.508746    2.044180    1.693767
     20          6           0       -1.938055    0.654581    0.158136
     21          1           0       -2.236528   -0.385625    0.001876
     22          6           0       -0.384570    0.720741    0.214964
     23          6           0       -2.569203    1.547575   -0.951621
     24          1           0       -1.992998    2.475610   -1.044376
     25          1           0       -3.570290    1.832363   -0.601279
     26          8           0        0.199157    1.041086    1.255404
     27          6           0       -2.691939    0.875646   -2.288910
     28          6           0       -1.952966    1.134873   -3.422096
     29          1           0       -1.116129    1.805817   -3.560077
     30          6           0       -3.648459   -0.147335   -2.643315
     31          6           0       -3.428549   -0.464996   -4.011509
     32          6           0       -4.672322   -0.815983   -1.949135
     33          1           0       -4.874635   -0.588472   -0.904793
     34          7           0       -2.391396    0.333453   -4.452393
     35          1           0       -1.995769    0.323893   -5.380032
     36          6           0       -5.189309   -2.071362   -3.972632
     37          1           0       -5.798644   -2.821265   -4.468626
     38          6           0       -4.189099   -1.423632   -4.688203
     39          1           0       -4.008180   -1.653271   -5.734744
     40          6           0       -5.430594   -1.769368   -2.616898
     41          1           0       -6.224911   -2.291312   -2.090682
     42          7           0        0.245576    0.400507   -0.928017
     43          1           0       -0.309493    0.281592   -1.769775
     44          6           0        1.692916    0.506313   -1.089734
     45          1           0        2.035374    1.293512   -0.406328
     46          6           0        1.982968    1.023213   -2.517927
     47          6           0        2.465372   -0.789663   -0.652639
     48          1           0        2.170902   -0.937942    0.403181
     49          8           0        1.158830    1.681977   -3.156842
     50          6           0        2.017052   -2.028558   -1.444522
     51          1           0        0.943520   -2.223344   -1.330827
     52          1           0        2.560320   -2.906303   -1.077747
     53          1           0        2.242696   -1.916988   -2.511550
     54          8           0        3.836286   -0.572083   -0.769241
     55          7           0        3.237396    0.751066   -2.935331
     56          1           0        3.763681    0.118116   -2.293824
     57          6           0        3.855922    1.352136   -4.089021
     58          1           0        3.326783    2.288994   -4.306639
     59          6           0        3.765593    0.530715   -5.379842
     60          6           0        5.343017    1.645871   -3.777892
     61          1           0        5.804965    2.063872   -4.675603
     62          1           0        5.838996    0.683565   -3.591372
     63          8           0        4.324035    0.848096   -6.407252
     64          6           0        5.536758    2.582366   -2.561734
     65          1           0        5.880570    3.568948   -2.892123
     66          1           0        4.580010    2.745639   -2.052035
     67          6           0        6.548164    2.069756   -1.523918
     68          1           0        7.502869    1.859383   -2.023418
     69          1           0        6.732216    2.852245   -0.775322
     70          7           0        6.075096    0.849018   -0.869252
     71          1           0        5.050604    0.650580   -0.772111
     72          7           0        8.176366   -0.072673   -0.367436
     73          1           0        8.746019   -0.903706   -0.427778
     74          1           0        8.633370    0.800770   -0.578934
     75          7           0        6.228361   -1.347564   -0.224196
     76          1           0        5.166469   -1.347934   -0.346074
     77          1           0        6.702342   -2.029753    0.350011
     78          6           0        6.828254   -0.185689   -0.491613
     79          8           0        3.005522   -0.578811   -5.267791
     80          1           0        3.023711   -1.001757   -6.147875
     81          1           0       -1.469199    5.472792    3.724472
 ---------------------------------------------------------------------

 SCF Done:  E(RB3LYP) =  -2053.93243165     A.U. after    1 cycles

 Alpha  occ. eigenvalues --  -19.30928 -19.25649 -19.25320 -19.25316 -19.19244
 Alpha  occ. eigenvalues --  -19.19218 -19.16700 -19.12293 -14.59159 -14.47613
 Alpha  occ. eigenvalues --  -14.46502 -14.44210 -14.43706 -14.42791 -14.42584
 Alpha  occ. eigenvalues --  -14.39434 -10.43834 -10.41922 -10.41138 -10.39580
 Alpha  occ. eigenvalues --  -10.37419 -10.36249 -10.34130 -10.33702 -10.32291
 Alpha  occ. eigenvalues --  -10.31421 -10.30944 -10.29657 -10.27789 -10.27693
 Alpha  occ. eigenvalues --  -10.27551 -10.27540 -10.26974 -10.26633 -10.25922
 Alpha  occ. eigenvalues --  -10.24605 -10.24404 -10.24396 -10.24231 -10.23872
 Alpha  occ. eigenvalues --  -10.23648 -10.20941  -1.22077  -1.17907  -1.16100
 Alpha  occ. eigenvalues --   -1.12879  -1.12789  -1.10859  -1.09804  -1.08305
 Alpha  occ. eigenvalues --   -1.06917  -1.04403  -1.03659  -1.00134  -0.99247
 Alpha  occ. eigenvalues --   -0.98524  -0.97603  -0.96407  -0.93809  -0.89538
 Alpha  occ. eigenvalues --   -0.88347  -0.86794  -0.86150  -0.83382  -0.82335
 Alpha  occ. eigenvalues --   -0.79528  -0.79253  -0.78900  -0.77603  -0.75734
 Alpha  occ. eigenvalues --   -0.74784  -0.73573  -0.72983  -0.72902  -0.71716
 Alpha  occ. eigenvalues --   -0.70294  -0.69365  -0.68765  -0.67809  -0.66753
 Alpha  occ. eigenvalues --   -0.66514  -0.66098  -0.64983  -0.64244  -0.63783
 Alpha  occ. eigenvalues --   -0.63247  -0.62872  -0.62098  -0.61485  -0.61032
 Alpha  occ. eigenvalues --   -0.60258  -0.59160  -0.58675  -0.58457  -0.58282
 Alpha  occ. eigenvalues --   -0.57532  -0.57135  -0.56172  -0.55581  -0.55554
 Alpha  occ. eigenvalues --   -0.54795  -0.54156  -0.53624  -0.53583  -0.53148
 Alpha  occ. eigenvalues --   -0.52904  -0.52492  -0.52009  -0.51617  -0.51078
 Alpha  occ. eigenvalues --   -0.50097  -0.50061  -0.49968  -0.49423  -0.49390
 Alpha  occ. eigenvalues --   -0.49098  -0.48927  -0.48674  -0.48590  -0.48541
 Alpha  occ. eigenvalues --   -0.47733  -0.47369  -0.46609  -0.45950  -0.45828
 Alpha  occ. eigenvalues --   -0.45637  -0.44700  -0.44407  -0.43881  -0.43582
 Alpha  occ. eigenvalues --   -0.43448  -0.43055  -0.42166  -0.41701  -0.41229
 Alpha  occ. eigenvalues --   -0.40972  -0.40415  -0.39981  -0.39800  -0.39292
 Alpha  occ. eigenvalues --   -0.39142  -0.38947  -0.38814  -0.37680  -0.37040
 Alpha  occ. eigenvalues --   -0.36888  -0.34302  -0.33774  -0.33646  -0.33098
 Alpha  occ. eigenvalues --   -0.32596  -0.30650  -0.29868  -0.27870  -0.27215
 Alpha  occ. eigenvalues --   -0.26864  -0.26221
 Alpha virt. eigenvalues --   -0.11480  -0.10815  -0.09665  -0.06802  -0.05821
 Alpha virt. eigenvalues --   -0.05502  -0.05069  -0.04631  -0.03029  -0.02815
 Alpha virt. eigenvalues --   -0.02775  -0.02607  -0.01723  -0.00194  -0.00072

 Mulliken charges:
               1
     1  N   -0.757502
     2  H    0.415351
     3  H    0.432371
     4  H    0.408728
     5  C   -0.115930
     6  H    0.230483
     7  C    0.646837
     8  C   -0.302856
     9  H    0.175661
    10  H    0.190492
    11  O   -0.545443
    12  C   -0.405907
    13  H    0.277520
    14  H    0.199655
    15  C    0.603291
    16  O   -0.492586
    17  O   -0.533595
    18  N   -0.598589
    19  H    0.388928
    20  C   -0.083574
    21  H    0.216249
    22  C    0.621796
    23  C   -0.381875
    24  H    0.172674
    25  H    0.167664
    26  O   -0.545887
    27  C    0.012096
    28  C   -0.008286
    29  H    0.216212
    30  C    0.096052
    31  C    0.312161
    32  C   -0.212252
    33  H    0.106212
    34  N   -0.687808
    35  H    0.339286
    36  C   -0.150255
    37  H    0.136670
    38  C   -0.157950
    39  H    0.135524
    40  C   -0.136206
    41  H    0.125712
    42  N   -0.598568
    43  H    0.363804
    44  C   -0.065671
    45  H    0.178115
    46  C    0.568617
    47  C    0.191068
    48  H    0.102781
    49  O   -0.553315
    50  C   -0.463375
    51  H    0.126686
    52  H    0.139315
    53  H    0.151966
    54  O   -0.718942
    55  N   -0.616649
    56  H    0.374972
    57  C   -0.049782
    58  H    0.197727
    59  C    0.591900
    60  C   -0.293891
    61  H    0.186556
    62  H    0.150642
    63  O   -0.462573
    64  C   -0.289515
    65  H    0.163789
    66  H    0.169459
    67  C   -0.153066
    68  H    0.150548
    69  H    0.168376
    70  N   -0.609736
    71  H    0.387694
    72  N   -0.764053
    73  H    0.363024
    74  H    0.365952
    75  N   -0.779516
    76  H    0.416464
    77  H    0.338881
    78  C    0.770050
    79  O   -0.554443
    80  H    0.413381
    81  H    0.430203
 Sum of Mulliken charges =   1.00000

 Dipole moment (field-independent basis, Debye):
    X=              2.2761    Y=              2.8915    Z=             14.0429  Tot=             14.5170
 Quadrupole moment (field-independent basis, Debye-Ang):
   XX=            -75.8568   YY=           -215.6730   ZZ=           -146.6248
   XY=              0.0075   XZ=            -53.6162   YZ=             15.7502

 Normal termination of Gaussian 16 at Thu May 26 18:13:32 2022.
