 Gaussian 16, Revision C.01,
 Gaussian 16:  ES64L-G16RevC.01  3-Jul-2019

 ----------------------------------------------------------------------
 # B3LYP/6-31G* empiricaldispersion=gd3bj guess=read geom=check nosymm
 integral(ultrafinegrid)
 ----------------------------------------------------------------------

 ------------------------------------------------------
 Candidate Structure: Conf:558 Charge calc in gas phase
 ------------------------------------------------------
 Structure from the checkpoint file:  "conf-558.chk"
 Charge =  1 Multiplicity = 1

                          Input orientation:
 ---------------------------------------------------------------------
 Center     Atomic      Atomic             Coordinates (Angstroms)
 Number     Number       Type             X           Y           Z
 ---------------------------------------------------------------------
      1          7           0        6.646529    1.900203    5.468630
      2          1           0        6.384864    1.774323    6.448396
      3          1           0        5.783422    1.747728    4.887466
      4          1           0        6.861351    2.909472    5.314554
      5          6           0        7.755199    1.001521    5.006062
      6          1           0        8.595039    1.100089    5.693573
      7          1           0        7.384473   -0.023861    4.986554
      8          6           0        8.196562    1.512181    3.629749
      9          8           0        8.997515    2.445686    3.561728
     10          7           0        7.583188    0.952880    2.569090
     11          1           0        6.888138    0.226479    2.720465
     12          6           0        7.696119    1.531733    1.233352
     13          1           0        7.381228    0.788155    0.503714
     14          1           0        8.738354    1.813666    1.059464
     15          6           0        6.767757    2.749513    1.097672
     16          8           0        5.760856    2.728561    0.397325
     17          7           0        7.152056    3.822494    1.846028
     18          1           0        7.954549    3.705107    2.462750
     19          6           0        6.211566    4.865587    2.185583
     20          1           0        6.666706    5.855036    2.053302
     21          1           0        5.361235    4.785181    1.505670
     22          6           0        5.808184    4.733792    3.654454
     23          8           0        6.653089    4.466269    4.515039
     24          7           0        4.512851    4.979467    3.953524
     25          1           0        3.857301    5.109726    3.195579
     26          6           0        4.015657    4.944642    5.321394
     27          1           0        4.860552    5.139163    5.981660
     28          1           0        3.272669    5.738607    5.447365
     29          6           0        3.421598    3.581647    5.717633
     30          8           0        4.083375    2.732225    6.317581
     31          7           0        2.125474    3.421270    5.366323
     32          1           0        1.673166    4.110622    4.779125
     33          6           0        1.354352    2.225690    5.618560
     34          1           0        2.009441    1.425284    5.957187
     35          1           0        0.625146    2.400374    6.421827
     36          6           0        0.584616    1.826100    4.360607
     37          8           0        0.472565    2.597982    3.406740
     38          7           0       -0.009494    0.607698    4.431010
     39          1           0        0.349576   -0.042329    5.130222
     40          6           0       -0.818506    0.105101    3.351506
     41          1           0       -1.785603   -0.253499    3.727518
     42          1           0       -1.012676    0.941352    2.672175
     43          6           0       -0.144351   -1.027256    2.573832
     44          8           0        0.962961   -1.490108    2.886772
     45          7           0       -0.840972   -1.508024    1.520743
     46          1           0       -1.641588   -0.975129    1.205607
     47          6           0       -0.183070   -2.357278    0.527605
     48          1           0        0.163348   -3.284376    0.982749
     49          1           0       -0.913143   -2.594152   -0.248839
     50          6           0        0.977275   -1.573667   -0.088600
     51          8           0        0.777650   -0.446718   -0.557560
     52          7           0        2.187207   -2.155705   -0.008717
     53          1           0        2.277686   -3.026004    0.518741
     54          6           0        3.391025   -1.458004   -0.433646
     55          1           0        3.204728   -0.979198   -1.400686
     56          1           0        4.195154   -2.184781   -0.549826
     57          6           0        3.843977   -0.387182    0.569236
     58          8           0        4.968899   -0.414260    1.107044
     59          7           0        2.938694    0.556508    0.852853
     60          1           0        2.070627    0.542190    0.313623
     61          6           0        3.212832    1.651147    1.769744
     62          1           0        3.927369    2.347378    1.327239
     63          1           0        2.265587    2.156132    1.982006
     64          6           0        3.818183    1.179816    3.085138
     65          8           0        4.788954    1.794827    3.555606
     66          7           0        3.230430    0.144336    3.704996
     67          1           0        2.461216   -0.351348    3.253711
     68          6           0        3.811466   -0.446557    4.902683
     69          1           0        4.718587   -1.002969    4.644924
     70          1           0        4.072862    0.361174    5.593979
     71          6           0        2.796918   -1.329301    5.624090
     72          8           0        1.746572   -0.872421    6.091616
     73          7           0        3.156979   -2.620592    5.750871
     74          1           0        3.939525   -2.981783    5.211805
     75          6           0        2.318580   -3.603133    6.417207
     76          1           0        1.513085   -3.061495    6.919324
     77          1           0        2.897489   -4.158976    7.157216
     78          6           0        1.751729   -4.627129    5.434089
     79          8           0        1.877712   -5.836006    5.626799
     80          7           0        1.104116   -4.114822    4.353723
     81          1           0        1.194490   -3.128675    4.125730
     82          6           0        0.723903   -4.997531    3.259513
     83          1           0        0.318759   -5.919004    3.683060
     84          1           0       -0.042030   -4.511700    2.656826
     85          6           0        1.959242   -5.280044    2.401125
     86          8           0        2.205177   -4.669257    1.357220
     87          7           0        2.790611   -6.218140    2.922451
     88          1           0        2.584259   -6.495958    3.882335
     89          6           0        4.167558   -6.262921    2.498057
     90          1           0        4.205215   -6.144654    1.411107
     91          1           0        4.601553   -7.234814    2.751931
     92          6           0        4.981323   -5.135619    3.149842
     93          8           0        4.464179   -4.301581    3.892211
     94          7           0        6.304430   -5.106427    2.866212
     95          1           0        6.671257   -5.694522    2.130636
     96          6           0        7.094661   -3.984540    3.336739
     97          1           0        8.121956   -4.108064    2.981809
     98          1           0        7.109348   -3.955296    4.427941
     99          6           0        6.566461   -2.638617    2.845417
    100          8           0        6.614237   -1.631489    3.542295
    101          8           0        6.110727   -2.682315    1.610381
    102          1           0        5.717739   -1.780987    1.356687
 ---------------------------------------------------------------------

 SCF Done:  E(RB3LYP) =  -2989.32419740     A.U. after    3 cycles

 Alpha  occ. eigenvalues --  -19.27665 -19.24465 -19.24091 -19.23632 -19.23456
 Alpha  occ. eigenvalues --  -19.22784 -19.22337 -19.22131 -19.22129 -19.21713
 Alpha  occ. eigenvalues --  -19.21696 -19.21552 -19.20964 -19.20945 -19.19489
 Alpha  occ. eigenvalues --  -14.51974 -14.48040 -14.47528 -14.47340 -14.46286
 Alpha  occ. eigenvalues --  -14.46219 -14.46034 -14.45970 -14.45743 -14.45281
 Alpha  occ. eigenvalues --  -14.45237 -14.45234 -14.45226 -14.43255 -10.42318
 Alpha  occ. eigenvalues --  -10.41048 -10.40059 -10.39714 -10.39476 -10.39361
 Alpha  occ. eigenvalues --  -10.39307 -10.39014 -10.38871 -10.38708 -10.38704
 Alpha  occ. eigenvalues --  -10.38492 -10.38071 -10.36612 -10.34192 -10.33862
 Alpha  occ. eigenvalues --  -10.33471 -10.33183 -10.33172 -10.32959 -10.32877
 Alpha  occ. eigenvalues --  -10.32498 -10.32154 -10.31694 -10.31644 -10.31549
 Alpha  occ. eigenvalues --  -10.31215 -10.30783  -1.19859  -1.16096  -1.15391
 Alpha  occ. eigenvalues --   -1.15055  -1.14433  -1.14167  -1.13843  -1.13692
 Alpha  occ. eigenvalues --   -1.13623  -1.13328  -1.13169  -1.12888  -1.12627
 Alpha  occ. eigenvalues --   -1.11141  -1.10865  -1.07257  -1.04089  -1.03731
 Alpha  occ. eigenvalues --   -1.03297  -1.03236  -1.02918  -1.02501  -1.02286
 Alpha  occ. eigenvalues --   -1.02187  -1.01990  -1.01598  -1.01510  -1.01008
 Alpha  occ. eigenvalues --   -0.99935  -0.87699  -0.87166  -0.86681  -0.86143
 Alpha  occ. eigenvalues --   -0.85437  -0.84682  -0.83755  -0.82672  -0.81582
 Alpha  occ. eigenvalues --   -0.80791  -0.79729  -0.78692  -0.77941  -0.77289
 Alpha  occ. eigenvalues --   -0.72746  -0.71452  -0.70293  -0.70100  -0.69741
 Alpha  occ. eigenvalues --   -0.69337  -0.69116  -0.68847  -0.68586  -0.68486
 Alpha  occ. eigenvalues --   -0.67913  -0.67561  -0.66922  -0.66819  -0.66263
 Alpha  occ. eigenvalues --   -0.65771  -0.65304  -0.64525  -0.64349  -0.63843
 Alpha  occ. eigenvalues --   -0.63269  -0.62368  -0.62090  -0.61718  -0.61352
 Alpha  occ. eigenvalues --   -0.60426  -0.60242  -0.59941  -0.59375  -0.59275
 Alpha  occ. eigenvalues --   -0.59020  -0.58835  -0.58256  -0.58054  -0.57898
 Alpha  occ. eigenvalues --   -0.57728  -0.57659  -0.57197  -0.56899  -0.56569
 Alpha  occ. eigenvalues --   -0.56416  -0.55584  -0.55308  -0.55196  -0.55165
 Alpha  occ. eigenvalues --   -0.55069  -0.54493  -0.54307  -0.53885  -0.53817
 Alpha  occ. eigenvalues --   -0.53578  -0.53328  -0.52922  -0.52672  -0.52367
 Alpha  occ. eigenvalues --   -0.52116  -0.51865  -0.51699  -0.51175  -0.51063
 Alpha  occ. eigenvalues --   -0.50737  -0.50636  -0.50597  -0.50314  -0.50048
 Alpha  occ. eigenvalues --   -0.49780  -0.49609  -0.49427  -0.49106  -0.48919
 Alpha  occ. eigenvalues --   -0.48663  -0.48381  -0.48229  -0.47921  -0.47810
 Alpha  occ. eigenvalues --   -0.47655  -0.47343  -0.47182  -0.47110  -0.46777
 Alpha  occ. eigenvalues --   -0.46552  -0.46439  -0.45976  -0.45881  -0.45390
 Alpha  occ. eigenvalues --   -0.45283  -0.44524  -0.41299  -0.39527  -0.39192
 Alpha  occ. eigenvalues --   -0.38930  -0.38578  -0.38383  -0.37985  -0.37776
 Alpha  occ. eigenvalues --   -0.37710  -0.37240  -0.36825  -0.36674  -0.36437
 Alpha  occ. eigenvalues --   -0.36264  -0.36132  -0.35881  -0.35783  -0.35641
 Alpha  occ. eigenvalues --   -0.35408  -0.35284  -0.34897  -0.34779  -0.34462
 Alpha  occ. eigenvalues --   -0.34158  -0.33957  -0.33714  -0.33130  -0.32094
 Alpha virt. eigenvalues --   -0.10701  -0.09843  -0.09686  -0.09479  -0.09290
 Alpha virt. eigenvalues --   -0.08992  -0.08541  -0.08379  -0.08184  -0.07414
 Alpha virt. eigenvalues --   -0.07302  -0.07117  -0.06580  -0.05554  -0.03257

 Mulliken charges:
               1
     1  N   -0.811162
     2  H    0.399886
     3  H    0.467869
     4  H    0.448972
     5  C   -0.269424
     6  H    0.215810
     7  H    0.225441
     8  C    0.585716
     9  O   -0.514860
    10  N   -0.586301
    11  H    0.396978
    12  C   -0.239122
    13  H    0.190787
    14  H    0.201646
    15  C    0.610775
    16  O   -0.516822
    17  N   -0.587782
    18  H    0.389059
    19  C   -0.237474
    20  H    0.202336
    21  H    0.188545
    22  C    0.647565
    23  O   -0.559098
    24  N   -0.576006
    25  H    0.346417
    26  C   -0.250235
    27  H    0.216109
    28  H    0.183242
    29  C    0.632950
    30  O   -0.553021
    31  N   -0.579624
    32  H    0.344184
    33  C   -0.238252
    34  H    0.232765
    35  H    0.201167
    36  C    0.589795
    37  O   -0.537239
    38  N   -0.603400
    39  H    0.395359
    40  C   -0.251363
    41  H    0.201347
    42  H    0.223022
    43  C    0.615032
    44  O   -0.560939
    45  N   -0.556488
    46  H    0.359062
    47  C   -0.257815
    48  H    0.205329
    49  H    0.201579
    50  C    0.614902
    51  O   -0.552230
    52  N   -0.596348
    53  H    0.415036
    54  C   -0.255646
    55  H    0.218402
    56  H    0.191439
    57  C    0.639603
    58  O   -0.582770
    59  N   -0.601034
    60  H    0.400532
    61  C   -0.274483
    62  H    0.242278
    63  H    0.213323
    64  C    0.651720
    65  O   -0.593210
    66  N   -0.624967
    67  H    0.408670
    68  C   -0.264832
    69  H    0.206183
    70  H    0.202917
    71  C    0.590246
    72  O   -0.548404
    73  N   -0.595858
    74  H    0.390448
    75  C   -0.237674
    76  H    0.216929
    77  H    0.198986
    78  C    0.609564
    79  O   -0.529339
    80  N   -0.596244
    81  H    0.388267
    82  C   -0.250834
    83  H    0.208406
    84  H    0.179314
    85  C    0.616748
    86  O   -0.545965
    87  N   -0.561081
    88  H    0.384767
    89  C   -0.264799
    90  H    0.213626
    91  H    0.200701
    92  C    0.634994
    93  O   -0.540296
    94  N   -0.571603
    95  H    0.352837
    96  C   -0.214874
    97  H    0.201248
    98  H    0.203490
    99  C    0.604999
   100  O   -0.508466
   101  O   -0.593565
   102  H    0.471633
 Sum of Mulliken charges =   1.00000

 Dipole moment (field-independent basis, Debye):
    X=             16.6346    Y=             -4.6324    Z=             16.2850  Tot=             23.7354
 Quadrupole moment (field-independent basis, Debye-Ang):
   XX=           -206.3387   YY=           -237.0336   ZZ=           -253.7443
   XY=            -34.2631   XZ=             66.2244   YZ=             11.5540

 Normal termination of Gaussian 16 at Thu Aug 11 11:45:48 2022.
