 Gaussian 16, Revision C.01,
 Gaussian 16:  ES64L-G16RevC.01  3-Jul-2019

 ----------------------------------------------------------------------
 # B3LYP/6-31G* empiricaldispersion=gd3bj guess=read geom=check nosymm
 integral(ultrafinegrid)
 ----------------------------------------------------------------------

 ------------------------------------------------------
 Candidate Structure: Conf:242 Charge calc in gas phase
 ------------------------------------------------------
 Structure from the checkpoint file:  "conf-242.chk"
 Charge =  1 Multiplicity = 1

                          Input orientation:
 ---------------------------------------------------------------------
 Center     Atomic      Atomic             Coordinates (Angstroms)
 Number     Number       Type             X           Y           Z
 ---------------------------------------------------------------------
      1          7           0        2.773956    7.047905    6.023851
      2          1           0        1.999043    6.733632    6.611031
      3          1           0        3.588654    7.313073    6.596497
      4          1           0        3.128081    6.255110    5.396449
      5          6           0        2.428132    8.228808    5.174813
      6          1           0        1.738501    7.947580    4.376240
      7          1           0        1.958825    8.990412    5.803726
      8          6           0        3.775786    8.733562    4.657756
      9          8           0        4.772733    8.579593    5.371461
     10          7           0        3.764174    9.323160    3.456855
     11          1           0        2.892048    9.338220    2.929182
     12          6           0        5.001582    9.776082    2.828797
     13          1           0        5.763974    9.822116    3.606922
     14          1           0        4.850659   10.769454    2.401717
     15          6           0        5.388495    8.835117    1.683851
     16          8           0        4.911534    9.016951    0.559423
     17          7           0        6.238056    7.827951    1.970228
     18          1           0        6.434326    7.568162    2.935326
     19          6           0        6.533332    6.838076    0.946600
     20          1           0        7.014039    7.322274    0.092417
     21          1           0        7.229045    6.106520    1.351503
     22          6           0        5.249863    6.123154    0.513735
     23          8           0        4.391783    5.838327    1.353074
     24          7           0        5.075273    5.938955   -0.812218
     25          1           0        5.871548    6.070589   -1.419598
     26          6           0        3.843355    5.388258   -1.359310
     27          1           0        3.954598    5.295591   -2.442482
     28          1           0        3.641311    4.393861   -0.951576
     29          6           0        2.603127    6.239092   -1.049565
     30          8           0        1.477901    5.750076   -1.170573
     31          7           0        2.835204    7.489449   -0.590222
     32          1           0        3.790407    7.813015   -0.469434
     33          6           0        1.833534    8.271225    0.099333
     34          1           0        2.164312    9.308912    0.143016
     35          1           0        0.888452    8.231729   -0.454100
     36          6           0        1.492025    7.791991    1.519292
     37          8           0        0.954134    8.564208    2.327224
     38          7           0        1.706973    6.484055    1.774477
     39          1           0        2.518224    6.040176    1.344898
     40          6           0        1.006518    5.735537    2.793677
     41          1           0        1.546957    5.678028    3.737436
     42          1           0        0.036788    6.213663    2.967563
     43          6           0        0.793074    4.283656    2.352889
     44          8           0        0.771101    3.381732    3.199177
     45          7           0        0.618919    4.083539    1.031535
     46          1           0        0.768847    4.843203    0.366527
     47          6           0        0.373695    2.759708    0.470918
     48          1           0       -0.350131    2.235735    1.102676
     49          1           0       -0.033014    2.885413   -0.531765
     50          6           0        1.663745    1.941575    0.352170
     51          8           0        2.211049    1.698832   -0.718147
     52          7           0        2.179244    1.519424    1.542544
     53          1           0        1.781650    1.913498    2.394240
     54          6           0        3.499712    0.942872    1.538294
     55          1           0        3.493445   -0.047047    1.067409
     56          1           0        3.833498    0.822118    2.574043
     57          6           0        4.492314    1.859382    0.821254
     58          8           0        4.398913    3.088165    0.867486
     59          7           0        5.546964    1.268076    0.206694
     60          1           0        5.490633    0.281654   -0.009152
     61          6           0        6.467484    2.098149   -0.560028
     62          1           0        7.204031    1.443165   -1.034163
     63          1           0        5.940531    2.651212   -1.341998
     64          6           0        7.207463    3.139858    0.285672
     65          8           0        7.551562    4.214233   -0.206227
     66          7           0        7.506664    2.776192    1.550674
     67          1           0        7.159055    1.913230    1.950956
     68          6           0        8.174961    3.677382    2.455889
     69          1           0        8.997562    4.175841    1.932654
     70          1           0        7.492004    4.453586    2.829288
     71          6           0        8.671071    2.897150    3.665948
     72          8           0        8.223151    1.798779    3.962833
     73          7           0        9.642893    3.541472    4.381896
     74          1           0        9.880233    4.485930    4.109546
     75          6           0       10.075064    3.077065    5.685054
     76          1           0       11.151491    3.240467    5.800399
     77          1           0        9.873475    2.003462    5.724779
     78          6           0        9.257261    3.752857    6.786991
     79          8           0        8.033936    3.695407    6.799132
     80          7           0        9.936930    4.504743    7.706335
     81          1           0       10.940161    4.408666    7.789806
     82          6           0        9.188730    5.100172    8.811327
     83          1           0        8.738353    4.338376    9.453213
     84          1           0        9.877417    5.705926    9.407088
     85          6           0        8.034234    5.970060    8.301111
     86          8           0        6.933625    5.965862    8.845769
     87          7           0        8.321542    6.757669    7.226847
     88          1           0        9.186173    6.569514    6.736949
     89          6           0        7.246308    7.403692    6.481077
     90          1           0        7.658523    8.188785    5.848690
     91          1           0        6.547359    7.846829    7.190021
     92          6           0        6.551782    6.369799    5.593026
     93          8           0        6.787246    6.270007    4.385315
     94          7           0        5.709068    5.517205    6.241416
     95          1           0        5.821894    5.485221    7.255115
     96          6           0        5.361395    4.267388    5.576658
     97          1           0        4.708242    3.697576    6.245781
     98          1           0        6.247011    3.662436    5.375864
     99          6           0        4.599270    4.530056    4.292130
    100          8           0        3.691968    5.356818    4.200109
    101          8           0        4.974144    3.735935    3.321835
    102          1           0        4.507120    3.897874    2.455860
 ---------------------------------------------------------------------

 SCF Done:  E(RB3LYP) =  -2989.27348044     A.U. after    1 cycles

 Alpha  occ. eigenvalues --  -19.28668 -19.25226 -19.24332 -19.23570 -19.23039
 Alpha  occ. eigenvalues --  -19.22259 -19.21505 -19.21493 -19.21483 -19.20976
 Alpha  occ. eigenvalues --  -19.20832 -19.19638 -19.19433 -19.19164 -19.18530
 Alpha  occ. eigenvalues --  -14.55799 -14.48363 -14.48240 -14.46999 -14.46673
 Alpha  occ. eigenvalues --  -14.46487 -14.46203 -14.45232 -14.45171 -14.44200
 Alpha  occ. eigenvalues --  -14.43661 -14.43340 -14.43293 -14.42482 -10.43123
 Alpha  occ. eigenvalues --  -10.41609 -10.40079 -10.39927 -10.39720 -10.38750
 Alpha  occ. eigenvalues --  -10.38487 -10.38469 -10.37851 -10.37646 -10.37207
 Alpha  occ. eigenvalues --  -10.36754 -10.36702 -10.36655 -10.35312 -10.33786
 Alpha  occ. eigenvalues --  -10.33629 -10.33084 -10.33026 -10.32845 -10.31753
 Alpha  occ. eigenvalues --  -10.31595 -10.31507 -10.31257 -10.30836 -10.30647
 Alpha  occ. eigenvalues --  -10.30593 -10.29472  -1.20775  -1.16647  -1.15680
 Alpha  occ. eigenvalues --   -1.14958  -1.13973  -1.13953  -1.13690  -1.13453
 Alpha  occ. eigenvalues --   -1.12578  -1.12291  -1.12198  -1.11468  -1.11201
 Alpha  occ. eigenvalues --   -1.10940  -1.10289  -1.10084  -1.04457  -1.04275
 Alpha  occ. eigenvalues --   -1.03277  -1.02802  -1.02288  -1.02261  -1.01761
 Alpha  occ. eigenvalues --   -1.01488  -1.01265  -1.00398  -0.99893  -0.99274
 Alpha  occ. eigenvalues --   -0.98504  -0.87904  -0.87628  -0.86090  -0.85086
 Alpha  occ. eigenvalues --   -0.84954  -0.83931  -0.83222  -0.82269  -0.81347
 Alpha  occ. eigenvalues --   -0.80497  -0.79337  -0.78406  -0.77355  -0.76299
 Alpha  occ. eigenvalues --   -0.73442  -0.71556  -0.71025  -0.70683  -0.69750
 Alpha  occ. eigenvalues --   -0.69673  -0.69383  -0.68997  -0.68695  -0.68022
 Alpha  occ. eigenvalues --   -0.67398  -0.67136  -0.66978  -0.66696  -0.66027
 Alpha  occ. eigenvalues --   -0.64918  -0.64816  -0.64631  -0.64170  -0.62683
 Alpha  occ. eigenvalues --   -0.62359  -0.62054  -0.61492  -0.61450  -0.61070
 Alpha  occ. eigenvalues --   -0.61025  -0.60435  -0.59952  -0.59530  -0.59062
 Alpha  occ. eigenvalues --   -0.58769  -0.58607  -0.57989  -0.57913  -0.57639
 Alpha  occ. eigenvalues --   -0.57187  -0.56831  -0.56607  -0.56228  -0.55958
 Alpha  occ. eigenvalues --   -0.55414  -0.55349  -0.55270  -0.54730  -0.54528
 Alpha  occ. eigenvalues --   -0.54025  -0.53633  -0.53379  -0.53130  -0.53029
 Alpha  occ. eigenvalues --   -0.52731  -0.52620  -0.52334  -0.52053  -0.51878
 Alpha  occ. eigenvalues --   -0.51684  -0.51528  -0.51288  -0.51241  -0.50727
 Alpha  occ. eigenvalues --   -0.50683  -0.50301  -0.50187  -0.50058  -0.49840
 Alpha  occ. eigenvalues --   -0.49594  -0.49316  -0.48823  -0.48663  -0.48318
 Alpha  occ. eigenvalues --   -0.48235  -0.48093  -0.47660  -0.47384  -0.47301
 Alpha  occ. eigenvalues --   -0.47166  -0.46952  -0.46824  -0.46576  -0.46168
 Alpha  occ. eigenvalues --   -0.45941  -0.45425  -0.44857  -0.44064  -0.43739
 Alpha  occ. eigenvalues --   -0.43221  -0.42789  -0.42041  -0.39595  -0.39180
 Alpha  occ. eigenvalues --   -0.38899  -0.38794  -0.38570  -0.38000  -0.37242
 Alpha  occ. eigenvalues --   -0.37076  -0.36786  -0.36387  -0.36064  -0.35867
 Alpha  occ. eigenvalues --   -0.35746  -0.35681  -0.35219  -0.34993  -0.34717
 Alpha  occ. eigenvalues --   -0.34595  -0.34351  -0.34210  -0.33512  -0.33265
 Alpha  occ. eigenvalues --   -0.33020  -0.32835  -0.32326  -0.32017  -0.30972
 Alpha virt. eigenvalues --   -0.11439  -0.10215  -0.10091  -0.09601  -0.08295
 Alpha virt. eigenvalues --   -0.08146  -0.07950  -0.07792  -0.06922  -0.06579
 Alpha virt. eigenvalues --   -0.06448  -0.06244  -0.05674  -0.05547  -0.04517

 Mulliken charges:
               1
     1  N   -0.771528
     2  H    0.400093
     3  H    0.408689
     4  H    0.459950
     5  C   -0.306724
     6  H    0.265113
     7  H    0.231164
     8  C    0.645981
     9  O   -0.548400
    10  N   -0.602574
    11  H    0.388877
    12  C   -0.238727
    13  H    0.200356
    14  H    0.205443
    15  C    0.611572
    16  O   -0.539289
    17  N   -0.588121
    18  H    0.388044
    19  C   -0.236597
    20  H    0.183026
    21  H    0.208160
    22  C    0.632803
    23  O   -0.555363
    24  N   -0.592351
    25  H    0.358459
    26  C   -0.233588
    27  H    0.194751
    28  H    0.239054
    29  C    0.581622
    30  O   -0.544008
    31  N   -0.601217
    32  H    0.402538
    33  C   -0.217702
    34  H    0.189207
    35  H    0.217958
    36  C    0.565233
    37  O   -0.550532
    38  N   -0.621242
    39  H    0.409292
    40  C   -0.190626
    41  H    0.153763
    42  H    0.198283
    43  C    0.585038
    44  O   -0.559076
    45  N   -0.603342
    46  H    0.412096
    47  C   -0.240500
    48  H    0.192403
    49  H    0.199800
    50  C    0.604029
    51  O   -0.518760
    52  N   -0.584246
    53  H    0.378040
    54  C   -0.231071
    55  H    0.180069
    56  H    0.191712
    57  C    0.654701
    58  O   -0.556004
    59  N   -0.603951
    60  H    0.352619
    61  C   -0.219203
    62  H    0.191759
    63  H    0.202704
    64  C    0.631896
    65  O   -0.559722
    66  N   -0.589415
    67  H    0.354951
    68  C   -0.229313
    69  H    0.183676
    70  H    0.220549
    71  C    0.620885
    72  O   -0.513223
    73  N   -0.587875
    74  H    0.335064
    75  C   -0.238023
    76  H    0.166398
    77  H    0.234493
    78  C    0.603325
    79  O   -0.495850
    80  N   -0.617791
    81  H    0.350068
    82  C   -0.215904
    83  H    0.214602
    84  H    0.196998
    85  C    0.616220
    86  O   -0.531685
    87  N   -0.562506
    88  H    0.335752
    89  C   -0.224656
    90  H    0.185469
    91  H    0.206732
    92  C    0.623092
    93  O   -0.544827
    94  N   -0.612092
    95  H    0.385848
    96  C   -0.253179
    97  H    0.192992
    98  H    0.240177
    99  C    0.671090
   100  O   -0.526738
   101  O   -0.585848
   102  H    0.488710
 Sum of Mulliken charges =   1.00000

 Dipole moment (field-independent basis, Debye):
    X=             32.3325    Y=             27.4396    Z=             23.7934  Tot=             48.6256
 Quadrupole moment (field-independent basis, Debye-Ang):
   XX=            -39.9097   YY=           -126.2615   ZZ=           -164.4137
   XY=            165.5824   XZ=            162.6669   YZ=            151.2107

 Normal termination of Gaussian 16 at Thu Aug 11 11:44:31 2022.
