 Gaussian 16, Revision C.01,
 Gaussian 16:  ES64L-G16RevC.01  3-Jul-2019

 ----------------------------------------------------------------------
 # B3LYP/6-31G* empiricaldispersion=gd3bj guess=read geom=check nosymm
 integral(ultrafinegrid)
 ----------------------------------------------------------------------

 ------------------------------------------------------
 Candidate Structure: Conf:746 Charge calc in gas phase
 ------------------------------------------------------
 Structure from the checkpoint file:  "conf-746.chk"
 Charge =  1 Multiplicity = 1

                          Input orientation:
 ---------------------------------------------------------------------
 Center     Atomic      Atomic             Coordinates (Angstroms)
 Number     Number       Type             X           Y           Z
 ---------------------------------------------------------------------
      1          7           0        5.937117    1.469323   -5.045155
      2          1           0        6.293846    1.319746   -4.051326
      3          1           0        5.358366    2.341098   -5.071491
      4          1           0        6.740218    1.580784   -5.666527
      5          6           0        4.989097    0.403693   -5.502197
      6          1           0        5.371083   -0.104417   -6.386111
      7          1           0        4.848579   -0.318304   -4.703862
      8          6           0        3.651772    1.117898   -5.762323
      9          8           0        3.574438    2.329227   -5.498222
     10          7           0        2.660943    0.367285   -6.243597
     11          1           0        2.806013   -0.642808   -6.338522
     12          6           0        1.314250    0.888257   -6.457981
     13          1           0        1.126678    1.027448   -7.529844
     14          1           0        1.225505    1.860024   -5.970795
     15          6           0        0.323971   -0.143106   -5.926480
     16          8           0        0.499109   -1.338865   -6.192604
     17          7           0       -0.693271    0.301463   -5.160744
     18          1           0       -0.655011    1.238376   -4.750795
     19          6           0       -1.552680   -0.656426   -4.457110
     20          1           0       -2.492019   -0.172446   -4.193779
     21          1           0       -1.736872   -1.509771   -5.112248
     22          6           0       -0.812611   -1.051920   -3.174621
     23          8           0       -1.123334   -0.587273   -2.070134
     24          7           0        0.305290   -1.789039   -3.380697
     25          1           0        0.511182   -2.015448   -4.351799
     26          6           0        1.452610   -1.704172   -2.481064
     27          1           0        1.128673   -1.787976   -1.442789
     28          1           0        2.132435   -2.514006   -2.724403
     29          6           0        2.184003   -0.361122   -2.681723
     30          8           0        3.341506   -0.268155   -3.105788
     31          7           0        1.404730    0.702483   -2.399056
     32          1           0        0.503772    0.482664   -1.988921
     33          6           0        1.652406    2.100207   -2.743214
     34          1           0        2.396708    2.535896   -2.075816
     35          1           0        2.007919    2.195618   -3.771015
     36          6           0        0.287475    2.755996   -2.549946
     37          8           0       -0.663754    2.490379   -3.286221
     38          7           0        0.166913    3.493273   -1.414549
     39          1           0        1.008222    3.608666   -0.860761
     40          6           0       -1.067147    3.461339   -0.620675
     41          1           0       -1.284514    4.439774   -0.191975
     42          1           0       -1.880166    3.146805   -1.276292
     43          6           0       -0.741420    2.473334    0.508839
     44          8           0       -0.259047    2.879420    1.567763
     45          7           0       -0.807387    1.160433    0.180083
     46          1           0       -1.239185    0.849609   -0.685273
     47          6           0       -0.235267    0.125485    1.037245
     48          1           0       -0.545671    0.303083    2.071650
     49          1           0       -0.619043   -0.835975    0.700729
     50          6           0        1.304866    0.060163    0.960694
     51          8           0        1.891175   -0.882690    0.420235
     52          7           0        1.949602    1.099373    1.538861
     53          1           0        1.379545    1.851963    1.922279
     54          6           0        3.399815    1.162031    1.642380
     55          1           0        3.794629    0.147020    1.560488
     56          1           0        3.676835    1.579301    2.611223
     57          6           0        4.042474    2.050959    0.577522
     58          8           0        4.452891    3.184319    0.830373
     59          7           0        4.114614    1.517411   -0.675418
     60          1           0        4.031783    0.510278   -0.778312
     61          6           0        4.827219    2.222035   -1.732065
     62          1           0        4.444148    1.877436   -2.689986
     63          1           0        4.642692    3.293166   -1.612783
     64          6           0        6.322703    1.927318   -1.648813
     65          8           0        6.920984    1.267363   -2.522143
     66          7           0        6.915381    2.388061   -0.532718
     67          1           0        6.296807    2.841448    0.142326
     68          6           0        8.103133    1.748362    0.020277
     69          1           0        8.777777    1.479718   -0.793643
     70          1           0        8.605596    2.446736    0.691995
     71          6           0        7.598607    0.542354    0.823584
     72          8           0        6.877422    0.693214    1.799627
     73          7           0        7.958060   -0.684281    0.335618
     74          1           0        8.315658   -0.710428   -0.610466
     75          6           0        7.240441   -1.847233    0.797098
     76          1           0        7.042139   -1.712704    1.864396
     77          1           0        7.857163   -2.743140    0.672459
     78          6           0        5.899510   -2.006600    0.065374
     79          8           0        5.419957   -1.090539   -0.611267
     80          7           0        5.293209   -3.202072    0.211845
     81          1           0        5.772948   -3.940566    0.708873
     82          6           0        4.004501   -3.511049   -0.403265
     83          1           0        3.557363   -4.355133    0.121045
     84          1           0        3.352830   -2.638627   -0.287917
     85          6           0        4.131546   -3.904826   -1.882066
     86          8           0        3.737191   -4.994572   -2.300318
     87          7           0        4.698408   -2.962926   -2.674010
     88          1           0        4.817582   -2.026245   -2.296298
     89          6           0        4.997779   -3.201958   -4.074773
     90          1           0        5.390897   -4.218946   -4.180830
     91          1           0        5.768143   -2.498306   -4.391349
     92          6           0        3.812825   -3.058332   -5.039607
     93          8           0        3.823648   -2.230878   -5.956246
     94          7           0        2.793091   -3.920503   -4.812690
     95          1           0        2.978231   -4.638633   -4.110773
     96          6           0        1.838787   -4.214627   -5.860639
     97          1           0        1.510304   -3.289914   -6.338604
     98          1           0        0.956613   -4.700701   -5.435389
     99          6           0        2.463482   -5.121224   -6.915748
    100          8           0        3.619574   -5.472793   -6.928971
    101          8           0        1.550373   -5.471469   -7.841727
    102          1           0        2.005427   -6.039752   -8.491998
 ---------------------------------------------------------------------

 SCF Done:  E(RB3LYP) =  -2989.26877290     A.U. after    2 cycles

 Alpha  occ. eigenvalues --  -19.27273 -19.24612 -19.24524 -19.23820 -19.23407
 Alpha  occ. eigenvalues --  -19.23249 -19.23068 -19.22877 -19.22080 -19.21759
 Alpha  occ. eigenvalues --  -19.21718 -19.21714 -19.21509 -19.21453 -19.21225
 Alpha  occ. eigenvalues --  -14.54888 -14.47816 -14.47585 -14.47440 -14.46825
 Alpha  occ. eigenvalues --  -14.46602 -14.46543 -14.46264 -14.46050 -14.46000
 Alpha  occ. eigenvalues --  -14.45734 -14.45508 -14.45215 -14.44965 -10.41447
 Alpha  occ. eigenvalues --  -10.40611 -10.40478 -10.40221 -10.40017 -10.39806
 Alpha  occ. eigenvalues --  -10.39745 -10.39707 -10.38852 -10.38768 -10.38573
 Alpha  occ. eigenvalues --  -10.38521 -10.38406 -10.38333 -10.35940 -10.33814
 Alpha  occ. eigenvalues --  -10.33502 -10.33411 -10.33139 -10.32840 -10.32830
 Alpha  occ. eigenvalues --  -10.32783 -10.32640 -10.32518 -10.31996 -10.31884
 Alpha  occ. eigenvalues --  -10.31411 -10.31411  -1.18253  -1.16609  -1.15737
 Alpha  occ. eigenvalues --   -1.15605  -1.15237  -1.15160  -1.14559  -1.14018
 Alpha  occ. eigenvalues --   -1.13793  -1.13750  -1.13380  -1.13224  -1.13008
 Alpha  occ. eigenvalues --   -1.12651  -1.09572  -1.09401  -1.04178  -1.04071
 Alpha  occ. eigenvalues --   -1.03772  -1.03698  -1.03627  -1.03045  -1.02558
 Alpha  occ. eigenvalues --   -1.02281  -1.02178  -1.01948  -1.01851  -1.01285
 Alpha  occ. eigenvalues --   -1.00995  -0.88142  -0.87515  -0.87254  -0.86359
 Alpha  occ. eigenvalues --   -0.85363  -0.84749  -0.84090  -0.83013  -0.81916
 Alpha  occ. eigenvalues --   -0.81105  -0.80089  -0.79167  -0.78523  -0.77908
 Alpha  occ. eigenvalues --   -0.71538  -0.70919  -0.70712  -0.70378  -0.70307
 Alpha  occ. eigenvalues --   -0.70106  -0.69744  -0.69511  -0.68755  -0.68732
 Alpha  occ. eigenvalues --   -0.68416  -0.68043  -0.67819  -0.67455  -0.67012
 Alpha  occ. eigenvalues --   -0.66676  -0.65133  -0.64951  -0.64783  -0.64000
 Alpha  occ. eigenvalues --   -0.63358  -0.63108  -0.62662  -0.61726  -0.60977
 Alpha  occ. eigenvalues --   -0.60654  -0.60453  -0.60123  -0.59955  -0.59249
 Alpha  occ. eigenvalues --   -0.59134  -0.58874  -0.58670  -0.58482  -0.58129
 Alpha  occ. eigenvalues --   -0.57841  -0.57562  -0.57260  -0.56873  -0.56510
 Alpha  occ. eigenvalues --   -0.56278  -0.56139  -0.56040  -0.55880  -0.55739
 Alpha  occ. eigenvalues --   -0.55301  -0.54985  -0.54581  -0.54451  -0.54218
 Alpha  occ. eigenvalues --   -0.53839  -0.53525  -0.53021  -0.52671  -0.52426
 Alpha  occ. eigenvalues --   -0.52080  -0.51948  -0.51532  -0.51260  -0.51204
 Alpha  occ. eigenvalues --   -0.50939  -0.50730  -0.50672  -0.50643  -0.50305
 Alpha  occ. eigenvalues --   -0.50084  -0.49958  -0.49727  -0.49536  -0.49395
 Alpha  occ. eigenvalues --   -0.49073  -0.48735  -0.48432  -0.48120  -0.48040
 Alpha  occ. eigenvalues --   -0.47823  -0.47689  -0.47499  -0.47375  -0.47253
 Alpha  occ. eigenvalues --   -0.47065  -0.46626  -0.46566  -0.46529  -0.46354
 Alpha  occ. eigenvalues --   -0.46078  -0.45748  -0.39699  -0.39491  -0.39467
 Alpha  occ. eigenvalues --   -0.39134  -0.38812  -0.38711  -0.38471  -0.38187
 Alpha  occ. eigenvalues --   -0.38147  -0.37878  -0.37798  -0.37703  -0.37324
 Alpha  occ. eigenvalues --   -0.37148  -0.36603  -0.36326  -0.36179  -0.35935
 Alpha  occ. eigenvalues --   -0.35330  -0.35277  -0.35080  -0.34812  -0.34666
 Alpha  occ. eigenvalues --   -0.34479  -0.34060  -0.33712  -0.33666  -0.33459
 Alpha virt. eigenvalues --   -0.12071  -0.11672  -0.10925  -0.09827  -0.09475
 Alpha virt. eigenvalues --   -0.09088  -0.08719  -0.08588  -0.07652  -0.07325
 Alpha virt. eigenvalues --   -0.07287  -0.06771  -0.06694  -0.06308  -0.06229

 Mulliken charges:
               1
     1  N   -0.801880
     2  H    0.452632
     3  H    0.409781
     4  H    0.397770
     5  C   -0.266804
     6  H    0.228725
     7  H    0.266529
     8  C    0.622251
     9  O   -0.554201
    10  N   -0.612689
    11  H    0.415672
    12  C   -0.215117
    13  H    0.213572
    14  H    0.201818
    15  C    0.595512
    16  O   -0.539204
    17  N   -0.598667
    18  H    0.394572
    19  C   -0.238594
    20  H    0.203443
    21  H    0.210033
    22  C    0.584050
    23  O   -0.549145
    24  N   -0.578189
    25  H    0.396061
    26  C   -0.294318
    27  H    0.238193
    28  H    0.198056
    29  C    0.626561
    30  O   -0.574716
    31  N   -0.623980
    32  H    0.394799
    33  C   -0.220418
    34  H    0.184927
    35  H    0.216199
    36  C    0.549741
    37  O   -0.512297
    38  N   -0.552924
    39  H    0.354609
    40  C   -0.223004
    41  H    0.208594
    42  H    0.210346
    43  C    0.574897
    44  O   -0.517600
    45  N   -0.604654
    46  H    0.389211
    47  C   -0.231066
    48  H    0.203363
    49  H    0.201100
    50  C    0.591252
    51  O   -0.541310
    52  N   -0.592565
    53  H    0.389372
    54  C   -0.228750
    55  H    0.201117
    56  H    0.205948
    57  C    0.591515
    58  O   -0.521881
    59  N   -0.591345
    60  H    0.396325
    61  C   -0.267457
    62  H    0.177295
    63  H    0.203683
    64  C    0.630408
    65  O   -0.584111
    66  N   -0.563649
    67  H    0.396156
    68  C   -0.246316
    69  H    0.185182
    70  H    0.208238
    71  C    0.607920
    72  O   -0.507241
    73  N   -0.555425
    74  H    0.343156
    75  C   -0.258510
    76  H    0.233724
    77  H    0.183918
    78  C    0.628540
    79  O   -0.553827
    80  N   -0.575773
    81  H    0.353613
    82  C   -0.271720
    83  H    0.198988
    84  H    0.243207
    85  C    0.583416
    86  O   -0.522064
    87  N   -0.591601
    88  H    0.393230
    89  C   -0.240238
    90  H    0.216608
    91  H    0.166082
    92  C    0.618828
    93  O   -0.551562
    94  N   -0.583066
    95  H    0.386168
    96  C   -0.274914
    97  H    0.254009
    98  H    0.197390
    99  C    0.586234
   100  O   -0.449848
   101  O   -0.555939
   102  H    0.424042
 Sum of Mulliken charges =   1.00000

 Dipole moment (field-independent basis, Debye):
    X=             19.5342    Y=             -1.0501    Z=            -15.2917  Tot=             24.8299
 Quadrupole moment (field-independent basis, Debye-Ang):
   XX=           -171.7252   YY=           -298.9781   ZZ=           -236.5523
   XY=             -4.7818   XZ=            -55.9148   YZ=            -12.7547

 Normal termination of Gaussian 16 at Thu Aug 11 11:45:01 2022.
