 Gaussian 16, Revision C.01,
 Gaussian 16:  ES64L-G16RevC.01  3-Jul-2019

 ----------------------------------------------------------------------
 # B3LYP/6-31G* empiricaldispersion=gd3bj guess=read geom=check nosymm
 integral(ultrafinegrid)
 ----------------------------------------------------------------------

 -----------------------------------------------------
 Candidate Structure: Conf:12 Charge calc in gas phase
 -----------------------------------------------------
 Structure from the checkpoint file:  "conf-12.chk"
 Charge =  1 Multiplicity = 1

                          Input orientation:
 ---------------------------------------------------------------------
 Center     Atomic      Atomic             Coordinates (Angstroms)
 Number     Number       Type             X           Y           Z
 ---------------------------------------------------------------------
      1          7           0        6.291175    7.290028    4.241141
      2          1           0        6.009327    8.251989    4.450371
      3          1           0        6.633803    6.766806    5.061679
      4          1           0        5.468848    6.713935    3.908640
      5          6           0        7.340030    7.256404    3.184067
      6          1           0        8.253351    7.698942    3.591334
      7          1           0        7.528884    6.216554    2.942597
      8          6           0        6.901325    8.085653    1.986035
      9          8           0        6.343851    9.176926    2.172834
     10          7           0        7.225761    7.566744    0.792445
     11          1           0        7.490457    6.582110    0.763099
     12          6           0        7.267980    8.335795   -0.448989
     13          1           0        7.865079    7.774246   -1.166364
     14          1           0        7.772905    9.288102   -0.246675
     15          6           0        5.935713    8.655707   -1.145363
     16          8           0        5.794449    8.433935   -2.346307
     17          7           0        5.003728    9.277216   -0.383323
     18          1           0        5.254126    9.513276    0.574826
     19          6           0        3.830297    9.882698   -1.005465
     20          1           0        3.382697   10.575297   -0.292536
     21          1           0        4.136231   10.431062   -1.902689
     22          6           0        2.774331    8.828378   -1.350460
     23          8           0        1.873287    8.531693   -0.562463
     24          7           0        2.922712    8.233909   -2.560933
     25          1           0        3.857452    8.296241   -2.961214
     26          6           0        2.115532    7.062959   -2.866033
     27          1           0        1.074360    7.356918   -3.029224
     28          1           0        2.498924    6.615935   -3.786199
     29          6           0        2.236980    6.059621   -1.717529
     30          8           0        3.362693    5.779022   -1.273125
     31          7           0        1.107118    5.554474   -1.203865
     32          1           0        0.207687    5.868204   -1.543373
     33          6           0        1.152365    4.893839    0.085426
     34          1           0        1.866464    4.065905    0.050232
     35          1           0        1.484811    5.592655    0.855144
     36          6           0       -0.175795    4.283629    0.476023
     37          8           0       -0.944367    3.794163   -0.354481
     38          7           0       -0.388214    4.267447    1.813904
     39          1           0        0.344303    4.631280    2.414831
     40          6           0       -1.368455    3.366515    2.411532
     41          1           0       -1.603446    3.704977    3.420256
     42          1           0       -2.271297    3.379562    1.796126
     43          6           0       -0.753779    1.962436    2.487457
     44          8           0       -0.323571    1.480872    3.524158
     45          7           0       -0.675025    1.341920    1.265104
     46          1           0       -0.924057    1.905028    0.455209
     47          6           0        0.285261    0.289708    1.070396
     48          1           0        0.390630   -0.241745    2.022444
     49          1           0       -0.070415   -0.421355    0.317313
     50          6           0        1.668550    0.830139    0.681221
     51          8           0        2.033764    1.975352    0.934590
     52          7           0        2.451475   -0.071766    0.020756
     53          1           0        2.165287   -1.042962    0.042996
     54          6           0        3.861772    0.159148   -0.167900
     55          1           0        4.041476    1.231878   -0.067346
     56          1           0        4.167402   -0.140221   -1.178137
     57          6           0        4.682158   -0.640717    0.842607
     58          8           0        4.195695   -1.595419    1.449829
     59          7           0        5.984824   -0.279828    0.967983
     60          1           0        6.278866    0.632163    0.642136
     61          6           0        6.883948   -1.029658    1.838662
     62          1           0        6.661663   -2.092904    1.719275
     63          1           0        7.915333   -0.837104    1.542970
     64          6           0        6.715489   -0.593692    3.293300
     65          8           0        7.555726    0.122735    3.851109
     66          7           0        5.574673   -0.990216    3.894214
     67          1           0        4.869835   -1.434840    3.307460
     68          6           0        5.204069   -0.416374    5.173155
     69          1           0        4.187273   -0.738135    5.411644
     70          1           0        5.872906   -0.780079    5.960472
     71          6           0        5.228870    1.114626    5.085711
     72          8           0        4.747060    1.702387    4.119547
     73          7           0        5.835146    1.761547    6.115849
     74          1           0        6.317691    1.215384    6.815964
     75          6           0        6.006499    3.202732    6.116274
     76          1           0        6.242282    3.543886    7.126268
     77          1           0        5.066071    3.670659    5.806164
     78          6           0        7.048946    3.749268    5.136470
     79          8           0        7.276370    4.964750    5.096649
     80          7           0        7.612912    2.865047    4.295003
     81          1           0        7.461657    1.864123    4.410449
     82          6           0        8.240067    3.282423    3.059612
     83          1           0        8.974190    4.071235    3.231371
     84          1           0        8.756977    2.414974    2.639982
     85          6           0        7.226429    3.823068    2.035544
     86          8           0        7.549990    4.732329    1.264206
     87          7           0        6.000656    3.243475    2.019263
     88          1           0        5.721006    2.685896    2.828719
     89          6           0        4.901974    3.923460    1.352083
     90          1           0        4.027090    3.262978    1.362989
     91          1           0        5.155342    4.143502    0.312899
     92          6           0        4.536434    5.213949    2.086977
     93          8           0        4.787184    5.342775    3.303622
     94          7           0        3.923475    6.160970    1.376343
     95          1           0        3.732334    6.007340    0.373832
     96          6           0        3.366747    7.334721    2.020167
     97          1           0        2.744864    7.859220    1.283833
     98          1           0        4.143460    8.030469    2.345347
     99          6           0        2.488202    6.957752    3.202289
    100          8           0        1.681414    6.054341    3.224786
    101          8           0        2.683312    7.794249    4.242370
    102          1           0        2.037348    7.545260    4.931677
 ---------------------------------------------------------------------

 SCF Done:  E(RB3LYP) =  -2989.28353521     A.U. after    3 cycles

 Alpha  occ. eigenvalues --  -19.30063 -19.24382 -19.24127 -19.23471 -19.23051
 Alpha  occ. eigenvalues --  -19.22883 -19.22857 -19.22743 -19.22699 -19.20932
 Alpha  occ. eigenvalues --  -19.20843 -19.20624 -19.20345 -19.19109 -19.17782
 Alpha  occ. eigenvalues --  -14.54138 -14.47835 -14.47569 -14.47364 -14.46176
 Alpha  occ. eigenvalues --  -14.46021 -14.45906 -14.45879 -14.45110 -14.44870
 Alpha  occ. eigenvalues --  -14.44869 -14.43814 -14.43304 -14.41735 -10.42578
 Alpha  occ. eigenvalues --  -10.41094 -10.40093 -10.39889 -10.39748 -10.39656
 Alpha  occ. eigenvalues --  -10.39563 -10.39403 -10.37995 -10.37684 -10.37577
 Alpha  occ. eigenvalues --  -10.37013 -10.36358 -10.35582 -10.34815 -10.33759
 Alpha  occ. eigenvalues --  -10.33564 -10.33189 -10.33116 -10.32899 -10.32692
 Alpha  occ. eigenvalues --  -10.32653 -10.32370 -10.31330 -10.31315 -10.30174
 Alpha  occ. eigenvalues --  -10.29810 -10.29242  -1.20936  -1.15908  -1.15584
 Alpha  occ. eigenvalues --   -1.15212  -1.14746  -1.14373  -1.14070  -1.13804
 Alpha  occ. eigenvalues --   -1.13124  -1.12579  -1.12469  -1.11895  -1.11465
 Alpha  occ. eigenvalues --   -1.10984  -1.09477  -1.09300  -1.04345  -1.03924
 Alpha  occ. eigenvalues --   -1.03468  -1.03289  -1.02818  -1.02478  -1.01575
 Alpha  occ. eigenvalues --   -1.01535  -1.01134  -1.00965  -1.00220  -0.99811
 Alpha  occ. eigenvalues --   -0.98437  -0.87700  -0.87314  -0.86759  -0.85864
 Alpha  occ. eigenvalues --   -0.84855  -0.84116  -0.83324  -0.82477  -0.81359
 Alpha  occ. eigenvalues --   -0.80511  -0.79518  -0.79005  -0.77578  -0.75496
 Alpha  occ. eigenvalues --   -0.73202  -0.71763  -0.70807  -0.70234  -0.69898
 Alpha  occ. eigenvalues --   -0.69520  -0.68942  -0.68602  -0.68328  -0.67811
 Alpha  occ. eigenvalues --   -0.67592  -0.67463  -0.67158  -0.66354  -0.65494
 Alpha  occ. eigenvalues --   -0.64981  -0.64572  -0.64341  -0.63995  -0.63645
 Alpha  occ. eigenvalues --   -0.62994  -0.62370  -0.62010  -0.61673  -0.60596
 Alpha  occ. eigenvalues --   -0.60253  -0.60085  -0.60049  -0.59560  -0.59474
 Alpha  occ. eigenvalues --   -0.58966  -0.58280  -0.58028  -0.57932  -0.57628
 Alpha  occ. eigenvalues --   -0.57229  -0.57063  -0.56512  -0.56163  -0.56063
 Alpha  occ. eigenvalues --   -0.55688  -0.55544  -0.55388  -0.54906  -0.54855
 Alpha  occ. eigenvalues --   -0.54597  -0.54320  -0.54061  -0.53651  -0.53600
 Alpha  occ. eigenvalues --   -0.53115  -0.52876  -0.52731  -0.52575  -0.52119
 Alpha  occ. eigenvalues --   -0.51704  -0.51534  -0.51293  -0.50882  -0.50779
 Alpha  occ. eigenvalues --   -0.50564  -0.50492  -0.50360  -0.50102  -0.49971
 Alpha  occ. eigenvalues --   -0.49671  -0.49460  -0.49171  -0.48808  -0.48611
 Alpha  occ. eigenvalues --   -0.48478  -0.48034  -0.47737  -0.47578  -0.47237
 Alpha  occ. eigenvalues --   -0.47100  -0.46997  -0.46684  -0.46387  -0.46257
 Alpha  occ. eigenvalues --   -0.46016  -0.45780  -0.45638  -0.45011  -0.44054
 Alpha  occ. eigenvalues --   -0.43543  -0.42969  -0.42067  -0.39754  -0.39269
 Alpha  occ. eigenvalues --   -0.38974  -0.38775  -0.38700  -0.38073  -0.37963
 Alpha  occ. eigenvalues --   -0.37843  -0.36938  -0.36636  -0.36412  -0.36389
 Alpha  occ. eigenvalues --   -0.35884  -0.35637  -0.35595  -0.35550  -0.35102
 Alpha  occ. eigenvalues --   -0.34891  -0.34746  -0.34460  -0.34353  -0.34140
 Alpha  occ. eigenvalues --   -0.33456  -0.33018  -0.32361  -0.31822  -0.30367
 Alpha virt. eigenvalues --   -0.10726  -0.10212  -0.09803  -0.09622  -0.09015
 Alpha virt. eigenvalues --   -0.08564  -0.08208  -0.07930  -0.07819  -0.07291
 Alpha virt. eigenvalues --   -0.06666  -0.06208  -0.05905  -0.04250  -0.03146

 Mulliken charges:
               1
     1  N   -0.758941
     2  H    0.398313
     3  H    0.421832
     4  H    0.445408
     5  C   -0.295035
     6  H    0.225435
     7  H    0.247535
     8  C    0.622843
     9  O   -0.550182
    10  N   -0.604253
    11  H    0.414168
    12  C   -0.249042
    13  H    0.207037
    14  H    0.205487
    15  C    0.609631
    16  O   -0.513590
    17  N   -0.605575
    18  H    0.384830
    19  C   -0.239650
    20  H    0.188520
    21  H    0.193014
    22  C    0.603164
    23  O   -0.530208
    24  N   -0.561635
    25  H    0.383129
    26  C   -0.223097
    27  H    0.181592
    28  H    0.196084
    29  C    0.637873
    30  O   -0.578657
    31  N   -0.565039
    32  H    0.355704
    33  C   -0.243312
    34  H    0.228870
    35  H    0.183794
    36  C    0.592583
    37  O   -0.545064
    38  N   -0.596893
    39  H    0.388459
    40  C   -0.245635
    41  H    0.185389
    42  H    0.199241
    43  C    0.592503
    44  O   -0.503799
    45  N   -0.577119
    46  H    0.367917
    47  C   -0.254279
    48  H    0.221444
    49  H    0.175467
    50  C    0.612653
    51  O   -0.518461
    52  N   -0.565352
    53  H    0.350723
    54  C   -0.250846
    55  H    0.201046
    56  H    0.203301
    57  C    0.623104
    58  O   -0.531783
    59  N   -0.583508
    60  H    0.347342
    61  C   -0.241475
    62  H    0.212685
    63  H    0.193740
    64  C    0.608082
    65  O   -0.553521
    66  N   -0.565160
    67  H    0.391248
    68  C   -0.225712
    69  H    0.212400
    70  H    0.180964
    71  C    0.598064
    72  O   -0.523404
    73  N   -0.588397
    74  H    0.354082
    75  C   -0.238609
    76  H    0.196073
    77  H    0.229767
    78  C    0.637907
    79  O   -0.577759
    80  N   -0.626963
    81  H    0.421468
    82  C   -0.234216
    83  H    0.199316
    84  H    0.203322
    85  C    0.603571
    86  O   -0.558963
    87  N   -0.607028
    88  H    0.414026
    89  C   -0.295369
    90  H    0.247884
    91  H    0.207254
    92  C    0.630241
    93  O   -0.595751
    94  N   -0.616615
    95  H    0.444812
    96  C   -0.290024
    97  H    0.255941
    98  H    0.180634
    99  C    0.617662
   100  O   -0.461818
   101  O   -0.570046
   102  H    0.425211
 Sum of Mulliken charges =   1.00000

 Dipole moment (field-independent basis, Debye):
    X=             27.4826    Y=             20.7181    Z=             13.3808  Tot=             36.9267
 Quadrupole moment (field-independent basis, Debye-Ang):
   XX=           -147.7106   YY=           -147.0522   ZZ=           -227.8820
   XY=            112.7011   XZ=             92.9365   YZ=             58.8296

 Normal termination of Gaussian 16 at Thu Aug 11 11:22:24 2022.
