 Gaussian 16, Revision C.01,
 Gaussian 16:  ES64L-G16RevC.01  3-Jul-2019

 ----------------------------------------------------------------------
 # B3LYP/6-31G* empiricaldispersion=gd3bj guess=read geom=check nosymm
 integral(ultrafinegrid)
 ----------------------------------------------------------------------

 ------------------------------------------------------
 Candidate Structure: Conf:205 Charge calc in gas phase
 ------------------------------------------------------
 Structure from the checkpoint file:  "conf-205.chk"
 Charge =  1 Multiplicity = 1

                          Input orientation:
 ---------------------------------------------------------------------
 Center     Atomic      Atomic             Coordinates (Angstroms)
 Number     Number       Type             X           Y           Z
 ---------------------------------------------------------------------
      1          7           0        1.829254    4.770398   -7.586032
      2          1           0        2.628883    4.236534   -7.933687
      3          1           0        1.521018    4.451494   -6.579074
      4          1           0        2.060662    5.768931   -7.526654
      5          6           0        0.610202    4.614330   -8.434140
      6          1           0        0.832190    4.905193   -9.464550
      7          1           0        0.307048    3.567022   -8.397635
      8          6           0       -0.418712    5.555957   -7.792092
      9          8           0        0.010991    6.557028   -7.212579
     10          7           0       -1.713846    5.214551   -7.886483
     11          1           0       -1.928645    4.360601   -8.385846
     12          6           0       -2.761480    5.663962   -6.954640
     13          1           0       -2.467545    5.376221   -5.937561
     14          1           0       -3.668455    5.112700   -7.202057
     15          6           0       -3.177994    7.133156   -6.837615
     16          8           0       -4.230609    7.349371   -6.240424
     17          7           0       -2.349907    8.108242   -7.286382
     18          1           0       -1.388735    7.834695   -7.471727
     19          6           0       -2.535300    9.473436   -6.783205
     20          1           0       -2.007503   10.172797   -7.430555
     21          1           0       -3.601761    9.701518   -6.774788
     22          6           0       -1.910115    9.513112   -5.385197
     23          8           0       -0.737326    9.885430   -5.236289
     24          7           0       -2.667209    8.963627   -4.412208
     25          1           0       -3.552833    8.560254   -4.708986
     26          6           0       -2.130357    8.535596   -3.125620
     27          1           0       -1.412096    9.270094   -2.757310
     28          1           0       -2.940535    8.459105   -2.401720
     29          6           0       -1.437986    7.166784   -3.192450
     30          8           0       -1.720890    6.260356   -2.401509
     31          7           0       -0.522765    7.021775   -4.186749
     32          1           0       -0.210102    7.876003   -4.639251
     33          6           0        0.506120    5.982858   -4.157862
     34          1           0        1.296570    6.306649   -4.828252
     35          1           0        0.936494    5.885600   -3.156920
     36          6           0        0.043228    4.596857   -4.578252
     37          8           0        0.600426    3.941514   -5.498128
     38          7           0       -0.959859    4.068593   -3.880559
     39          1           0       -1.355516    4.658956   -3.137713
     40          6           0       -1.462654    2.733234   -4.153139
     41          1           0       -2.351338    2.577239   -3.535894
     42          1           0       -1.754660    2.641038   -5.201912
     43          6           0       -0.474479    1.587476   -3.890307
     44          8           0       -0.588579    0.546235   -4.523886
     45          7           0        0.448693    1.791360   -2.917898
     46          1           0        0.515565    2.666108   -2.408573
     47          6           0        1.365715    0.740647   -2.557630
     48          1           0        0.971939   -0.196471   -2.960906
     49          1           0        2.349989    0.897727   -3.024986
     50          6           0        1.561742    0.649160   -1.042299
     51          8           0        1.110801    1.485470   -0.262819
     52          7           0        2.305037   -0.416759   -0.666151
     53          1           0        2.734238   -1.019343   -1.361793
     54          6           0        2.805562   -0.621716    0.673389
     55          1           0        2.104018   -1.211902    1.278999
     56          1           0        2.954306    0.342242    1.165393
     57          6           0        4.137018   -1.365426    0.557489
     58          8           0        4.550311   -1.762070   -0.535016
     59          7           0        4.813817   -1.572652    1.708650
     60          1           0        4.422177   -1.234286    2.576741
     61          6           0        6.006107   -2.414405    1.741851
     62          1           0        6.292898   -2.552444    2.787567
     63          1           0        5.788835   -3.396482    1.314973
     64          6           0        7.216744   -1.877380    0.964024
     65          8           0        8.068917   -2.653504    0.560613
     66          7           0        7.271337   -0.526146    0.805992
     67          1           0        6.462627    0.032312    1.058686
     68          6           0        8.225117    0.090409   -0.102643
     69          1           0        8.925438    0.746787    0.420168
     70          1           0        8.789718   -0.717977   -0.578257
     71          6           0        7.478855    0.944707   -1.126174
     72          8           0        7.792475    2.097831   -1.382073
     73          7           0        6.382119    0.335459   -1.698009
     74          1           0        6.076519   -0.542116   -1.286796
     75          6           0        5.306817    1.207484   -2.087730
     76          1           0        4.533344    0.618792   -2.590686
     77          1           0        5.676833    1.964566   -2.784131
     78          6           0        4.696832    1.901071   -0.854074
     79          8           0        4.945591    1.545658    0.299200
     80          7           0        3.859203    2.931111   -1.111608
     81          1           0        3.585684    3.174206   -2.055090
     82          6           0        3.192392    3.630503   -0.038972
     83          1           0        2.688908    2.911416    0.616773
     84          1           0        3.914552    4.194849    0.564608
     85          6           0        2.128269    4.545271   -0.615310
     86          8           0        1.694356    4.403966   -1.762512
     87          7           0        1.699739    5.523646    0.221734
     88          1           0        2.075830    5.537878    1.161038
     89          6           0        0.529480    6.342101   -0.057709
     90          1           0       -0.045341    6.482192    0.861347
     91          1           0       -0.116702    5.820658   -0.767420
     92          6           0        0.790359    7.728051   -0.644542
     93          8           0       -0.155321    8.476116   -0.873442
     94          7           0        2.072438    8.089658   -0.900496
     95          1           0        2.808723    7.402996   -0.833791
     96          6           0        2.316463    9.371314   -1.542789
     97          1           0        3.396115    9.518266   -1.627724
     98          1           0        1.890809   10.176153   -0.941464
     99          6           0        1.696674    9.395530   -2.941553
    100          8           0        1.854598    8.491307   -3.743336
    101          8           0        0.973205   10.486738   -3.165014
    102          1           0        0.480031   10.373274   -4.017166
 ---------------------------------------------------------------------

 SCF Done:  E(RB3LYP) =  -2989.23228026     A.U. after    1 cycles

 Alpha  occ. eigenvalues --  -19.28111 -19.26506 -19.25845 -19.23665 -19.23130
 Alpha  occ. eigenvalues --  -19.22816 -19.22756 -19.21975 -19.21077 -19.20637
 Alpha  occ. eigenvalues --  -19.20633 -19.20094 -19.19225 -19.17394 -19.16617
 Alpha  occ. eigenvalues --  -14.58114 -14.52036 -14.47909 -14.47476 -14.46988
 Alpha  occ. eigenvalues --  -14.46523 -14.46112 -14.45936 -14.45371 -14.45308
 Alpha  occ. eigenvalues --  -14.44298 -14.43989 -14.41433 -14.41062 -10.45474
 Alpha  occ. eigenvalues --  -10.41345 -10.40738 -10.40610 -10.40549 -10.40323
 Alpha  occ. eigenvalues --  -10.39808 -10.39355 -10.38106 -10.38101 -10.37422
 Alpha  occ. eigenvalues --  -10.37399 -10.37099 -10.36131 -10.34341 -10.34253
 Alpha  occ. eigenvalues --  -10.33008 -10.32863 -10.32785 -10.32523 -10.32381
 Alpha  occ. eigenvalues --  -10.32080 -10.31912 -10.31300 -10.31167 -10.30521
 Alpha  occ. eigenvalues --  -10.30055 -10.27677  -1.20456  -1.18210  -1.16698
 Alpha  occ. eigenvalues --   -1.15380  -1.15333  -1.14449  -1.13976  -1.13192
 Alpha  occ. eigenvalues --   -1.12889  -1.12846  -1.12445  -1.11987  -1.11232
 Alpha  occ. eigenvalues --   -1.09341  -1.09296  -1.08670  -1.07999  -1.04330
 Alpha  occ. eigenvalues --   -1.04039  -1.03711  -1.03018  -1.01921  -1.01594
 Alpha  occ. eigenvalues --   -1.01488  -1.01427  -1.00790  -1.00226  -0.98865
 Alpha  occ. eigenvalues --   -0.97041  -0.90734  -0.87388  -0.86712  -0.86216
 Alpha  occ. eigenvalues --   -0.85039  -0.84068  -0.83593  -0.82340  -0.81398
 Alpha  occ. eigenvalues --   -0.80753  -0.79594  -0.78759  -0.77125  -0.75299
 Alpha  occ. eigenvalues --   -0.74594  -0.74034  -0.73177  -0.71248  -0.70438
 Alpha  occ. eigenvalues --   -0.70061  -0.69465  -0.68668  -0.68576  -0.68350
 Alpha  occ. eigenvalues --   -0.68134  -0.67244  -0.67189  -0.67096  -0.66627
 Alpha  occ. eigenvalues --   -0.65129  -0.64834  -0.64235  -0.63907  -0.63542
 Alpha  occ. eigenvalues --   -0.63465  -0.63125  -0.62945  -0.61882  -0.61786
 Alpha  occ. eigenvalues --   -0.61396  -0.60477  -0.60221  -0.59516  -0.59218
 Alpha  occ. eigenvalues --   -0.59097  -0.58498  -0.58212  -0.57911  -0.57438
 Alpha  occ. eigenvalues --   -0.57315  -0.56969  -0.56813  -0.56558  -0.56186
 Alpha  occ. eigenvalues --   -0.55884  -0.55693  -0.55331  -0.55029  -0.54761
 Alpha  occ. eigenvalues --   -0.54701  -0.54285  -0.53939  -0.53650  -0.53151
 Alpha  occ. eigenvalues --   -0.53069  -0.52853  -0.52546  -0.52296  -0.51986
 Alpha  occ. eigenvalues --   -0.51956  -0.51778  -0.51551  -0.51424  -0.50955
 Alpha  occ. eigenvalues --   -0.50714  -0.50566  -0.50298  -0.50068  -0.49725
 Alpha  occ. eigenvalues --   -0.49644  -0.49417  -0.49187  -0.48818  -0.48572
 Alpha  occ. eigenvalues --   -0.48338  -0.48161  -0.48082  -0.47740  -0.47505
 Alpha  occ. eigenvalues --   -0.47128  -0.46518  -0.46350  -0.45917  -0.45506
 Alpha  occ. eigenvalues --   -0.45479  -0.44702  -0.44539  -0.44098  -0.43462
 Alpha  occ. eigenvalues --   -0.42613  -0.42482  -0.41823  -0.41241  -0.40637
 Alpha  occ. eigenvalues --   -0.39584  -0.39218  -0.38750  -0.38674  -0.38618
 Alpha  occ. eigenvalues --   -0.38015  -0.36982  -0.36679  -0.36103  -0.36002
 Alpha  occ. eigenvalues --   -0.35526  -0.35307  -0.34998  -0.34792  -0.34634
 Alpha  occ. eigenvalues --   -0.34546  -0.34371  -0.33881  -0.33703  -0.33140
 Alpha  occ. eigenvalues --   -0.32921  -0.32746  -0.31210  -0.30358  -0.29929
 Alpha virt. eigenvalues --   -0.14732  -0.11042  -0.10765  -0.09419  -0.09165
 Alpha virt. eigenvalues --   -0.08963  -0.08006  -0.07274  -0.07167  -0.06833
 Alpha virt. eigenvalues --   -0.06525  -0.06362  -0.06021  -0.05401  -0.04426

 Mulliken charges:
               1
     1  N   -0.755712
     2  H    0.405477
     3  H    0.458764
     4  H    0.413194
     5  C   -0.272594
     6  H    0.240971
     7  H    0.232827
     8  C    0.644984
     9  O   -0.537980
    10  N   -0.588438
    11  H    0.362876
    12  C   -0.247630
    13  H    0.219495
    14  H    0.216498
    15  C    0.606128
    16  O   -0.513396
    17  N   -0.590193
    18  H    0.379712
    19  C   -0.239150
    20  H    0.200305
    21  H    0.212962
    22  C    0.589402
    23  O   -0.552213
    24  N   -0.564270
    25  H    0.382709
    26  C   -0.259124
    27  H    0.240022
    28  H    0.206723
    29  C    0.616858
    30  O   -0.542581
    31  N   -0.604331
    32  H    0.386083
    33  C   -0.234296
    34  H    0.171533
    35  H    0.236219
    36  C    0.629204
    37  O   -0.618428
    38  N   -0.596145
    39  H    0.407743
    40  C   -0.227824
    41  H    0.205093
    42  H    0.175900
    43  C    0.610154
    44  O   -0.514541
    45  N   -0.606719
    46  H    0.376759
    47  C   -0.236667
    48  H    0.220583
    49  H    0.163545
    50  C    0.613779
    51  O   -0.541122
    52  N   -0.605474
    53  H    0.358475
    54  C   -0.209336
    55  H    0.190608
    56  H    0.211368
    57  C    0.623008
    58  O   -0.539914
    59  N   -0.611633
    60  H    0.347551
    61  C   -0.228255
    62  H    0.191360
    63  H    0.212029
    64  C    0.600042
    65  O   -0.500208
    66  N   -0.617739
    67  H    0.367554
    68  C   -0.217927
    69  H    0.186819
    70  H    0.216508
    71  C    0.567421
    72  O   -0.510128
    73  N   -0.576111
    74  H    0.381852
    75  C   -0.259252
    76  H    0.172660
    77  H    0.193311
    78  C    0.644198
    79  O   -0.550650
    80  N   -0.616276
    81  H    0.343949
    82  C   -0.192282
    83  H    0.236453
    84  H    0.181712
    85  C    0.605980
    86  O   -0.544950
    87  N   -0.609769
    88  H    0.354899
    89  C   -0.252530
    90  H    0.206839
    91  H    0.235438
    92  C    0.615928
    93  O   -0.522270
    94  N   -0.578688
    95  H    0.343927
    96  C   -0.211587
    97  H    0.190366
    98  H    0.214228
    99  C    0.592358
   100  O   -0.500906
   101  O   -0.572003
   102  H    0.457901
 Sum of Mulliken charges =   1.00000

 Dipole moment (field-independent basis, Debye):
    X=              2.0091    Y=             25.3655    Z=            -24.1445  Tot=             35.0771
 Quadrupole moment (field-independent basis, Debye-Ang):
   XX=           -349.0106   YY=           -185.3351   ZZ=            -69.5246
   XY=             24.8167   XZ=              7.6364   YZ=           -150.8981

 Normal termination of Gaussian 16 at Thu Aug 11 11:44:13 2022.
