 Gaussian 16, Revision C.01,
 Gaussian 16:  ES64L-G16RevC.01  3-Jul-2019

 ----------------------------------------------------------------------
 # B3LYP/6-31G* empiricaldispersion=gd3bj guess=read geom=check nosymm
 integral(ultrafinegrid)
 ----------------------------------------------------------------------

 ------------------------------------------------------
 Candidate Structure: Conf:702 Charge calc in gas phase
 ------------------------------------------------------
 Structure from the checkpoint file:  "conf-702.chk"
 Charge =  1 Multiplicity = 1

                          Input orientation:
 ---------------------------------------------------------------------
 Center     Atomic      Atomic             Coordinates (Angstroms)
 Number     Number       Type             X           Y           Z
 ---------------------------------------------------------------------
      1          7           0       -5.812396    5.992756   -0.749494
      2          1           0       -6.283521    5.913329   -1.653707
      3          1           0       -5.958772    6.939166   -0.388689
      4          1           0       -6.201655    5.282037   -0.045859
      5          6           0       -4.362946    5.588450   -0.784562
      6          1           0       -4.145934    5.151938   -1.760405
      7          1           0       -3.711270    6.448627   -0.638938
      8          6           0       -4.252470    4.555933    0.365217
      9          8           0       -5.321642    4.205501    0.890823
     10          7           0       -3.035264    4.143955    0.707809
     11          1           0       -2.229128    4.591202    0.250523
     12          6           0       -2.824892    3.340189    1.909879
     13          1           0       -3.803612    3.100069    2.330705
     14          1           0       -2.279181    3.933092    2.649036
     15          6           0       -2.042639    2.037802    1.749934
     16          8           0       -1.564513    1.533354    2.766444
     17          7           0       -1.932650    1.493206    0.518716
     18          1           0       -2.105790    2.059053   -0.307174
     19          6           0       -1.097611    0.310439    0.304986
     20          1           0       -1.237573   -0.361378    1.155782
     21          1           0       -1.413793   -0.188198   -0.610360
     22          6           0        0.386214    0.684013    0.149715
     23          8           0        1.035099    0.403623   -0.856683
     24          7           0        0.876042    1.402488    1.189705
     25          1           0        0.278427    1.517917    2.003783
     26          6           0        2.129291    2.119201    1.128635
     27          1           0        2.585074    2.161186    2.120615
     28          1           0        2.825772    1.589110    0.471651
     29          6           0        2.024744    3.562430    0.631729
     30          8           0        2.936811    4.353418    0.832004
     31          7           0        0.883863    3.936999   -0.051050
     32          1           0        0.353873    3.217736   -0.536761
     33          6           0        0.986958    5.225285   -0.718283
     34          1           0        1.154121    5.996942    0.041897
     35          1           0        1.856822    5.259232   -1.380052
     36          6           0       -0.255476    5.616068   -1.489366
     37          8           0       -1.398629    5.652430   -0.980034
     38          7           0       -0.025616    6.004833   -2.756729
     39          1           0        0.825951    5.650534   -3.200351
     40          6           0       -1.076856    6.495698   -3.643712
     41          1           0       -1.787285    7.074961   -3.048683
     42          1           0       -0.630237    7.131844   -4.407479
     43          6           0       -1.751911    5.303445   -4.329444
     44          8           0       -1.566166    5.012335   -5.495500
     45          7           0       -2.519894    4.536132   -3.459153
     46          1           0       -2.294547    4.733452   -2.483528
     47          6           0       -2.550221    3.095829   -3.736441
     48          1           0       -3.390530    2.630254   -3.216238
     49          1           0       -2.660819    2.949970   -4.810559
     50          6           0       -1.244343    2.554704   -3.167927
     51          8           0       -1.091780    2.537995   -1.932828
     52          7           0       -0.276331    2.240801   -4.037286
     53          1           0       -0.415244    2.475148   -5.011780
     54          6           0        1.050070    1.857253   -3.588147
     55          1           0        1.554799    1.288823   -4.374611
     56          1           0        0.952333    1.212504   -2.712536
     57          6           0        1.941552    3.056683   -3.281520
     58          8           0        1.804853    4.147059   -3.872493
     59          7           0        2.902364    2.823689   -2.376662
     60          1           0        3.034023    1.889159   -1.979889
     61          6           0        4.066535    3.695396   -2.233752
     62          1           0        3.756111    4.739528   -2.293281
     63          1           0        4.523204    3.499862   -1.267305
     64          6           0        5.034136    3.327886   -3.356837
     65          8           0        5.933812    2.509065   -3.210953
     66          7           0        4.767039    3.936677   -4.557851
     67          1           0        3.866490    4.405909   -4.612098
     68          6           0        5.219214    3.301867   -5.795769
     69          1           0        4.623995    2.412234   -6.014075
     70          1           0        5.106756    4.023384   -6.611565
     71          6           0        6.677317    2.867200   -5.726026
     72          8           0        7.027941    1.740703   -6.106953
     73          7           0        7.559859    3.802709   -5.317125
     74          1           0        7.181012    4.609409   -4.838011
     75          6           0        8.941793    3.436196   -5.041850
     76          1           0        9.506984    4.349844   -4.852927
     77          1           0        9.350417    2.942112   -5.925785
     78          6           0        9.081681    2.546168   -3.795783
     79          8           0        9.144197    3.026233   -2.663981
     80          7           0        9.176310    1.218481   -4.050954
     81          1           0        8.843682    0.889002   -4.949252
     82          6           0        9.508136    0.254363   -3.013200
     83          1           0        9.927205   -0.635227   -3.483922
     84          1           0       10.265599    0.711202   -2.368440
     85          6           0        8.333069   -0.214494   -2.148953
     86          8           0        8.002033   -1.404531   -2.117320
     87          7           0        7.730464    0.742416   -1.409581
     88          1           0        7.981052    1.713351   -1.586831
     89          6           0        6.644226    0.425570   -0.493473
     90          1           0        6.530642    1.244862    0.216054
     91          1           0        6.905592   -0.489383    0.048907
     92          6           0        5.298394    0.234625   -1.201532
     93          8           0        4.337298    0.980957   -0.976299
     94          7           0        5.259586   -0.799131   -2.067611
     95          1           0        6.144088   -1.288709   -2.226171
     96          6           0        4.216451   -0.906206   -3.067160
     97          1           0        3.261854   -0.598598   -2.640085
     98          1           0        4.138663   -1.949690   -3.388954
     99          6           0        4.533283   -0.036834   -4.284863
    100          8           0        3.725246    0.716608   -4.807109
    101          8           0        5.784691   -0.208877   -4.688959
    102          1           0        6.049991    0.466025   -5.370409
 ---------------------------------------------------------------------

 SCF Done:  E(RB3LYP) =  -2989.25596414     A.U. after    1 cycles

 Alpha  occ. eigenvalues --  -19.27656 -19.25142 -19.24651 -19.23639 -19.23428
 Alpha  occ. eigenvalues --  -19.21650 -19.20767 -19.20765 -19.20732 -19.20342
 Alpha  occ. eigenvalues --  -19.19678 -19.19368 -19.18959 -19.18473 -19.17803
 Alpha  occ. eigenvalues --  -14.60950 -14.49746 -14.48183 -14.47557 -14.46829
 Alpha  occ. eigenvalues --  -14.45264 -14.44687 -14.44429 -14.44337 -14.44097
 Alpha  occ. eigenvalues --  -14.43348 -14.42851 -14.41934 -14.41807 -10.44400
 Alpha  occ. eigenvalues --  -10.41487 -10.40651 -10.40332 -10.40040 -10.38726
 Alpha  occ. eigenvalues --  -10.38495 -10.38326 -10.37694 -10.37065 -10.36710
 Alpha  occ. eigenvalues --  -10.36402 -10.35573 -10.35554 -10.34733 -10.34179
 Alpha  occ. eigenvalues --  -10.33875 -10.33651 -10.32271 -10.30919 -10.30711
 Alpha  occ. eigenvalues --  -10.30545 -10.30441 -10.30123 -10.29614 -10.29408
 Alpha  occ. eigenvalues --  -10.28955 -10.28883  -1.20136  -1.16450  -1.16387
 Alpha  occ. eigenvalues --   -1.15456  -1.14748  -1.14573  -1.13142  -1.13090
 Alpha  occ. eigenvalues --   -1.12602  -1.11643  -1.11623  -1.11067  -1.10577
 Alpha  occ. eigenvalues --   -1.10196  -1.09272  -1.07645  -1.06501  -1.04697
 Alpha  occ. eigenvalues --   -1.03649  -1.03115  -1.01577  -1.01517  -1.01131
 Alpha  occ. eigenvalues --   -1.00600  -0.99860  -0.99334  -0.99088  -0.98959
 Alpha  occ. eigenvalues --   -0.97707  -0.90552  -0.87868  -0.85623  -0.85116
 Alpha  occ. eigenvalues --   -0.84251  -0.83215  -0.82584  -0.81765  -0.80577
 Alpha  occ. eigenvalues --   -0.79798  -0.78606  -0.77484  -0.77114  -0.75487
 Alpha  occ. eigenvalues --   -0.75138  -0.74600  -0.72529  -0.70674  -0.70133
 Alpha  occ. eigenvalues --   -0.69132  -0.68807  -0.68449  -0.68107  -0.67191
 Alpha  occ. eigenvalues --   -0.67016  -0.66683  -0.66297  -0.66019  -0.65671
 Alpha  occ. eigenvalues --   -0.65244  -0.64604  -0.64109  -0.63568  -0.63498
 Alpha  occ. eigenvalues --   -0.62644  -0.62129  -0.61104  -0.60920  -0.60620
 Alpha  occ. eigenvalues --   -0.60375  -0.60253  -0.59742  -0.59698  -0.59071
 Alpha  occ. eigenvalues --   -0.58933  -0.58160  -0.57763  -0.57343  -0.57015
 Alpha  occ. eigenvalues --   -0.56881  -0.56388  -0.56048  -0.55577  -0.55502
 Alpha  occ. eigenvalues --   -0.55202  -0.54915  -0.54748  -0.54374  -0.54057
 Alpha  occ. eigenvalues --   -0.53754  -0.53588  -0.53365  -0.52906  -0.52818
 Alpha  occ. eigenvalues --   -0.52477  -0.52188  -0.52042  -0.51882  -0.51515
 Alpha  occ. eigenvalues --   -0.51080  -0.50763  -0.50608  -0.50414  -0.50169
 Alpha  occ. eigenvalues --   -0.49884  -0.49688  -0.49247  -0.48881  -0.48646
 Alpha  occ. eigenvalues --   -0.48482  -0.48278  -0.48108  -0.47961  -0.47753
 Alpha  occ. eigenvalues --   -0.47531  -0.47414  -0.47345  -0.46942  -0.46710
 Alpha  occ. eigenvalues --   -0.46293  -0.46210  -0.45985  -0.45517  -0.45202
 Alpha  occ. eigenvalues --   -0.44607  -0.44385  -0.44288  -0.43947  -0.43387
 Alpha  occ. eigenvalues --   -0.43054  -0.42654  -0.42213  -0.40347  -0.40115
 Alpha  occ. eigenvalues --   -0.39388  -0.38747  -0.38140  -0.37995  -0.37011
 Alpha  occ. eigenvalues --   -0.36687  -0.36461  -0.35977  -0.35936  -0.35550
 Alpha  occ. eigenvalues --   -0.35337  -0.35086  -0.34953  -0.34655  -0.34513
 Alpha  occ. eigenvalues --   -0.34468  -0.34216  -0.34014  -0.32595  -0.32359
 Alpha  occ. eigenvalues --   -0.31483  -0.31251  -0.31166  -0.30626  -0.30288
 Alpha virt. eigenvalues --   -0.13145  -0.12146  -0.11572  -0.10419  -0.09079
 Alpha virt. eigenvalues --   -0.08492  -0.08010  -0.07172  -0.06793  -0.06489
 Alpha virt. eigenvalues --   -0.06123  -0.05573  -0.05488  -0.04735  -0.04683

 Mulliken charges:
               1
     1  N   -0.754205
     2  H    0.419857
     3  H    0.419854
     4  H    0.438429
     5  C   -0.290341
     6  H    0.247931
     7  H    0.252592
     8  C    0.610293
     9  O   -0.526421
    10  N   -0.619562
    11  H    0.412067
    12  C   -0.237023
    13  H    0.236986
    14  H    0.211606
    15  C    0.598227
    16  O   -0.526687
    17  N   -0.591619
    18  H    0.362175
    19  C   -0.240380
    20  H    0.212974
    21  H    0.183031
    22  C    0.587368
    23  O   -0.522745
    24  N   -0.590860
    25  H    0.379279
    26  C   -0.281827
    27  H    0.195031
    28  H    0.263021
    29  C    0.610788
    30  O   -0.512172
    31  N   -0.655828
    32  H    0.391055
    33  C   -0.199945
    34  H    0.213258
    35  H    0.181004
    36  C    0.597859
    37  O   -0.597281
    38  N   -0.579016
    39  H    0.404927
    40  C   -0.238915
    41  H    0.178636
    42  H    0.209751
    43  C    0.576575
    44  O   -0.466008
    45  N   -0.623629
    46  H    0.367353
    47  C   -0.234505
    48  H    0.174159
    49  H    0.207043
    50  C    0.599038
    51  O   -0.565875
    52  N   -0.545017
    53  H    0.366264
    54  C   -0.319398
    55  H    0.236799
    56  H    0.261722
    57  C    0.637262
    58  O   -0.604353
    59  N   -0.607445
    60  H    0.418077
    61  C   -0.242832
    62  H    0.176812
    63  H    0.220430
    64  C    0.599950
    65  O   -0.511430
    66  N   -0.612092
    67  H    0.359982
    68  C   -0.234657
    69  H    0.219748
    70  H    0.186456
    71  C    0.632326
    72  O   -0.573515
    73  N   -0.544232
    74  H    0.351829
    75  C   -0.235732
    76  H    0.193049
    77  H    0.191405
    78  C    0.616308
    79  O   -0.532724
    80  N   -0.572646
    81  H    0.363970
    82  C   -0.236050
    83  H    0.191729
    84  H    0.200657
    85  C    0.606769
    86  O   -0.541160
    87  N   -0.571222
    88  H    0.387136
    89  C   -0.239563
    90  H    0.183608
    91  H    0.198824
    92  C    0.626443
    93  O   -0.556804
    94  N   -0.575026
    95  H    0.397594
    96  C   -0.243727
    97  H    0.205926
    98  H    0.195059
    99  C    0.613896
   100  O   -0.507546
   101  O   -0.579439
   102  H    0.459256
 Sum of Mulliken charges =   1.00000

 Dipole moment (field-independent basis, Debye):
    X=            -11.3858    Y=             26.0512    Z=            -11.7232  Tot=             30.7528
 Quadrupole moment (field-independent basis, Debye-Ang):
   XX=           -170.4739   YY=           -165.4822   ZZ=           -291.4289
   XY=            -86.0551   XZ=            -20.0249   YZ=            -50.1654

 Normal termination of Gaussian 16 at Thu Aug 11 11:44:11 2022.
