 Gaussian 16, Revision C.01,
 Gaussian 16:  ES64L-G16RevC.01  3-Jul-2019

 ----------------------------------------------------------------------
 # B3LYP/6-31G* empiricaldispersion=gd3bj guess=read geom=check nosymm
 integral(ultrafinegrid)
 ----------------------------------------------------------------------

 ------------------------------------------------------
 Candidate Structure: Conf:156 Charge calc in gas phase
 ------------------------------------------------------
 Structure from the checkpoint file:  "conf-156.chk"
 Charge =  1 Multiplicity = 1

                          Input orientation:
 ---------------------------------------------------------------------
 Center     Atomic      Atomic             Coordinates (Angstroms)
 Number     Number       Type             X           Y           Z
 ---------------------------------------------------------------------
      1          7           0        9.780109    0.231787   -2.334081
      2          1           0       10.419781   -0.476647   -1.970256
      3          1           0        8.859125   -0.219844   -2.523957
      4          1           0        9.631858    0.926903   -1.564468
      5          6           0       10.266771    0.843506   -3.601496
      6          1           0       11.279722    1.221739   -3.445382
      7          1           0       10.268946    0.071677   -4.371116
      8          6           0        9.330533    2.013441   -3.910251
      9          8           0        9.072691    2.812511   -3.015384
     10          7           0        8.882219    2.091002   -5.180738
     11          1           0        8.878537    1.237892   -5.733412
     12          6           0        7.777592    2.975928   -5.512635
     13          1           0        8.054463    3.649134   -6.332472
     14          1           0        7.536005    3.575225   -4.632538
     15          6           0        6.600419    2.098038   -5.949321
     16          8           0        6.787729    0.989718   -6.449577
     17          7           0        5.377043    2.625970   -5.735701
     18          1           0        5.267198    3.479745   -5.199045
     19          6           0        4.165917    1.852633   -5.934264
     20          1           0        3.751089    2.004201   -6.940036
     21          1           0        4.396835    0.787930   -5.833982
     22          6           0        3.146382    2.356590   -4.921688
     23          8           0        3.031355    3.556063   -4.694980
     24          7           0        2.380854    1.422750   -4.291600
     25          1           0        2.583511    0.431639   -4.363312
     26          6           0        1.296533    1.848848   -3.432242
     27          1           0        0.948109    2.822242   -3.792640
     28          1           0        0.465770    1.143742   -3.499783
     29          6           0        1.620594    2.000254   -1.947737
     30          8           0        0.743567    1.701416   -1.114483
     31          7           0        2.831486    2.457278   -1.588772
     32          1           0        3.528624    2.744711   -2.277224
     33          6           0        3.154439    2.702691   -0.183442
     34          1           0        4.058991    3.307800   -0.155596
     35          1           0        2.335980    3.255582    0.287743
     36          6           0        3.415060    1.381314    0.556498
     37          8           0        4.546208    0.907854    0.693883
     38          7           0        2.299443    0.756184    1.005426
     39          1           0        1.418391    1.181815    0.730380
     40          6           0        2.318270   -0.641817    1.386127
     41          1           0        3.309322   -0.887908    1.769088
     42          1           0        1.592739   -0.826006    2.184969
     43          6           0        2.016969   -1.612266    0.238035
     44          8           0        2.278380   -2.815119    0.349874
     45          7           0        1.440327   -1.092279   -0.866922
     46          1           0        1.146314   -0.117239   -0.894362
     47          6           0        1.041310   -1.941649   -1.973830
     48          1           0        0.375590   -2.737515   -1.622434
     49          1           0        0.493253   -1.325690   -2.689001
     50          6           0        2.264700   -2.527053   -2.689750
     51          8           0        2.987893   -1.825158   -3.409729
     52          7           0        2.460142   -3.841523   -2.450891
     53          1           0        1.853640   -4.267002   -1.761598
     54          6           0        3.603276   -4.605059   -2.897700
     55          1           0        4.131345   -4.024437   -3.651917
     56          1           0        3.277152   -5.529541   -3.385348
     57          6           0        4.593309   -5.013519   -1.801341
     58          8           0        5.551900   -5.747855   -2.094869
     59          7           0        4.371418   -4.574873   -0.554867
     60          1           0        3.614396   -3.921426   -0.352284
     61          6           0        5.193970   -5.007500    0.570452
     62          1           0        4.596528   -4.936870    1.479056
     63          1           0        5.483393   -6.049931    0.405226
     64          6           0        6.457193   -4.167759    0.796667
     65          8           0        6.717731   -3.687693    1.899375
     66          7           0        7.268991   -4.011188   -0.275769
     67          1           0        7.048744   -4.406521   -1.184916
     68          6           0        8.479822   -3.227671   -0.141925
     69          1           0        9.097987   -3.618242    0.672952
     70          1           0        9.023426   -3.304126   -1.083944
     71          6           0        8.138617   -1.753453    0.081387
     72          8           0        7.707596   -1.068410   -0.856920
     73          7           0        8.348869   -1.269141    1.319462
     74          1           0        8.423776   -1.968526    2.049552
     75          6           0        7.905178    0.054789    1.735931
     76          1           0        8.450143    0.315486    2.648008
     77          1           0        6.833657    0.037646    1.966921
     78          6           0        8.207488    1.125548    0.679579
     79          8           0        9.321050    1.221453    0.151807
     80          7           0        7.159565    1.939124    0.435505
     81          1           0        6.247456    1.647096    0.787385
     82          6           0        7.096360    2.886729   -0.662992
     83          1           0        6.667085    3.834828   -0.330072
     84          1           0        8.102167    3.074218   -1.042993
     85          6           0        6.230597    2.354907   -1.813114
     86          8           0        5.545743    3.111010   -2.515848
     87          7           0        6.284186    1.020962   -1.978190
     88          1           0        6.779546    0.439016   -1.307043
     89          6           0        5.548872    0.323001   -2.993873
     90          1           0        5.147305    1.072830   -3.674932
     91          1           0        4.703486   -0.231198   -2.569474
     92          6           0        6.457233   -0.616285   -3.783541
     93          8           0        7.677194   -0.445447   -3.862953
     94          7           0        5.813257   -1.609907   -4.427060
     95          1           0        4.831009   -1.774370   -4.210851
     96          6           0        6.557292   -2.624346   -5.158703
     97          1           0        7.485938   -2.169189   -5.504448
     98          1           0        5.973930   -2.971780   -6.012123
     99          6           0        6.861548   -3.774365   -4.198909
    100          8           0        7.525619   -3.639544   -3.188626
    101          8           0        6.224928   -4.898448   -4.540708
    102          1           0        6.211330   -5.495117   -3.743989
 ---------------------------------------------------------------------

 SCF Done:  E(RB3LYP) =  -2989.31341798     A.U. after    3 cycles

 Alpha  occ. eigenvalues --  -19.27616 -19.25209 -19.23550 -19.23458 -19.23244
 Alpha  occ. eigenvalues --  -19.23020 -19.23006 -19.22836 -19.22335 -19.22046
 Alpha  occ. eigenvalues --  -19.21774 -19.21693 -19.21127 -19.20676 -19.20381
 Alpha  occ. eigenvalues --  -14.53105 -14.49127 -14.47625 -14.47357 -14.47035
 Alpha  occ. eigenvalues --  -14.46977 -14.46787 -14.46764 -14.46350 -14.45808
 Alpha  occ. eigenvalues --  -14.45406 -14.45223 -14.44734 -14.44468 -10.41967
 Alpha  occ. eigenvalues --  -10.41163 -10.40609 -10.40353 -10.40211 -10.40208
 Alpha  occ. eigenvalues --  -10.39571 -10.39448 -10.39352 -10.39330 -10.39118
 Alpha  occ. eigenvalues --  -10.38225 -10.37879 -10.37499 -10.35423 -10.35070
 Alpha  occ. eigenvalues --  -10.34398 -10.33706 -10.33614 -10.33336 -10.32997
 Alpha  occ. eigenvalues --  -10.32518 -10.32414 -10.32223 -10.32136 -10.31985
 Alpha  occ. eigenvalues --  -10.31599 -10.31191  -1.19164  -1.16555  -1.15637
 Alpha  occ. eigenvalues --   -1.15005  -1.14964  -1.14679  -1.14638  -1.14501
 Alpha  occ. eigenvalues --   -1.14052  -1.14050  -1.13239  -1.12548  -1.12527
 Alpha  occ. eigenvalues --   -1.12101  -1.10226  -1.08275  -1.05731  -1.04763
 Alpha  occ. eigenvalues --   -1.03795  -1.03166  -1.03011  -1.02897  -1.02751
 Alpha  occ. eigenvalues --   -1.02647  -1.02355  -1.02308  -1.01601  -1.01001
 Alpha  occ. eigenvalues --   -1.00732  -0.88643  -0.87369  -0.87006  -0.86352
 Alpha  occ. eigenvalues --   -0.85775  -0.85316  -0.84110  -0.83143  -0.82055
 Alpha  occ. eigenvalues --   -0.81320  -0.80226  -0.79565  -0.78339  -0.77872
 Alpha  occ. eigenvalues --   -0.72762  -0.71521  -0.71264  -0.70465  -0.70193
 Alpha  occ. eigenvalues --   -0.69929  -0.69640  -0.69123  -0.68985  -0.68734
 Alpha  occ. eigenvalues --   -0.68220  -0.67987  -0.67709  -0.67459  -0.67315
 Alpha  occ. eigenvalues --   -0.66650  -0.66092  -0.65511  -0.65108  -0.63812
 Alpha  occ. eigenvalues --   -0.63553  -0.62970  -0.62506  -0.61794  -0.61445
 Alpha  occ. eigenvalues --   -0.60943  -0.60879  -0.60047  -0.59809  -0.59687
 Alpha  occ. eigenvalues --   -0.59574  -0.59058  -0.58954  -0.58117  -0.57877
 Alpha  occ. eigenvalues --   -0.57511  -0.57317  -0.57238  -0.56951  -0.56749
 Alpha  occ. eigenvalues --   -0.56365  -0.56288  -0.56079  -0.55644  -0.55518
 Alpha  occ. eigenvalues --   -0.55215  -0.54815  -0.54277  -0.54200  -0.53826
 Alpha  occ. eigenvalues --   -0.53789  -0.53511  -0.53305  -0.53047  -0.52919
 Alpha  occ. eigenvalues --   -0.52620  -0.52374  -0.52120  -0.51936  -0.51678
 Alpha  occ. eigenvalues --   -0.51428  -0.51276  -0.50881  -0.50858  -0.50627
 Alpha  occ. eigenvalues --   -0.50300  -0.49923  -0.49835  -0.49566  -0.49393
 Alpha  occ. eigenvalues --   -0.49154  -0.48832  -0.48621  -0.48490  -0.48437
 Alpha  occ. eigenvalues --   -0.48182  -0.47572  -0.47541  -0.47098  -0.47077
 Alpha  occ. eigenvalues --   -0.46984  -0.46783  -0.46409  -0.45967  -0.45234
 Alpha  occ. eigenvalues --   -0.44777  -0.44468  -0.41022  -0.40601  -0.40347
 Alpha  occ. eigenvalues --   -0.39752  -0.39511  -0.38574  -0.38454  -0.37926
 Alpha  occ. eigenvalues --   -0.37632  -0.37429  -0.37177  -0.36988  -0.36898
 Alpha  occ. eigenvalues --   -0.36729  -0.36692  -0.36487  -0.36010  -0.35808
 Alpha  occ. eigenvalues --   -0.35658  -0.35250  -0.35020  -0.34949  -0.34798
 Alpha  occ. eigenvalues --   -0.34554  -0.33996  -0.33624  -0.33603  -0.33369
 Alpha virt. eigenvalues --   -0.11259  -0.10384  -0.10132  -0.09849  -0.09343
 Alpha virt. eigenvalues --   -0.09264  -0.09038  -0.08928  -0.08549  -0.08107
 Alpha virt. eigenvalues --   -0.06846  -0.06766  -0.06398  -0.06099  -0.04028

 Mulliken charges:
               1
     1  N   -0.793152
     2  H    0.388706
     3  H    0.468924
     4  H    0.447336
     5  C   -0.248550
     6  H    0.223440
     7  H    0.205250
     8  C    0.628465
     9  O   -0.514549
    10  N   -0.569629
    11  H    0.361348
    12  C   -0.251593
    13  H    0.205044
    14  H    0.217703
    15  C    0.609546
    16  O   -0.532542
    17  N   -0.594403
    18  H    0.375370
    19  C   -0.208664
    20  H    0.209068
    21  H    0.179304
    22  C    0.583363
    23  O   -0.509784
    24  N   -0.606687
    25  H    0.356933
    26  C   -0.235096
    27  H    0.236162
    28  H    0.183955
    29  C    0.605810
    30  O   -0.565234
    31  N   -0.592743
    32  H    0.421175
    33  C   -0.240006
    34  H    0.196844
    35  H    0.202611
    36  C    0.601627
    37  O   -0.534898
    38  N   -0.583653
    39  H    0.374207
    40  C   -0.242509
    41  H    0.224394
    42  H    0.212200
    43  C    0.610060
    44  O   -0.551665
    45  N   -0.614546
    46  H    0.401130
    47  C   -0.236134
    48  H    0.188590
    49  H    0.192554
    50  C    0.615219
    51  O   -0.538061
    52  N   -0.570428
    53  H    0.359599
    54  C   -0.242903
    55  H    0.207962
    56  H    0.217381
    57  C    0.614801
    58  O   -0.565935
    59  N   -0.616234
    60  H    0.413149
    61  C   -0.245724
    62  H    0.201005
    63  H    0.212624
    64  C    0.599357
    65  O   -0.531358
    66  N   -0.595377
    67  H    0.397544
    68  C   -0.210314
    69  H    0.180188
    70  H    0.189549
    71  C    0.594601
    72  O   -0.555446
    73  N   -0.552740
    74  H    0.370216
    75  C   -0.226227
    76  H    0.204109
    77  H    0.196306
    78  C    0.606110
    79  O   -0.563707
    80  N   -0.602537
    81  H    0.390773
    82  C   -0.263881
    83  H    0.188060
    84  H    0.256027
    85  C    0.610323
    86  O   -0.579199
    87  N   -0.602709
    88  H    0.406522
    89  C   -0.270010
    90  H    0.207064
    91  H    0.186027
    92  C    0.680480
    93  O   -0.593393
    94  N   -0.630328
    95  H    0.390155
    96  C   -0.206061
    97  H    0.213848
    98  H    0.194161
    99  C    0.571159
   100  O   -0.469646
   101  O   -0.578082
   102  H    0.450896
 Sum of Mulliken charges =   1.00000

 Dipole moment (field-independent basis, Debye):
    X=             24.9931    Y=             -4.8047    Z=             -9.3552  Tot=             27.1156
 Quadrupole moment (field-independent basis, Debye-Ang):
   XX=           -108.9733   YY=           -299.4340   ZZ=           -272.6305
   XY=            -13.4904   XZ=            -55.6214   YZ=             10.9823

 Normal termination of Gaussian 16 at Thu Aug 11 11:45:41 2022.
