 Gaussian 16, Revision C.01,
 Gaussian 16:  ES64L-G16RevC.01  3-Jul-2019

 ----------------------------------------------------------------------
 # B3LYP/6-31G* empiricaldispersion=gd3bj guess=read geom=check nosymm
 integral(ultrafinegrid)
 ----------------------------------------------------------------------

 ------------------------------------------------------
 Candidate Structure: Conf:578 Charge calc in gas phase
 ------------------------------------------------------
 Structure from the checkpoint file:  "conf-578.chk"
 Charge =  1 Multiplicity = 1

                          Input orientation:
 ---------------------------------------------------------------------
 Center     Atomic      Atomic             Coordinates (Angstroms)
 Number     Number       Type             X           Y           Z
 ---------------------------------------------------------------------
      1          7           0       -1.550090    5.258496    3.859920
      2          1           0       -1.723632    4.321350    3.438333
      3          1           0       -0.540881    5.445384    3.925182
      4          1           0       -1.949165    5.937519    3.185887
      5          6           0       -2.278385    5.340672    5.155546
      6          1           0       -3.163411    4.708694    5.065198
      7          1           0       -1.630695    4.947042    5.941546
      8          6           0       -2.635946    6.796132    5.450252
      9          8           0       -1.826830    7.707486    5.232263
     10          7           0       -3.863625    6.997372    5.962699
     11          1           0       -4.527200    6.233343    5.931020
     12          6           0       -4.443882    8.340038    6.058826
     13          1           0       -3.660960    9.034421    6.366961
     14          1           0       -5.244012    8.328792    6.798428
     15          6           0       -5.028976    8.654687    4.675914
     16          8           0       -6.155593    8.308043    4.364595
     17          7           0       -4.140900    9.247082    3.812824
     18          1           0       -3.176725    9.286743    4.125891
     19          6           0       -4.356228    9.115989    2.390973
     20          1           0       -5.427325    8.941488    2.242451
     21          1           0       -4.078545   10.035087    1.864927
     22          6           0       -3.565180    7.920113    1.852641
     23          8           0       -3.278145    6.966277    2.596494
     24          7           0       -3.190999    7.949742    0.563526
     25          1           0       -3.472929    8.740351   -0.001191
     26          6           0       -2.180611    7.051212    0.007143
     27          1           0       -1.807638    7.495427   -0.915375
     28          1           0       -1.344530    6.978892    0.715861
     29          6           0       -2.548324    5.601562   -0.328006
     30          8           0       -1.930218    5.031073   -1.219638
     31          7           0       -3.481576    4.986750    0.450428
     32          1           0       -3.752712    5.450504    1.311761
     33          6           0       -3.570398    3.530268    0.429444
     34          1           0       -4.588592    3.221926    0.678247
     35          1           0       -3.316636    3.187214   -0.573141
     36          6           0       -2.622655    2.989547    1.495938
     37          8           0       -2.870070    3.205291    2.697356
     38          7           0       -1.505209    2.352295    1.092990
     39          1           0       -1.145708    2.561918    0.162072
     40          6           0       -0.492369    2.070972    2.106071
     41          1           0       -0.072599    3.005546    2.488089
     42          1           0       -0.976493    1.546939    2.936456
     43          6           0        0.707549    1.265827    1.628557
     44          8           0        1.825582    1.571626    2.024750
     45          7           0        0.505078    0.197813    0.813059
     46          1           0       -0.432115   -0.074417    0.551637
     47          6           0        1.666451   -0.558649    0.345203
     48          1           0        2.227074   -0.969668    1.186801
     49          1           0        1.308415   -1.379401   -0.282490
     50          6           0        2.645663    0.335082   -0.445708
     51          8           0        3.847516    0.311594   -0.258563
     52          7           0        2.021028    1.120784   -1.388615
     53          1           0        1.012562    1.152353   -1.288674
     54          6           0        2.554479    2.426173   -1.719896
     55          1           0        2.645577    2.570281   -2.804230
     56          1           0        3.547306    2.520223   -1.269283
     57          6           0        1.606873    3.473196   -1.128267
     58          8           0        0.543988    3.138140   -0.600631
     59          7           0        1.964659    4.779901   -1.170600
     60          1           0        2.867778    5.041305   -1.543313
     61          6           0        1.187464    5.723529   -0.372032
     62          1           0        1.549481    6.735272   -0.575626
     63          1           0        0.140706    5.644281   -0.661020
     64          6           0        1.306369    5.416234    1.139573
     65          8           0        0.340484    5.534815    1.914182
     66          7           0        2.544711    5.051325    1.483103
     67          1           0        3.192584    4.862368    0.720647
     68          6           0        2.997740    4.361997    2.669782
     69          1           0        3.510753    5.050634    3.346774
     70          1           0        2.166798    3.875342    3.182352
     71          6           0        4.002532    3.309562    2.166027
     72          8           0        4.317244    3.302338    0.964173
     73          7           0        4.512693    2.473377    3.076757
     74          1           0        4.420917    2.727382    4.058784
     75          6           0        5.575306    1.527073    2.724520
     76          1           0        5.373216    1.140998    1.722763
     77          1           0        5.578793    0.711869    3.447225
     78          6           0        6.889204    2.305743    2.834645
     79          8           0        7.623859    2.227605    3.814980
     80          7           0        7.068428    3.218065    1.830212
     81          1           0        6.293621    3.304181    1.175808
     82          6           0        7.787613    4.450931    2.135870
     83          1           0        8.770858    4.204744    2.540569
     84          1           0        7.906521    5.029848    1.219313
     85          6           0        6.949809    5.268034    3.129274
     86          8           0        6.037569    6.013376    2.774496
     87          7           0        7.258219    5.058281    4.441286
     88          1           0        7.752021    4.198362    4.663469
     89          6           0        6.466607    5.701750    5.462800
     90          1           0        6.438651    6.776881    5.263905
     91          1           0        6.958710    5.547941    6.428362
     92          6           0        5.044143    5.146757    5.580262
     93          8           0        4.793659    3.944583    5.497219
     94          7           0        4.087957    6.068813    5.858013
     95          1           0        4.275581    7.057723    5.744840
     96          6           0        2.708787    5.691327    6.047424
     97          1           0        2.476776    5.506002    7.106472
     98          1           0        2.507653    4.755796    5.520266
     99          6           0        1.794507    6.793540    5.559308
    100          8           0        2.153434    7.905960    5.256136
    101          8           0        0.505876    6.384167    5.550607
    102          1           0       -0.099472    7.150936    5.373844
 ---------------------------------------------------------------------

 SCF Done:  E(RB3LYP) =  -2989.24726738     A.U. after    3 cycles

 Alpha  occ. eigenvalues --  -19.29421 -19.26188 -19.26157 -19.24179 -19.24001
 Alpha  occ. eigenvalues --  -19.22557 -19.22375 -19.22294 -19.22231 -19.20821
 Alpha  occ. eigenvalues --  -19.20593 -19.20523 -19.18902 -19.18676 -19.18247
 Alpha  occ. eigenvalues --  -14.53873 -14.50235 -14.50160 -14.47270 -14.46801
 Alpha  occ. eigenvalues --  -14.46787 -14.46611 -14.45925 -14.45368 -14.44876
 Alpha  occ. eigenvalues --  -14.43449 -14.42792 -14.42748 -14.41758 -10.43363
 Alpha  occ. eigenvalues --  -10.42701 -10.42315 -10.40554 -10.39664 -10.39512
 Alpha  occ. eigenvalues --  -10.39201 -10.38972 -10.38410 -10.37756 -10.37616
 Alpha  occ. eigenvalues --  -10.37256 -10.36095 -10.35431 -10.34990 -10.34689
 Alpha  occ. eigenvalues --  -10.34626 -10.34345 -10.33340 -10.32979 -10.32806
 Alpha  occ. eigenvalues --  -10.32430 -10.31289 -10.31170 -10.31078 -10.30763
 Alpha  occ. eigenvalues --  -10.29064 -10.28826  -1.20380  -1.18121  -1.17603
 Alpha  occ. eigenvalues --   -1.15679  -1.14786  -1.14345  -1.14170  -1.13211
 Alpha  occ. eigenvalues --   -1.13169  -1.12696  -1.12106  -1.11763  -1.10606
 Alpha  occ. eigenvalues --   -1.10542  -1.09630  -1.09602  -1.06199  -1.05937
 Alpha  occ. eigenvalues --   -1.03788  -1.03397  -1.03351  -1.02821  -1.01747
 Alpha  occ. eigenvalues --   -1.01730  -1.01214  -1.00130  -0.99463  -0.99225
 Alpha  occ. eigenvalues --   -0.98221  -0.89301  -0.87812  -0.86241  -0.85785
 Alpha  occ. eigenvalues --   -0.85538  -0.84262  -0.83322  -0.82339  -0.81595
 Alpha  occ. eigenvalues --   -0.80770  -0.79792  -0.78644  -0.77225  -0.75760
 Alpha  occ. eigenvalues --   -0.73091  -0.72799  -0.71864  -0.70636  -0.69883
 Alpha  occ. eigenvalues --   -0.69621  -0.69207  -0.69083  -0.68979  -0.68612
 Alpha  occ. eigenvalues --   -0.68273  -0.67561  -0.66515  -0.66264  -0.65548
 Alpha  occ. eigenvalues --   -0.65378  -0.64989  -0.64445  -0.63889  -0.63476
 Alpha  occ. eigenvalues --   -0.62934  -0.62271  -0.61853  -0.61591  -0.61299
 Alpha  occ. eigenvalues --   -0.60514  -0.60056  -0.59814  -0.59470  -0.59027
 Alpha  occ. eigenvalues --   -0.58697  -0.58583  -0.58373  -0.57938  -0.57839
 Alpha  occ. eigenvalues --   -0.57630  -0.57236  -0.56855  -0.56691  -0.56525
 Alpha  occ. eigenvalues --   -0.56253  -0.55807  -0.55601  -0.55423  -0.55137
 Alpha  occ. eigenvalues --   -0.54703  -0.54470  -0.54300  -0.54072  -0.53853
 Alpha  occ. eigenvalues --   -0.53537  -0.53194  -0.52967  -0.52485  -0.52398
 Alpha  occ. eigenvalues --   -0.52162  -0.51799  -0.51697  -0.51203  -0.50905
 Alpha  occ. eigenvalues --   -0.50718  -0.50533  -0.50193  -0.50116  -0.50037
 Alpha  occ. eigenvalues --   -0.49806  -0.49645  -0.49383  -0.49048  -0.48449
 Alpha  occ. eigenvalues --   -0.48370  -0.48086  -0.47850  -0.47726  -0.47357
 Alpha  occ. eigenvalues --   -0.47103  -0.46998  -0.46834  -0.46098  -0.45723
 Alpha  occ. eigenvalues --   -0.45609  -0.45468  -0.44818  -0.44179  -0.43845
 Alpha  occ. eigenvalues --   -0.43621  -0.43232  -0.42218  -0.41287  -0.40545
 Alpha  occ. eigenvalues --   -0.40327  -0.40229  -0.39134  -0.38521  -0.38042
 Alpha  occ. eigenvalues --   -0.37815  -0.37025  -0.36876  -0.36467  -0.36121
 Alpha  occ. eigenvalues --   -0.35672  -0.35319  -0.35293  -0.35161  -0.35084
 Alpha  occ. eigenvalues --   -0.34915  -0.34684  -0.34573  -0.34243  -0.34118
 Alpha  occ. eigenvalues --   -0.33161  -0.32594  -0.31957  -0.31043  -0.30262
 Alpha virt. eigenvalues --   -0.12721  -0.12159  -0.11026  -0.09149  -0.08841
 Alpha virt. eigenvalues --   -0.08374  -0.08016  -0.07515  -0.07138  -0.06719
 Alpha virt. eigenvalues --   -0.06399  -0.05595  -0.05230  -0.04800  -0.04357

 Mulliken charges:
               1
     1  N   -0.800579
     2  H    0.439520
     3  H    0.416023
     4  H    0.432384
     5  C   -0.260027
     6  H    0.217497
     7  H    0.240147
     8  C    0.657798
     9  O   -0.556385
    10  N   -0.566877
    11  H    0.362627
    12  C   -0.248532
    13  H    0.209085
    14  H    0.211894
    15  C    0.589512
    16  O   -0.480887
    17  N   -0.559582
    18  H    0.357296
    19  C   -0.251590
    20  H    0.243006
    21  H    0.186584
    22  C    0.619202
    23  O   -0.572426
    24  N   -0.574210
    25  H    0.361792
    26  C   -0.269321
    27  H    0.200895
    28  H    0.223276
    29  C    0.610675
    30  O   -0.493835
    31  N   -0.592344
    32  H    0.363776
    33  C   -0.222961
    34  H    0.198932
    35  H    0.207371
    36  C    0.607766
    37  O   -0.576457
    38  N   -0.598398
    39  H    0.399219
    40  C   -0.240038
    41  H    0.187059
    42  H    0.200095
    43  C    0.622524
    44  O   -0.514461
    45  N   -0.607841
    46  H    0.342202
    47  C   -0.227149
    48  H    0.209233
    49  H    0.186077
    50  C    0.597072
    51  O   -0.483356
    52  N   -0.558712
    53  H    0.331232
    54  C   -0.249858
    55  H    0.189576
    56  H    0.241407
    57  C    0.632368
    58  O   -0.550445
    59  N   -0.606280
    60  H    0.351700
    61  C   -0.258545
    62  H    0.185841
    63  H    0.235228
    64  C    0.614050
    65  O   -0.601023
    66  N   -0.559813
    67  H    0.361861
    68  C   -0.229214
    69  H    0.211892
    70  H    0.186179
    71  C    0.659177
    72  O   -0.578418
    73  N   -0.595241
    74  H    0.394131
    75  C   -0.254110
    76  H    0.234906
    77  H    0.187588
    78  C    0.577141
    79  O   -0.514424
    80  N   -0.572442
    81  H    0.370610
    82  C   -0.228389
    83  H    0.191611
    84  H    0.182224
    85  C    0.576803
    86  O   -0.538202
    87  N   -0.562783
    88  H    0.377459
    89  C   -0.236333
    90  H    0.181985
    91  H    0.197684
    92  C    0.631986
    93  O   -0.547698
    94  N   -0.595472
    95  H    0.363383
    96  C   -0.201633
    97  H    0.206670
    98  H    0.202105
    99  C    0.587430
   100  O   -0.440962
   101  O   -0.637400
   102  H    0.449886
 Sum of Mulliken charges =   1.00000

 Dipole moment (field-independent basis, Debye):
    X=             -7.0082    Y=             27.9021    Z=             12.5755  Tot=             31.3972
 Quadrupole moment (field-independent basis, Debye-Ang):
   XX=           -287.8927   YY=           -119.7406   ZZ=           -231.8270
   XY=            -30.6034   XZ=            -20.0539   YZ=             79.1172

 Normal termination of Gaussian 16 at Thu Aug 11 11:45:12 2022.
