 Gaussian 16, Revision C.01,
 Gaussian 16:  ES64L-G16RevC.01  3-Jul-2019

 ----------------------------------------------------------------------
 # B3LYP/6-31G* empiricaldispersion=gd3bj guess=read geom=check nosymm
 integral(ultrafinegrid)
 ----------------------------------------------------------------------

 ------------------------------------------------------
 Candidate Structure: Conf:584 Charge calc in gas phase
 ------------------------------------------------------
 Structure from the checkpoint file:  "conf-584.chk"
 Charge =  1 Multiplicity = 1

                          Input orientation:
 ---------------------------------------------------------------------
 Center     Atomic      Atomic             Coordinates (Angstroms)
 Number     Number       Type             X           Y           Z
 ---------------------------------------------------------------------
      1          7           0      -10.184455   13.898612   -1.406161
      2          1           0      -10.683814   14.016816   -2.291184
      3          1           0       -9.116250   13.932355   -1.569341
      4          1           0      -10.469732   14.647060   -0.769651
      5          6           0      -10.317367   12.522851   -0.816834
      6          1           0      -10.746098   12.587560    0.184305
      7          1           0      -10.963425   11.910237   -1.447213
      8          6           0       -8.855371   12.003112   -0.795620
      9          8           0       -7.986382   12.774533   -1.237987
     10          7           0       -8.663757   10.792042   -0.317293
     11          1           0       -9.406989   10.206962    0.083630
     12          6           0       -7.364289   10.154965   -0.170705
     13          1           0       -6.727094   10.728123    0.508994
     14          1           0       -6.860511   10.062106   -1.137782
     15          6           0       -7.658755    8.788210    0.463545
     16          8           0       -8.808453    8.538240    0.837608
     17          7           0       -6.610975    7.959202    0.562947
     18          1           0       -5.673760    8.266685    0.289994
     19          6           0       -6.690712    6.735311    1.342667
     20          1           0       -7.716564    6.638094    1.702571
     21          1           0       -6.451333    5.871463    0.714280
     22          6           0       -5.736402    6.850131    2.534483
     23          8           0       -5.852839    7.747446    3.378610
     24          7           0       -4.762344    5.931150    2.562037
     25          1           0       -4.648276    5.274709    1.794756
     26          6           0       -3.583081    6.050460    3.393450
     27          1           0       -3.363930    7.107615    3.573828
     28          1           0       -3.720212    5.562230    4.367686
     29          6           0       -2.458161    5.351603    2.629346
     30          8           0       -2.713502    4.562335    1.715371
     31          7           0       -1.199916    5.679677    2.995680
     32          1           0       -1.029870    6.217810    3.850344
     33          6           0       -0.044487    5.120407    2.298342
     34          1           0       -0.259338    5.108723    1.226082
     35          1           0        0.803464    5.776809    2.476817
     36          6           0        0.334977    3.705584    2.739439
     37          8           0        1.338888    3.457160    3.422030
     38          7           0       -0.516881    2.758033    2.303268
     39          1           0       -1.314544    3.069195    1.751924
     40          6           0       -0.247306    1.335492    2.433376
     41          1           0        0.597426    1.220580    3.114254
     42          1           0       -1.120554    0.814132    2.831181
     43          6           0        0.040117    0.769555    1.041044
     44          8           0       -0.853412    0.239734    0.376398
     45          7           0        1.301843    0.953245    0.574717
     46          1           0        1.871920    1.670860    1.011439
     47          6           0        1.641054    0.599199   -0.799518
     48          1           0        2.716980    0.443192   -0.877091
     49          1           0        1.119866   -0.330951   -1.041150
     50          6           0        1.262698    1.697260   -1.799216
     51          8           0        2.102719    2.229697   -2.527337
     52          7           0       -0.047778    2.048490   -1.787823
     53          1           0       -0.669890    1.545363   -1.160520
     54          6           0       -0.523944    3.243113   -2.472300
     55          1           0       -1.613639    3.237482   -2.470673
     56          1           0       -0.158314    3.241657   -3.503815
     57          6           0       -0.042866    4.493750   -1.722637
     58          8           0       -0.758765    5.092511   -0.920018
     59          7           0        1.242032    4.842316   -2.011827
     60          1           0        1.779326    4.109436   -2.480088
     61          6           0        1.974970    5.705965   -1.122944
     62          1           0        2.777198    6.212239   -1.669417
     63          1           0        1.293092    6.470280   -0.736138
     64          6           0        2.543693    4.933270    0.078461
     65          8           0        2.110966    3.828863    0.401031
     66          7           0        3.521839    5.586518    0.754531
     67          1           0        3.759200    6.535130    0.489868
     68          6           0        3.977206    5.165279    2.071305
     69          1           0        3.538371    4.189994    2.279729
     70          1           0        5.069281    5.085402    2.087627
     71          6           0        3.549287    6.230320    3.078006
     72          8           0        3.887373    7.410235    2.913871
     73          7           0        2.763036    5.801416    4.085115
     74          1           0        2.338627    4.867959    4.008779
     75          6           0        2.221861    6.724249    5.072910
     76          1           0        3.017825    7.405586    5.388519
     77          1           0        1.874025    6.151636    5.932452
     78          6           0        1.025304    7.535689    4.550139
     79          8           0       -0.118184    7.355471    4.985277
     80          7           0        1.323182    8.432454    3.580907
     81          1           0        2.298397    8.476064    3.280431
     82          6           0        0.376518    9.433822    3.124197
     83          1           0       -0.525670    9.341397    3.737595
     84          1           0        0.799931   10.431469    3.263007
     85          6           0       -0.042006    9.361346    1.654906
     86          8           0        0.093625   10.348413    0.926038
     87          7           0       -0.617000    8.206677    1.227189
     88          1           0       -0.892318    7.524128    1.926703
     89          6           0       -1.317157    8.134499   -0.059702
     90          1           0       -1.453502    7.089400   -0.334205
     91          1           0       -0.697915    8.630500   -0.811755
     92          6           0       -2.676346    8.830295    0.061687
     93          8           0       -3.741894    8.206574    0.120170
     94          7           0       -2.601204   10.180162    0.199538
     95          1           0       -1.658291   10.559446    0.292187
     96          6           0       -3.676751   10.869565    0.879118
     97          1           0       -4.554715   10.971854    0.237399
     98          1           0       -3.333092   11.875011    1.138543
     99          6           0       -4.051051   10.108347    2.158974
    100          8           0       -3.237457    9.518810    2.839467
    101          8           0       -5.365518   10.151177    2.398802
    102          1           0       -5.594154    9.404672    3.022275
 ---------------------------------------------------------------------

 SCF Done:  E(RB3LYP) =  -2989.24317540     A.U. after    2 cycles

 Alpha  occ. eigenvalues --  -19.28004 -19.25681 -19.21707 -19.21074 -19.20711
 Alpha  occ. eigenvalues --  -19.20635 -19.19842 -19.19774 -19.19666 -19.19588
 Alpha  occ. eigenvalues --  -19.19553 -19.19440 -19.18418 -19.18239 -19.17755
 Alpha  occ. eigenvalues --  -14.61403 -14.50137 -14.44938 -14.44333 -14.44087
 Alpha  occ. eigenvalues --  -14.44071 -14.43878 -14.43702 -14.43340 -14.43139
 Alpha  occ. eigenvalues --  -14.43104 -14.42381 -14.41827 -14.41657 -10.44687
 Alpha  occ. eigenvalues --  -10.41890 -10.39367 -10.38845 -10.37532 -10.37075
 Alpha  occ. eigenvalues --  -10.36837 -10.36813 -10.36628 -10.36593 -10.36355
 Alpha  occ. eigenvalues --  -10.36325 -10.35228 -10.35170 -10.34674 -10.33958
 Alpha  occ. eigenvalues --  -10.31325 -10.30870 -10.30403 -10.30149 -10.29971
 Alpha  occ. eigenvalues --  -10.29817 -10.29803 -10.29640 -10.29522 -10.29040
 Alpha  occ. eigenvalues --  -10.28919 -10.28374  -1.20490  -1.17126  -1.15018
 Alpha  occ. eigenvalues --   -1.13732  -1.12787  -1.12160  -1.11896  -1.11548
 Alpha  occ. eigenvalues --   -1.11387  -1.11110  -1.10928  -1.10786  -1.10254
 Alpha  occ. eigenvalues --   -1.09859  -1.09059  -1.08364  -1.06739  -1.01653
 Alpha  occ. eigenvalues --   -1.00986  -1.00592  -1.00421  -1.00262  -1.00182
 Alpha  occ. eigenvalues --   -0.99761  -0.99543  -0.98988  -0.98868  -0.98613
 Alpha  occ. eigenvalues --   -0.97543  -0.91319  -0.85918  -0.84647  -0.84331
 Alpha  occ. eigenvalues --   -0.83627  -0.82743  -0.82025  -0.80949  -0.79913
 Alpha  occ. eigenvalues --   -0.78760  -0.77600  -0.76662  -0.75846  -0.75453
 Alpha  occ. eigenvalues --   -0.75235  -0.74498  -0.72648  -0.69856  -0.68573
 Alpha  occ. eigenvalues --   -0.68035  -0.67552  -0.66952  -0.66648  -0.66392
 Alpha  occ. eigenvalues --   -0.66103  -0.65851  -0.65484  -0.64829  -0.64684
 Alpha  occ. eigenvalues --   -0.64392  -0.64116  -0.63381  -0.62637  -0.61832
 Alpha  occ. eigenvalues --   -0.61798  -0.61618  -0.60782  -0.60447  -0.59860
 Alpha  occ. eigenvalues --   -0.59432  -0.58857  -0.58616  -0.58492  -0.58184
 Alpha  occ. eigenvalues --   -0.57608  -0.57320  -0.56912  -0.56248  -0.56119
 Alpha  occ. eigenvalues --   -0.55695  -0.55423  -0.55386  -0.54951  -0.54812
 Alpha  occ. eigenvalues --   -0.54486  -0.54337  -0.54200  -0.53968  -0.53659
 Alpha  occ. eigenvalues --   -0.53318  -0.53168  -0.52791  -0.52615  -0.52320
 Alpha  occ. eigenvalues --   -0.52164  -0.51456  -0.50591  -0.50514  -0.50172
 Alpha  occ. eigenvalues --   -0.49675  -0.49615  -0.49209  -0.49141  -0.48713
 Alpha  occ. eigenvalues --   -0.48646  -0.48522  -0.48222  -0.48079  -0.47874
 Alpha  occ. eigenvalues --   -0.47803  -0.47514  -0.47264  -0.47173  -0.46876
 Alpha  occ. eigenvalues --   -0.46537  -0.46351  -0.46062  -0.45727  -0.45640
 Alpha  occ. eigenvalues --   -0.45438  -0.45112  -0.44830  -0.44606  -0.44414
 Alpha  occ. eigenvalues --   -0.44225  -0.44094  -0.43758  -0.43484  -0.43471
 Alpha  occ. eigenvalues --   -0.43155  -0.43101  -0.42446  -0.40095  -0.38545
 Alpha  occ. eigenvalues --   -0.36775  -0.36328  -0.36142  -0.36010  -0.35641
 Alpha  occ. eigenvalues --   -0.35474  -0.35066  -0.34971  -0.34727  -0.34552
 Alpha  occ. eigenvalues --   -0.34255  -0.34101  -0.33829  -0.33549  -0.33446
 Alpha  occ. eigenvalues --   -0.33027  -0.32695  -0.32448  -0.32352  -0.32010
 Alpha  occ. eigenvalues --   -0.31754  -0.31499  -0.30990  -0.30203  -0.29991
 Alpha virt. eigenvalues --   -0.12972  -0.12765  -0.08385  -0.07698  -0.07368
 Alpha virt. eigenvalues --   -0.07244  -0.06961  -0.06614  -0.06308  -0.05896
 Alpha virt. eigenvalues --   -0.05550  -0.05478  -0.05193  -0.04869  -0.04810

 Mulliken charges:
               1
     1  N   -0.751941
     2  H    0.421730
     3  H    0.440362
     4  H    0.421973
     5  C   -0.276867
     6  H    0.249250
     7  H    0.248780
     8  C    0.641956
     9  O   -0.532029
    10  N   -0.605080
    11  H    0.381671
    12  C   -0.232106
    13  H    0.238463
    14  H    0.207488
    15  C    0.623282
    16  O   -0.537650
    17  N   -0.620215
    18  H    0.396671
    19  C   -0.235504
    20  H    0.223192
    21  H    0.175748
    22  C    0.622262
    23  O   -0.563722
    24  N   -0.580220
    25  H    0.368534
    26  C   -0.220465
    27  H    0.232513
    28  H    0.202729
    29  C    0.607645
    30  O   -0.534245
    31  N   -0.665648
    32  H    0.407985
    33  C   -0.308644
    34  H    0.253195
    35  H    0.167995
    36  C    0.650325
    37  O   -0.562301
    38  N   -0.589275
    39  H    0.385543
    40  C   -0.225772
    41  H    0.204445
    42  H    0.191324
    43  C    0.580312
    44  O   -0.525246
    45  N   -0.563264
    46  H    0.372064
    47  C   -0.244316
    48  H    0.189997
    49  H    0.207044
    50  C    0.619912
    51  O   -0.540541
    52  N   -0.590064
    53  H    0.377503
    54  C   -0.230818
    55  H    0.183137
    56  H    0.189742
    57  C    0.586662
    58  O   -0.518417
    59  N   -0.559738
    60  H    0.382362
    61  C   -0.266935
    62  H    0.180879
    63  H    0.207550
    64  C    0.624093
    65  O   -0.538259
    66  N   -0.580855
    67  H    0.349221
    68  C   -0.234197
    69  H    0.214176
    70  H    0.195526
    71  C    0.589374
    72  O   -0.550237
    73  N   -0.605946
    74  H    0.405614
    75  C   -0.231126
    76  H    0.201055
    77  H    0.197047
    78  C    0.571583
    79  O   -0.541301
    80  N   -0.583426
    81  H    0.387095
    82  C   -0.250742
    83  H    0.227041
    84  H    0.194043
    85  C    0.604427
    86  O   -0.535118
    87  N   -0.596551
    88  H    0.381215
    89  C   -0.286345
    90  H    0.246048
    91  H    0.190323
    92  C    0.599508
    93  O   -0.544167
    94  N   -0.570575
    95  H    0.387187
    96  C   -0.227064
    97  H    0.173123
    98  H    0.197108
    99  C    0.599378
   100  O   -0.472474
   101  O   -0.613645
   102  H    0.466641
 Sum of Mulliken charges =   1.00000

 Dipole moment (field-independent basis, Debye):
    X=            -34.0332    Y=             54.5279    Z=             -2.4444  Tot=             64.3236
 Quadrupole moment (field-independent basis, Debye-Ang):
   XX=             71.4667   YY=            367.0942   ZZ=           -310.4638
   XY=           -491.3830   XZ=             65.7776   YZ=            -57.4834

 Normal termination of Gaussian 16 at Thu Aug 11 11:44:39 2022.
