 Gaussian 16, Revision C.01,
 Gaussian 16:  ES64L-G16RevC.01  3-Jul-2019

 ----------------------------------------------------------------------
 # B3LYP/6-31G* empiricaldispersion=gd3bj guess=read geom=check nosymm
 integral(ultrafinegrid)
 ----------------------------------------------------------------------

 ------------------------------------------------------
 Candidate Structure: Conf:333 Charge calc in gas phase
 ------------------------------------------------------
 Structure from the checkpoint file:  "conf-333.chk"
 Charge =  1 Multiplicity = 1

                          Input orientation:
 ---------------------------------------------------------------------
 Center     Atomic      Atomic             Coordinates (Angstroms)
 Number     Number       Type             X           Y           Z
 ---------------------------------------------------------------------
      1          7           0        9.830003    8.617846   -8.511619
      2          1           0        8.875906    8.298309   -8.824750
      3          1           0       10.520982    8.341609   -9.210189
      4          1           0        9.790913    9.637726   -8.353810
      5          6           0       10.073212    7.988269   -7.182880
      6          1           0        9.807854    6.934330   -7.255894
      7          1           0       11.132341    8.084731   -6.930846
      8          6           0        9.215954    8.804248   -6.205320
      9          8           0        9.022500    9.993873   -6.449549
     10          7           0        8.746311    8.137756   -5.144831
     11          1           0        8.837060    7.127789   -5.048885
     12          6           0        7.822473    8.715968   -4.190898
     13          1           0        7.132458    9.394838   -4.703814
     14          1           0        8.349009    9.300212   -3.426350
     15          6           0        7.083404    7.540313   -3.535757
     16          8           0        7.421586    6.377965   -3.779956
     17          7           0        6.095188    7.872018   -2.692194
     18          1           0        5.703276    8.810920   -2.666038
     19          6           0        5.267627    6.870372   -2.054242
     20          1           0        5.000612    6.093367   -2.780846
     21          1           0        5.793816    6.369138   -1.235404
     22          6           0        3.999871    7.572742   -1.559211
     23          8           0        3.738824    8.721721   -1.908764
     24          7           0        3.202837    6.815171   -0.771471
     25          1           0        3.544227    5.924020   -0.404995
     26          6           0        1.908376    7.291677   -0.320663
     27          1           0        1.975295    7.755847    0.673110
     28          1           0        1.565021    8.056765   -1.020416
     29          6           0        0.963542    6.097105   -0.218425
     30          8           0        1.317011    5.080231    0.385026
     31          7           0       -0.239137    6.239609   -0.815365
     32          1           0       -0.443623    7.091468   -1.321095
     33          6           0       -1.263348    5.201765   -0.807749
     34          1           0       -0.891229    4.392344   -0.178378
     35          1           0       -2.190109    5.600351   -0.387337
     36          6           0       -1.581182    4.717176   -2.232769
     37          8           0       -2.428720    5.269913   -2.916494
     38          7           0       -0.801620    3.675192   -2.649885
     39          1           0       -0.227458    3.210500   -1.945433
     40          6           0       -1.198948    2.818982   -3.771471
     41          1           0       -2.117712    3.218229   -4.200136
     42          1           0       -0.411128    2.784204   -4.531928
     43          6           0       -1.444253    1.454625   -3.124391
     44          8           0       -2.507382    1.162432   -2.601083
     45          7           0       -0.314579    0.670917   -3.010997
     46          1           0        0.561443    1.088805   -3.319651
     47          6           0       -0.218271   -0.134224   -1.815268
     48          1           0       -1.153924   -0.678832   -1.670875
     49          1           0        0.594384   -0.862001   -1.917019
     50          6           0        0.069142    0.769096   -0.605172
     51          8           0        0.481396    1.928569   -0.743478
     52          7           0       -0.109593    0.259010    0.630180
     53          1           0       -0.353086   -0.713374    0.754878
     54          6           0        0.298391    1.057217    1.777733
     55          1           0        0.151234    0.462734    2.682120
     56          1           0       -0.319604    1.957434    1.846199
     57          6           0        1.786473    1.400597    1.655979
     58          8           0        2.612257    0.502886    1.464897
     59          7           0        2.118275    2.708729    1.756807
     60          1           0        1.419217    3.405765    1.513560
     61          6           0        3.495056    3.137995    1.555131
     62          1           0        3.618998    4.135416    1.974553
     63          1           0        4.154581    2.438901    2.077564
     64          6           0        3.895644    3.206576    0.077470
     65          8           0        4.385079    4.237638   -0.422754
     66          7           0        3.679120    2.087797   -0.630932
     67          1           0        3.322126    1.280041   -0.120891
     68          6           0        3.922418    1.973801   -2.059707
     69          1           0        4.927452    2.347124   -2.289937
     70          1           0        3.870001    0.920427   -2.332596
     71          6           0        2.915085    2.723795   -2.945078
     72          8           0        2.209644    2.128936   -3.777250
     73          7           0        2.930109    4.060014   -2.809772
     74          1           0        3.532702    4.430416   -2.076265
     75          6           0        2.055854    4.966751   -3.541326
     76          1           0        2.038179    5.917255   -3.011639
     77          1           0        1.040097    4.560727   -3.558870
     78          6           0        2.536604    5.255117   -4.963165
     79          8           0        2.744892    6.412093   -5.344188
     80          7           0        2.700650    4.165600   -5.748473
     81          1           0        2.490295    3.253747   -5.344588
     82          6           0        3.076681    4.261016   -7.152376
     83          1           0        2.902151    3.294215   -7.623178
     84          1           0        2.454271    5.018111   -7.643498
     85          6           0        4.555958    4.612490   -7.356151
     86          8           0        5.367463    3.793949   -7.804342
     87          7           0        4.878121    5.884847   -7.028683
     88          1           0        4.147300    6.423034   -6.554580
     89          6           0        6.254525    6.342835   -6.923069
     90          1           0        6.854517    5.609888   -6.369791
     91          1           0        6.256594    7.277717   -6.366865
     92          6           0        6.918729    6.629254   -8.272456
     93          8           0        7.325673    7.771137   -8.551983
     94          7           0        7.036318    5.574352   -9.093607
     95          1           0        6.609943    4.696655   -8.768622
     96          6           0        7.515993    5.689930  -10.450247
     97          1           0        7.163354    6.632117  -10.889631
     98          1           0        7.114757    4.870550  -11.048464
     99          6           0        9.035398    5.698906  -10.559223
    100          8           0        9.801244    6.148138   -9.726526
    101          8           0        9.432931    5.192682  -11.731589
    102          1           0       10.406637    5.256264  -11.778024
 ---------------------------------------------------------------------

 SCF Done:  E(RB3LYP) =  -2989.25343625     A.U. after    1 cycles

 Alpha  occ. eigenvalues --  -19.31589 -19.26424 -19.23959 -19.23297 -19.22069
 Alpha  occ. eigenvalues --  -19.22039 -19.21853 -19.21754 -19.21384 -19.21167
 Alpha  occ. eigenvalues --  -19.21148 -19.20352 -19.20295 -19.18069 -19.17899
 Alpha  occ. eigenvalues --  -14.55429 -14.47309 -14.46971 -14.46063 -14.45695
 Alpha  occ. eigenvalues --  -14.45427 -14.45297 -14.45290 -14.45213 -14.44992
 Alpha  occ. eigenvalues --  -14.44258 -14.44225 -14.42275 -14.41775 -10.44491
 Alpha  occ. eigenvalues --  -10.40835 -10.40456 -10.38824 -10.38815 -10.38538
 Alpha  occ. eigenvalues --  -10.38461 -10.38455 -10.37924 -10.37921 -10.37584
 Alpha  occ. eigenvalues --  -10.37485 -10.36949 -10.35366 -10.34900 -10.34872
 Alpha  occ. eigenvalues --  -10.33186 -10.32963 -10.32340 -10.31980 -10.31886
 Alpha  occ. eigenvalues --  -10.31585 -10.31487 -10.31164 -10.31081 -10.30679
 Alpha  occ. eigenvalues --  -10.30282 -10.28808  -1.22782  -1.15991  -1.15298
 Alpha  occ. eigenvalues --   -1.14008  -1.13711  -1.13659  -1.13581  -1.13414
 Alpha  occ. eigenvalues --   -1.13137  -1.12994  -1.12389  -1.12128  -1.11908
 Alpha  occ. eigenvalues --   -1.10234  -1.10156  -1.09571  -1.03889  -1.03816
 Alpha  occ. eigenvalues --   -1.02363  -1.02035  -1.01882  -1.01818  -1.01726
 Alpha  occ. eigenvalues --   -1.01457  -1.00935  -1.00728  -1.00358  -0.99150
 Alpha  occ. eigenvalues --   -0.98250  -0.87892  -0.87665  -0.86186  -0.85432
 Alpha  occ. eigenvalues --   -0.84831  -0.83833  -0.83350  -0.82076  -0.81254
 Alpha  occ. eigenvalues --   -0.80202  -0.79083  -0.78225  -0.77275  -0.75389
 Alpha  occ. eigenvalues --   -0.74174  -0.71301  -0.70605  -0.70339  -0.69963
 Alpha  occ. eigenvalues --   -0.69198  -0.68771  -0.68551  -0.68172  -0.68018
 Alpha  occ. eigenvalues --   -0.67119  -0.66979  -0.66542  -0.66284  -0.65257
 Alpha  occ. eigenvalues --   -0.65006  -0.64519  -0.63250  -0.62850  -0.62614
 Alpha  occ. eigenvalues --   -0.62486  -0.62409  -0.61981  -0.61570  -0.60663
 Alpha  occ. eigenvalues --   -0.60625  -0.60070  -0.59792  -0.59601  -0.58977
 Alpha  occ. eigenvalues --   -0.58676  -0.58114  -0.57704  -0.57627  -0.57138
 Alpha  occ. eigenvalues --   -0.56953  -0.56779  -0.56707  -0.56399  -0.56263
 Alpha  occ. eigenvalues --   -0.56090  -0.55925  -0.55314  -0.55132  -0.54922
 Alpha  occ. eigenvalues --   -0.54223  -0.53623  -0.53203  -0.53096  -0.52800
 Alpha  occ. eigenvalues --   -0.52592  -0.52427  -0.52288  -0.51682  -0.51459
 Alpha  occ. eigenvalues --   -0.51356  -0.51055  -0.50941  -0.50930  -0.50757
 Alpha  occ. eigenvalues --   -0.50298  -0.50086  -0.49871  -0.49772  -0.49522
 Alpha  occ. eigenvalues --   -0.49313  -0.49001  -0.48789  -0.48678  -0.48504
 Alpha  occ. eigenvalues --   -0.48155  -0.47975  -0.47463  -0.47261  -0.47125
 Alpha  occ. eigenvalues --   -0.46958  -0.46758  -0.46386  -0.46332  -0.45954
 Alpha  occ. eigenvalues --   -0.45754  -0.45513  -0.45274  -0.44250  -0.44076
 Alpha  occ. eigenvalues --   -0.44008  -0.43757  -0.42825  -0.40917  -0.38933
 Alpha  occ. eigenvalues --   -0.38092  -0.38002  -0.37531  -0.37328  -0.37233
 Alpha  occ. eigenvalues --   -0.37140  -0.36913  -0.36244  -0.36171  -0.36092
 Alpha  occ. eigenvalues --   -0.35935  -0.35755  -0.35207  -0.35000  -0.34388
 Alpha  occ. eigenvalues --   -0.34283  -0.33973  -0.33879  -0.33466  -0.33275
 Alpha  occ. eigenvalues --   -0.33202  -0.33118  -0.32511  -0.31279  -0.30058
 Alpha virt. eigenvalues --   -0.11619  -0.10064  -0.09380  -0.09351  -0.08545
 Alpha virt. eigenvalues --   -0.08054  -0.07817  -0.07373  -0.07107  -0.06716
 Alpha virt. eigenvalues --   -0.06278  -0.06030  -0.05404  -0.04840  -0.03068

 Mulliken charges:
               1
     1  N   -0.738051
     2  H    0.448624
     3  H    0.402560
     4  H    0.410390
     5  C   -0.281929
     6  H    0.224668
     7  H    0.228533
     8  C    0.642851
     9  O   -0.517801
    10  N   -0.610130
    11  H    0.364829
    12  C   -0.213737
    13  H    0.209797
    14  H    0.211669
    15  C    0.605263
    16  O   -0.542514
    17  N   -0.611559
    18  H    0.365920
    19  C   -0.195484
    20  H    0.188608
    21  H    0.209329
    22  C    0.583983
    23  O   -0.521614
    24  N   -0.653680
    25  H    0.404686
    26  C   -0.206681
    27  H    0.197271
    28  H    0.193537
    29  C    0.604100
    30  O   -0.550368
    31  N   -0.583155
    32  H    0.356210
    33  C   -0.234016
    34  H    0.195352
    35  H    0.198478
    36  C    0.576975
    37  O   -0.485979
    38  N   -0.640082
    39  H    0.404063
    40  C   -0.216549
    41  H    0.216684
    42  H    0.155191
    43  C    0.548018
    44  O   -0.485454
    45  N   -0.581374
    46  H    0.380569
    47  C   -0.264488
    48  H    0.214530
    49  H    0.189105
    50  C    0.628376
    51  O   -0.560168
    52  N   -0.565668
    53  H    0.354436
    54  C   -0.220956
    55  H    0.198310
    56  H    0.185771
    57  C    0.611572
    58  O   -0.544322
    59  N   -0.571347
    60  H    0.385381
    61  C   -0.237768
    62  H    0.191042
    63  H    0.210700
    64  C    0.627662
    65  O   -0.581352
    66  N   -0.571115
    67  H    0.395466
    68  C   -0.241469
    69  H    0.201197
    70  H    0.193849
    71  C    0.619740
    72  O   -0.566385
    73  N   -0.599305
    74  H    0.399986
    75  C   -0.278798
    76  H    0.187964
    77  H    0.243484
    78  C    0.608384
    79  O   -0.538739
    80  N   -0.598438
    81  H    0.389773
    82  C   -0.231888
    83  H    0.196778
    84  H    0.198955
    85  C    0.598126
    86  O   -0.538613
    87  N   -0.591460
    88  H    0.395723
    89  C   -0.238242
    90  H    0.206319
    91  H    0.186979
    92  C    0.606231
    93  O   -0.575765
    94  N   -0.572021
    95  H    0.404246
    96  C   -0.236196
    97  H    0.220731
    98  H    0.217177
    99  C    0.595640
   100  O   -0.497513
   101  O   -0.528519
   102  H    0.428902
 Sum of Mulliken charges =   1.00000

 Dipole moment (field-independent basis, Debye):
    X=             34.3879    Y=             26.0030    Z=            -25.2961  Tot=             49.9857
 Quadrupole moment (field-independent basis, Debye-Ang):
   XX=            -30.9029   YY=           -143.6702   ZZ=            -48.7667
   XY=            237.2307   XZ=           -282.9675   YZ=           -181.0357

 Normal termination of Gaussian 16 at Thu Aug 11 11:44:15 2022.
