 Gaussian 16, Revision C.01,
 Gaussian 16:  ES64L-G16RevC.01  3-Jul-2019

 ----------------------------------------------------------------------
 # B3LYP/6-31G* empiricaldispersion=gd3bj guess=read geom=check nosymm
 integral(ultrafinegrid)
 ----------------------------------------------------------------------

 ------------------------------------------------------
 Candidate Structure: Conf:172 Charge calc in gas phase
 ------------------------------------------------------
 Structure from the checkpoint file:  "conf-172.chk"
 Charge =  1 Multiplicity = 1

                          Input orientation:
 ---------------------------------------------------------------------
 Center     Atomic      Atomic             Coordinates (Angstroms)
 Number     Number       Type             X           Y           Z
 ---------------------------------------------------------------------
      1          7           0        1.791341    7.827783   -0.349174
      2          1           0        1.915488    7.897805    0.662992
      3          1           0        0.739102    7.770677   -0.529264
      4          1           0        2.163529    8.689999   -0.813077
      5          6           0        2.461117    6.601687   -0.886827
      6          1           0        3.488084    6.557498   -0.520484
      7          1           0        1.904934    5.718974   -0.559949
      8          6           0        2.393367    6.657173   -2.409345
      9          8           0        1.311024    6.863874   -2.976070
     10          7           0        3.563289    6.489313   -3.031977
     11          1           0        4.417101    6.314792   -2.484655
     12          6           0        3.688499    6.509480   -4.472110
     13          1           0        4.732245    6.298237   -4.714396
     14          1           0        3.464159    7.504052   -4.857177
     15          6           0        2.779555    5.474510   -5.120085
     16          8           0        2.547042    4.376584   -4.606573
     17          7           0        2.286842    5.850659   -6.320187
     18          1           0        2.422069    6.815428   -6.594408
     19          6           0        1.293878    5.046505   -7.005782
     20          1           0        1.352780    5.241228   -8.081653
     21          1           0        1.510152    3.992975   -6.834108
     22          6           0       -0.146853    5.295973   -6.542021
     23          8           0       -0.962704    4.388525   -6.522479
     24          7           0       -0.450864    6.593880   -6.213781
     25          1           0        0.261123    7.313255   -6.276482
     26          6           0       -1.828697    6.979904   -6.000360
     27          1           0       -2.202190    7.619677   -6.811333
     28          1           0       -2.424448    6.063995   -6.014667
     29          6           0       -2.127886    7.700472   -4.697309
     30          8           0       -3.282829    7.948202   -4.372801
     31          7           0       -1.045862    8.107763   -3.940343
     32          1           0       -0.193299    7.549816   -4.016320
     33          6           0       -1.287135    8.675313   -2.608024
     34          1           0       -0.406144    9.244874   -2.312559
     35          1           0       -2.145856    9.347338   -2.680995
     36          6           0       -1.549101    7.594429   -1.559442
     37          8           0       -0.796690    7.424072   -0.581328
     38          7           0       -2.600487    6.797934   -1.788697
     39          1           0       -3.182370    7.011198   -2.595786
     40          6           0       -2.770505    5.525706   -1.105826
     41          1           0       -2.391915    5.623097   -0.085669
     42          1           0       -3.830613    5.274086   -1.055156
     43          6           0       -2.050976    4.342836   -1.774624
     44          8           0       -2.425186    3.203624   -1.552145
     45          7           0       -1.020506    4.649038   -2.629852
     46          1           0       -0.529657    5.524817   -2.496995
     47          6           0       -0.190185    3.565880   -3.100539
     48          1           0       -0.832435    2.699867   -3.275834
     49          1           0        0.284332    3.842474   -4.044653
     50          6           0        0.899131    3.209505   -2.086878
     51          8           0        1.123871    3.881312   -1.081576
     52          7           0        1.631630    2.104417   -2.390409
     53          1           0        1.399672    1.577119   -3.220883
     54          6           0        2.640254    1.588178   -1.486866
     55          1           0        2.747907    0.510669   -1.632024
     56          1           0        2.310701    1.752467   -0.456867
     57          6           0        4.031985    2.205870   -1.610576
     58          8           0        4.966143    1.758809   -0.940156
     59          7           0        4.174008    3.252083   -2.457195
     60          1           0        3.422211    3.557161   -3.076088
     61          6           0        5.500633    3.790960   -2.685078
     62          1           0        6.214152    2.974137   -2.833754
     63          1           0        5.478255    4.400555   -3.588288
     64          6           0        5.982206    4.674264   -1.529629
     65          8           0        5.803578    5.909865   -1.507767
     66          7           0        6.625813    4.036317   -0.545109
     67          1           0        6.561700    3.020830   -0.531890
     68          6           0        7.275003    4.774860    0.510405
     69          1           0        6.546924    5.346986    1.098953
     70          1           0        7.766390    4.062129    1.178222
     71          6           0        8.335419    5.715990   -0.084032
     72          8           0        8.924379    5.451475   -1.128468
     73          7           0        8.590941    6.834444    0.639423
     74          1           0        7.998838    7.072754    1.422378
     75          6           0        9.576765    7.813629    0.190661
     76          1           0       10.462249    7.276389   -0.158352
     77          1           0        9.845981    8.455590    1.029088
     78          6           0        9.002695    8.704828   -0.918502
     79          8           0        8.605810    9.850890   -0.683794
     80          7           0        8.936953    8.123632   -2.139484
     81          1           0        9.101394    7.118454   -2.182397
     82          6           0        8.379174    8.813027   -3.295267
     83          1           0        8.760427    9.839500   -3.304847
     84          1           0        8.701218    8.302508   -4.202523
     85          6           0        6.847324    8.830024   -3.278722
     86          8           0        6.164234    8.247186   -4.125434
     87          7           0        6.302188    9.547196   -2.262269
     88          1           0        6.970116    9.954019   -1.601868
     89          6           0        4.961382    9.287162   -1.773924
     90          1           0        4.856379    9.804332   -0.817212
     91          1           0        4.841770    8.216420   -1.585075
     92          6           0        3.762227    9.748779   -2.601215
     93          8           0        2.649431    9.827341   -2.050765
     94          7           0        3.943289   10.073294   -3.891955
     95          1           0        4.795467    9.748212   -4.340371
     96          6           0        2.894220   10.725938   -4.659497
     97          1           0        3.334287   11.073351   -5.597675
     98          1           0        2.520421   11.586216   -4.102045
     99          6           0        1.711734    9.818051   -5.000614
    100          8           0        1.807104    8.768366   -5.620612
    101          8           0        0.561673   10.322977   -4.575300
    102          1           0       -0.148506    9.640444   -4.693323
 ---------------------------------------------------------------------

 SCF Done:  E(RB3LYP) =  -2989.29625671     A.U. after    2 cycles

 Alpha  occ. eigenvalues --  -19.30422 -19.26267 -19.24969 -19.24106 -19.23799
 Alpha  occ. eigenvalues --  -19.23772 -19.23144 -19.22887 -19.22833 -19.22481
 Alpha  occ. eigenvalues --  -19.22169 -19.20678 -19.20566 -19.20522 -19.18815
 Alpha  occ. eigenvalues --  -14.53570 -14.48492 -14.47603 -14.47321 -14.47154
 Alpha  occ. eigenvalues --  -14.46959 -14.46747 -14.46464 -14.46342 -14.46056
 Alpha  occ. eigenvalues --  -14.45542 -14.45254 -14.44936 -14.43276 -10.44247
 Alpha  occ. eigenvalues --  -10.41674 -10.41157 -10.40172 -10.39958 -10.39901
 Alpha  occ. eigenvalues --  -10.39851 -10.39774 -10.39731 -10.39029 -10.38012
 Alpha  occ. eigenvalues --  -10.37669 -10.37518 -10.36253 -10.35346 -10.35084
 Alpha  occ. eigenvalues --  -10.34747 -10.34097 -10.33513 -10.33060 -10.32975
 Alpha  occ. eigenvalues --  -10.32857 -10.32804 -10.32368 -10.32203 -10.31575
 Alpha  occ. eigenvalues --  -10.31170 -10.29858  -1.22173  -1.16528  -1.16001
 Alpha  occ. eigenvalues --   -1.15496  -1.15405  -1.14801  -1.14664  -1.14380
 Alpha  occ. eigenvalues --   -1.14303  -1.13478  -1.13165  -1.12819  -1.12612
 Alpha  occ. eigenvalues --   -1.12185  -1.10820  -1.08780  -1.04814  -1.04246
 Alpha  occ. eigenvalues --   -1.03939  -1.03565  -1.03447  -1.03312  -1.03206
 Alpha  occ. eigenvalues --   -1.02745  -1.02044  -1.02004  -1.01069  -1.00610
 Alpha  occ. eigenvalues --   -0.99488  -0.88328  -0.87924  -0.87276  -0.86437
 Alpha  occ. eigenvalues --   -0.85573  -0.84750  -0.84294  -0.83048  -0.82230
 Alpha  occ. eigenvalues --   -0.80987  -0.80305  -0.79264  -0.78733  -0.77065
 Alpha  occ. eigenvalues --   -0.74578  -0.72070  -0.71319  -0.70653  -0.70211
 Alpha  occ. eigenvalues --   -0.70010  -0.69695  -0.69280  -0.68933  -0.68611
 Alpha  occ. eigenvalues --   -0.68099  -0.67983  -0.67809  -0.67295  -0.66900
 Alpha  occ. eigenvalues --   -0.65911  -0.65515  -0.64496  -0.64179  -0.64122
 Alpha  occ. eigenvalues --   -0.63721  -0.63544  -0.62883  -0.62526  -0.62356
 Alpha  occ. eigenvalues --   -0.61777  -0.61545  -0.61349  -0.60759  -0.60071
 Alpha  occ. eigenvalues --   -0.59935  -0.59214  -0.58753  -0.58495  -0.58335
 Alpha  occ. eigenvalues --   -0.57961  -0.57891  -0.57483  -0.57234  -0.57152
 Alpha  occ. eigenvalues --   -0.56599  -0.56421  -0.56036  -0.55298  -0.55205
 Alpha  occ. eigenvalues --   -0.54902  -0.54606  -0.54359  -0.54080  -0.53548
 Alpha  occ. eigenvalues --   -0.53313  -0.53138  -0.52765  -0.52696  -0.52513
 Alpha  occ. eigenvalues --   -0.52111  -0.52016  -0.51856  -0.51773  -0.51608
 Alpha  occ. eigenvalues --   -0.51358  -0.51281  -0.51170  -0.50942  -0.50695
 Alpha  occ. eigenvalues --   -0.50372  -0.50146  -0.49945  -0.49828  -0.49695
 Alpha  occ. eigenvalues --   -0.49276  -0.49237  -0.48936  -0.48638  -0.48266
 Alpha  occ. eigenvalues --   -0.48097  -0.47906  -0.47691  -0.47448  -0.47263
 Alpha  occ. eigenvalues --   -0.46678  -0.46606  -0.46137  -0.45631  -0.45062
 Alpha  occ. eigenvalues --   -0.43958  -0.43441  -0.43361  -0.41079  -0.40230
 Alpha  occ. eigenvalues --   -0.39811  -0.39040  -0.38710  -0.38594  -0.38325
 Alpha  occ. eigenvalues --   -0.38285  -0.38143  -0.37761  -0.37681  -0.37532
 Alpha  occ. eigenvalues --   -0.37426  -0.37010  -0.36486  -0.36339  -0.36180
 Alpha  occ. eigenvalues --   -0.36083  -0.35150  -0.34719  -0.34630  -0.34489
 Alpha  occ. eigenvalues --   -0.34227  -0.33593  -0.33278  -0.33065  -0.31618
 Alpha virt. eigenvalues --   -0.11743  -0.11277  -0.10610  -0.10416  -0.10288
 Alpha virt. eigenvalues --   -0.09682  -0.09043  -0.08561  -0.08545  -0.07690
 Alpha virt. eigenvalues --   -0.06963  -0.06478  -0.06088  -0.05130  -0.04883

 Mulliken charges:
               1
     1  N   -0.805464
     2  H    0.389090
     3  H    0.458202
     4  H    0.428418
     5  C   -0.319106
     6  H    0.193811
     7  H    0.288495
     8  C    0.639952
     9  O   -0.575109
    10  N   -0.633018
    11  H    0.429838
    12  C   -0.268112
    13  H    0.218649
    14  H    0.203348
    15  C    0.650502
    16  O   -0.549318
    17  N   -0.599496
    18  H    0.363782
    19  C   -0.251060
    20  H    0.199468
    21  H    0.217502
    22  C    0.617545
    23  O   -0.493910
    24  N   -0.640881
    25  H    0.353377
    26  C   -0.227011
    27  H    0.203896
    28  H    0.244890
    29  C    0.594112
    30  O   -0.500509
    31  N   -0.691305
    32  H    0.416030
    33  C   -0.245994
    34  H    0.191790
    35  H    0.221390
    36  C    0.607017
    37  O   -0.577367
    38  N   -0.567910
    39  H    0.390623
    40  C   -0.253287
    41  H    0.220706
    42  H    0.208869
    43  C    0.602382
    44  O   -0.491631
    45  N   -0.605279
    46  H    0.360153
    47  C   -0.270157
    48  H    0.212188
    49  H    0.214865
    50  C    0.623133
    51  O   -0.542260
    52  N   -0.603781
    53  H    0.351990
    54  C   -0.222876
    55  H    0.200188
    56  H    0.218482
    57  C    0.608553
    58  O   -0.540848
    59  N   -0.629082
    60  H    0.421042
    61  C   -0.250369
    62  H    0.201600
    63  H    0.176347
    64  C    0.633960
    65  O   -0.580955
    66  N   -0.550414
    67  H    0.390063
    68  C   -0.225709
    69  H    0.167556
    70  H    0.211869
    71  C    0.639201
    72  O   -0.526201
    73  N   -0.588813
    74  H    0.344051
    75  C   -0.233311
    76  H    0.209026
    77  H    0.199638
    78  C    0.595206
    79  O   -0.533491
    80  N   -0.577628
    81  H    0.389159
    82  C   -0.242169
    83  H    0.207610
    84  H    0.197452
    85  C    0.592830
    86  O   -0.543084
    87  N   -0.597244
    88  H    0.392876
    89  C   -0.252710
    90  H    0.192396
    91  H    0.203667
    92  C    0.642494
    93  O   -0.564803
    94  N   -0.580531
    95  H    0.385532
    96  C   -0.220291
    97  H    0.206740
    98  H    0.218920
    99  C    0.610184
   100  O   -0.493459
   101  O   -0.550067
   102  H    0.443368
 Sum of Mulliken charges =   1.00000

 Dipole moment (field-independent basis, Debye):
    X=             20.9116    Y=             37.7313    Z=            -11.2563  Tot=             44.5830
 Quadrupole moment (field-independent basis, Debye-Ang):
   XX=           -201.9923   YY=            -12.7523   ZZ=           -239.0752
   XY=            142.9601   XZ=            -28.5161   YZ=            -94.9198

 Normal termination of Gaussian 16 at Thu Aug 11 11:44:57 2022.
