 Gaussian 16, Revision C.01,
 Gaussian 16:  ES64L-G16RevC.01  3-Jul-2019

 ----------------------------------------------------------------------
 # B3LYP/6-31G* empiricaldispersion=gd3bj guess=read geom=check nosymm
 integral(ultrafinegrid)
 ----------------------------------------------------------------------

 ------------------------------------------------------
 Candidate Structure: Conf:497 Charge calc in gas phase
 ------------------------------------------------------
 Structure from the checkpoint file:  "conf-497.chk"
 Charge =  1 Multiplicity = 1

                          Input orientation:
 ---------------------------------------------------------------------
 Center     Atomic      Atomic             Coordinates (Angstroms)
 Number     Number       Type             X           Y           Z
 ---------------------------------------------------------------------
      1          7           0       -0.154419   -0.752013   -6.443106
      2          1           0       -1.107235   -0.457108   -6.217753
      3          1           0        0.461696    0.047430   -6.196168
      4          1           0        0.093649   -1.582515   -5.854454
      5          6           0        0.054973   -1.058234   -7.885784
      6          1           0       -0.548232   -1.928900   -8.154803
      7          1           0       -0.255515   -0.193232   -8.472914
      8          6           0        1.545486   -1.369329   -8.030262
      9          8           0        2.115504   -1.957583   -7.113846
     10          7           0        2.164060   -0.970700   -9.158937
     11          1           0        1.696977   -0.289002   -9.744245
     12          6           0        3.632742   -0.967681   -9.208120
     13          1           0        3.953437   -0.945978  -10.248924
     14          1           0        3.994195   -1.877613   -8.725360
     15          6           0        4.116463    0.316702   -8.517943
     16          8           0        4.445991    1.297990   -9.162756
     17          7           0        4.060982    0.292648   -7.139129
     18          1           0        3.571674   -0.494368   -6.720541
     19          6           0        3.871997    1.554486   -6.453565
     20          1           0        4.451304    1.601158   -5.528363
     21          1           0        4.237843    2.342789   -7.119008
     22          6           0        2.388920    1.794444   -6.179272
     23          8           0        1.517873    1.344004   -6.940375
     24          7           0        2.094844    2.565535   -5.114998
     25          1           0        2.781015    2.672294   -4.370466
     26          6           0        0.713548    2.869793   -4.784271
     27          1           0        0.684090    3.847393   -4.294632
     28          1           0        0.143341    2.913964   -5.711613
     29          6           0        0.030334    1.828854   -3.878943
     30          8           0       -0.789144    1.008953   -4.297966
     31          7           0        0.347101    1.938218   -2.562147
     32          1           0        1.247919    2.362920   -2.332804
     33          6           0       -0.273255    1.051713   -1.585690
     34          1           0       -1.353077    1.234656   -1.565122
     35          1           0       -0.116704    0.002201   -1.840662
     36          6           0        0.389107    1.304405   -0.240143
     37          8           0        1.485641    0.802813    0.020450
     38          7           0       -0.263051    2.125131    0.622258
     39          1           0       -1.108032    2.571958    0.289544
     40          6           0        0.414976    2.765906    1.752528
     41          1           0        1.041979    3.594317    1.410538
     42          1           0       -0.356501    3.170491    2.414878
     43          6           0        1.334890    1.833739    2.554120
     44          8           0        2.505526    2.135907    2.746095
     45          7           0        0.740520    0.725651    3.070088
     46          1           0       -0.230450    0.547777    2.850613
     47          6           0        1.478992   -0.271326    3.823313
     48          1           0        2.460738    0.152666    4.049231
     49          1           0        0.977228   -0.502892    4.766813
     50          6           0        1.722682   -1.584193    3.089020
     51          8           0        2.094373   -2.584011    3.700016
     52          7           0        1.502420   -1.571247    1.743101
     53          1           0        1.502927   -0.671458    1.265883
     54          6           0        1.912683   -2.722468    0.953314
     55          1           0        1.381974   -2.713150    0.000400
     56          1           0        1.652225   -3.628890    1.503401
     57          6           0        3.417205   -2.627789    0.711442
     58          8           0        3.890061   -2.117075   -0.317742
     59          7           0        4.179259   -3.047627    1.743357
     60          1           0        3.669892   -3.208823    2.613637
     61          6           0        5.534379   -2.551262    1.857233
     62          1           0        6.025597   -3.059119    2.691992
     63          1           0        6.088318   -2.781282    0.943355
     64          6           0        5.510828   -1.035208    2.117351
     65          8           0        4.520721   -0.485220    2.594811
     66          7           0        6.643441   -0.364883    1.802894
     67          1           0        7.385988   -0.838084    1.306690
     68          6           0        6.738307    1.082374    1.975605
     69          1           0        6.252818    1.344079    2.919199
     70          1           0        7.790096    1.365464    2.012799
     71          6           0        6.094616    1.824483    0.796327
     72          8           0        6.761483    2.315472   -0.104561
     73          7           0        4.728018    1.838686    0.802667
     74          1           0        4.216283    1.506813    1.616624
     75          6           0        4.016418    2.614096   -0.183986
     76          1           0        4.586134    3.515998   -0.432185
     77          1           0        3.057277    2.914695    0.234776
     78          6           0        3.763045    1.916612   -1.513409
     79          8           0        3.182511    2.529730   -2.429151
     80          7           0        4.224904    0.665735   -1.653420
     81          1           0        4.579640    0.189178   -0.833348
     82          6           0        4.216559   -0.013335   -2.932154
     83          1           0        4.561106    0.672298   -3.705553
     84          1           0        4.917989   -0.850206   -2.875387
     85          6           0        2.861598   -0.563264   -3.384712
     86          8           0        2.397605   -0.330224   -4.502460
     87          7           0        2.244447   -1.396557   -2.515955
     88          1           0        2.701184   -1.616182   -1.624075
     89          6           0        1.053723   -2.089713   -2.959610
     90          1           0        0.269546   -1.384937   -3.247225
     91          1           0        0.674836   -2.707771   -2.139612
     92          6           0        1.287004   -2.975656   -4.189748
     93          8           0        0.398228   -3.106180   -5.037544
     94          7           0        2.478203   -3.607671   -4.229835
     95          1           0        3.150940   -3.341092   -3.522392
     96          6           0        2.993102   -4.243975   -5.425250
     97          1           0        2.182734   -4.308048   -6.150791
     98          1           0        3.338655   -5.261126   -5.207952
     99          6           0        4.142759   -3.494759   -6.084788
    100          8           0        4.604424   -3.787533   -7.160000
    101          8           0        4.632373   -2.486935   -5.316186
    102          1           0        5.345979   -2.068936   -5.835988
 ---------------------------------------------------------------------

 SCF Done:  E(RB3LYP) =  -2989.28353229     A.U. after    3 cycles

 Alpha  occ. eigenvalues --  -19.29023 -19.24756 -19.23558 -19.22647 -19.22562
 Alpha  occ. eigenvalues --  -19.22486 -19.22384 -19.22245 -19.22109 -19.21806
 Alpha  occ. eigenvalues --  -19.21596 -19.21554 -19.20973 -19.19496 -19.19363
 Alpha  occ. eigenvalues --  -14.52505 -14.49623 -14.47030 -14.46675 -14.46559
 Alpha  occ. eigenvalues --  -14.46471 -14.46272 -14.46231 -14.45883 -14.45856
 Alpha  occ. eigenvalues --  -14.45397 -14.45237 -14.43509 -14.43241 -10.41885
 Alpha  occ. eigenvalues --  -10.41201 -10.40231 -10.39697 -10.39661 -10.39520
 Alpha  occ. eigenvalues --  -10.39156 -10.39058 -10.38860 -10.38721 -10.38409
 Alpha  occ. eigenvalues --  -10.38179 -10.36545 -10.36533 -10.35715 -10.34608
 Alpha  occ. eigenvalues --  -10.34125 -10.33410 -10.33054 -10.32991 -10.32960
 Alpha  occ. eigenvalues --  -10.32458 -10.32155 -10.31670 -10.31376 -10.31119
 Alpha  occ. eigenvalues --  -10.30977 -10.30836  -1.19551  -1.16822  -1.15410
 Alpha  occ. eigenvalues --   -1.15031  -1.14615  -1.14034  -1.13858  -1.13717
 Alpha  occ. eigenvalues --   -1.13470  -1.13335  -1.13079  -1.12812  -1.11320
 Alpha  occ. eigenvalues --   -1.11277  -1.10496  -1.07821  -1.05349  -1.03816
 Alpha  occ. eigenvalues --   -1.03266  -1.03112  -1.03011  -1.02799  -1.02667
 Alpha  occ. eigenvalues --   -1.02238  -1.01688  -1.01507  -1.01226  -0.99809
 Alpha  occ. eigenvalues --   -0.99751  -0.88060  -0.86889  -0.86497  -0.86145
 Alpha  occ. eigenvalues --   -0.85253  -0.84531  -0.83593  -0.82531  -0.81625
 Alpha  occ. eigenvalues --   -0.80663  -0.80079  -0.79031  -0.77648  -0.77327
 Alpha  occ. eigenvalues --   -0.72175  -0.71430  -0.70662  -0.69934  -0.69532
 Alpha  occ. eigenvalues --   -0.69310  -0.69029  -0.68834  -0.68586  -0.68375
 Alpha  occ. eigenvalues --   -0.68063  -0.67701  -0.67454  -0.66740  -0.66545
 Alpha  occ. eigenvalues --   -0.65868  -0.65717  -0.64541  -0.64111  -0.63670
 Alpha  occ. eigenvalues --   -0.62899  -0.62836  -0.62182  -0.61733  -0.61576
 Alpha  occ. eigenvalues --   -0.61271  -0.60741  -0.59659  -0.59328  -0.59091
 Alpha  occ. eigenvalues --   -0.58764  -0.58524  -0.58357  -0.58200  -0.57478
 Alpha  occ. eigenvalues --   -0.57362  -0.56702  -0.56490  -0.56434  -0.56190
 Alpha  occ. eigenvalues --   -0.56067  -0.55865  -0.55093  -0.54881  -0.54781
 Alpha  occ. eigenvalues --   -0.54634  -0.54405  -0.53986  -0.53877  -0.53552
 Alpha  occ. eigenvalues --   -0.53345  -0.53095  -0.52907  -0.52669  -0.52379
 Alpha  occ. eigenvalues --   -0.51937  -0.51841  -0.51525  -0.51125  -0.50931
 Alpha  occ. eigenvalues --   -0.50770  -0.50706  -0.50520  -0.50449  -0.50229
 Alpha  occ. eigenvalues --   -0.49810  -0.49432  -0.49343  -0.48908  -0.48867
 Alpha  occ. eigenvalues --   -0.48597  -0.48510  -0.48345  -0.48109  -0.48009
 Alpha  occ. eigenvalues --   -0.47846  -0.47430  -0.47347  -0.47266  -0.46810
 Alpha  occ. eigenvalues --   -0.46247  -0.46105  -0.45841  -0.45486  -0.45324
 Alpha  occ. eigenvalues --   -0.44499  -0.44293  -0.40730  -0.39392  -0.39098
 Alpha  occ. eigenvalues --   -0.38935  -0.38536  -0.38176  -0.38063  -0.37812
 Alpha  occ. eigenvalues --   -0.37765  -0.37613  -0.37277  -0.37187  -0.36829
 Alpha  occ. eigenvalues --   -0.36735  -0.36273  -0.35979  -0.35783  -0.35181
 Alpha  occ. eigenvalues --   -0.35087  -0.34856  -0.34716  -0.34517  -0.33811
 Alpha  occ. eigenvalues --   -0.33673  -0.33612  -0.33103  -0.32292  -0.32271
 Alpha virt. eigenvalues --   -0.11941  -0.10011  -0.09897  -0.09550  -0.08844
 Alpha virt. eigenvalues --   -0.08789  -0.08381  -0.07987  -0.07753  -0.07583
 Alpha virt. eigenvalues --   -0.06979  -0.06563  -0.05706  -0.05127  -0.03867

 Mulliken charges:
               1
     1  N   -0.795613
     2  H    0.401017
     3  H    0.457826
     4  H    0.463231
     5  C   -0.260805
     6  H    0.227651
     7  H    0.209984
     8  C    0.640497
     9  O   -0.527504
    10  N   -0.567884
    11  H    0.354502
    12  C   -0.265680
    13  H    0.200360
    14  H    0.225462
    15  C    0.579990
    16  O   -0.480337
    17  N   -0.611903
    18  H    0.386691
    19  C   -0.248257
    20  H    0.167780
    21  H    0.231733
    22  C    0.659104
    23  O   -0.596112
    24  N   -0.592431
    25  H    0.382809
    26  C   -0.240214
    27  H    0.186058
    28  H    0.201850
    29  C    0.623713
    30  O   -0.554592
    31  N   -0.638666
    32  H    0.393131
    33  C   -0.171771
    34  H    0.176166
    35  H    0.195367
    36  C    0.559812
    37  O   -0.526118
    38  N   -0.584823
    39  H    0.355605
    40  C   -0.239112
    41  H    0.210621
    42  H    0.198292
    43  C    0.620446
    44  O   -0.511587
    45  N   -0.594651
    46  H    0.339785
    47  C   -0.237885
    48  H    0.251356
    49  H    0.200658
    50  C    0.616003
    51  O   -0.530331
    52  N   -0.618553
    53  H    0.405614
    54  C   -0.252129
    55  H    0.158460
    56  H    0.209560
    57  C    0.618272
    58  O   -0.569123
    59  N   -0.551201
    60  H    0.389747
    61  C   -0.255648
    62  H    0.209109
    63  H    0.187946
    64  C    0.626835
    65  O   -0.531817
    66  N   -0.590672
    67  H    0.347276
    68  C   -0.232025
    69  H    0.203013
    70  H    0.195698
    71  C    0.570569
    72  O   -0.495778
    73  N   -0.633890
    74  H    0.411641
    75  C   -0.216860
    76  H    0.213490
    77  H    0.182781
    78  C    0.644276
    79  O   -0.586356
    80  N   -0.566553
    81  H    0.373703
    82  C   -0.256327
    83  H    0.197631
    84  H    0.195129
    85  C    0.636176
    86  O   -0.556386
    87  N   -0.639517
    88  H    0.411184
    89  C   -0.255153
    90  H    0.197429
    91  H    0.189681
    92  C    0.645673
    93  O   -0.562320
    94  N   -0.561245
    95  H    0.346472
    96  C   -0.231221
    97  H    0.239258
    98  H    0.205157
    99  C    0.624562
   100  O   -0.449906
   101  O   -0.586765
   102  H    0.421878
 Sum of Mulliken charges =   1.00000

 Dipole moment (field-independent basis, Debye):
    X=              5.1785    Y=             -2.1145    Z=             -8.8733  Tot=             10.4892
 Quadrupole moment (field-independent basis, Debye-Ang):
   XX=           -272.0649   YY=           -302.0935   ZZ=           -234.9101
   XY=            -36.9537   XZ=             19.4870   YZ=             20.0512

 Normal termination of Gaussian 16 at Thu Aug 11 11:45:38 2022.
