 Gaussian 16, Revision C.01,
 Gaussian 16:  ES64L-G16RevC.01  3-Jul-2019

 ----------------------------------------------------------------------
 # B3LYP/6-31G* empiricaldispersion=gd3bj guess=read geom=check nosymm
 integral(ultrafinegrid)
 ----------------------------------------------------------------------

 ------------------------------------------------------
 Candidate Structure: Conf:145 Charge calc in gas phase
 ------------------------------------------------------
 Structure from the checkpoint file:  "conf-145.chk"
 Charge =  1 Multiplicity = 1

                          Input orientation:
 ---------------------------------------------------------------------
 Center     Atomic      Atomic             Coordinates (Angstroms)
 Number     Number       Type             X           Y           Z
 ---------------------------------------------------------------------
      1          7           0       -3.958065    6.080289   -4.012509
      2          1           0       -3.473636    5.663159   -3.196939
      3          1           0       -4.386606    6.982611   -3.798212
      4          1           0       -3.185674    6.242150   -4.710324
      5          6           0       -4.945199    5.098288   -4.540894
      6          1           0       -4.497513    4.104850   -4.492072
      7          1           0       -5.835251    5.114630   -3.906656
      8          6           0       -5.289583    5.456593   -5.987786
      9          8           0       -4.902298    6.520073   -6.469431
     10          7           0       -6.045508    4.529622   -6.609644
     11          1           0       -6.070029    3.596414   -6.206523
     12          6           0       -6.352329    4.597651   -8.037887
     13          1           0       -5.940415    5.529383   -8.427986
     14          1           0       -7.434991    4.584393   -8.190421
     15          6           0       -5.747344    3.344891   -8.668544
     16          8           0       -6.249662    2.239941   -8.439419
     17          7           0       -4.612423    3.524148   -9.369178
     18          1           0       -4.164865    4.433002   -9.487175
     19          6           0       -3.800294    2.391232   -9.784004
     20          1           0       -4.424239    1.650474  -10.290918
     21          1           0       -3.033905    2.761286  -10.463500
     22          6           0       -3.117463    1.792009   -8.551842
     23          8           0       -2.025574    2.201514   -8.140848
     24          7           0       -3.829994    0.804456   -7.954570
     25          1           0       -4.821766    0.799998   -8.190200
     26          6           0       -3.440221    0.272889   -6.675430
     27          1           0       -3.818263   -0.749192   -6.570850
     28          1           0       -2.347044    0.231185   -6.642681
     29          6           0       -3.914277    1.134769   -5.497508
     30          8           0       -4.371145    2.274591   -5.657053
     31          7           0       -3.734323    0.581680   -4.287691
     32          1           0       -3.331463   -0.344304   -4.173875
     33          6           0       -3.919570    1.315557   -3.053166
     34          1           0       -3.665843    2.365872   -3.204706
     35          1           0       -4.960902    1.258955   -2.706518
     36          6           0       -3.016875    0.684199   -1.998599
     37          8           0       -2.693299   -0.495777   -2.062328
     38          7           0       -2.662930    1.513888   -0.977732
     39          1           0       -2.678612    2.509048   -1.177385
     40          6           0       -1.706079    1.037300   -0.006676
     41          1           0       -1.709215    1.708292    0.858992
     42          1           0       -2.009766    0.042785    0.330673
     43          6           0       -0.285837    0.979860   -0.581585
     44          8           0       -0.013391    1.460474   -1.682529
     45          7           0        0.647902    0.391696    0.202982
     46          1           0        0.409363    0.171119    1.160202
     47          6           0        2.054156    0.542075   -0.131729
     48          1           0        2.646773    0.053196    0.645486
     49          1           0        2.258358    0.042136   -1.083337
     50          6           0        2.414663    2.035884   -0.186448
     51          8           0        1.958062    2.830518    0.622982
     52          7           0        3.221572    2.418366   -1.216172
     53          1           0        3.494774    1.742398   -1.914917
     54          6           0        3.490230    3.829611   -1.440044
     55          1           0        4.186891    3.925911   -2.277069
     56          1           0        3.958334    4.274442   -0.559102
     57          6           0        2.238436    4.678495   -1.723416
     58          8           0        2.261337    5.887260   -1.581122
     59          7           0        1.135784    3.985346   -2.178682
     60          1           0        1.135401    2.977590   -2.044249
     61          6           0       -0.175136    4.571455   -1.992299
     62          1           0       -0.604921    4.299897   -1.021363
     63          1           0       -0.060905    5.661093   -2.013619
     64          6           0       -1.165222    4.172034   -3.068320
     65          8           0       -2.394829    4.201626   -2.835498
     66          7           0       -0.631960    3.815913   -4.243088
     67          1           0        0.380142    3.873154   -4.285536
     68          6           0       -1.380681    3.653931   -5.470329
     69          1           0       -0.873334    2.958445   -6.139412
     70          1           0       -2.357851    3.222786   -5.246321
     71          6           0       -1.616605    5.014586   -6.137028
     72          8           0       -1.682000    6.045593   -5.439056
     73          7           0       -1.771888    5.043922   -7.462922
     74          1           0       -1.787150    4.171551   -7.999812
     75          6           0       -2.021824    6.332161   -8.105077
     76          1           0       -1.273062    7.049681   -7.758981
     77          1           0       -3.004469    6.711394   -7.795784
     78          6           0       -2.018624    6.185329   -9.615967
     79          8           0       -2.663546    5.287606  -10.177118
     80          7           0       -1.315692    7.099825  -10.291598
     81          1           0       -0.758230    7.822622   -9.840426
     82          6           0       -1.272517    7.152194  -11.736143
     83          1           0       -0.867314    6.219810  -12.147544
     84          1           0       -2.279672    7.277017  -12.151713
     85          6           0       -0.377374    8.341703  -12.107281
     86          8           0        0.155629    9.024894  -11.232371
     87          7           0       -0.230335    8.562077  -13.423503
     88          1           0       -0.677271    7.992651  -14.138154
     89          6           0        0.578720    9.639050  -13.945488
     90          1           0        1.620260    9.543516  -13.613690
     91          1           0        0.216711   10.610680  -13.586533
     92          6           0        0.492857    9.564511  -15.473021
     93          8           0       -0.175552    8.696903  -16.032154
     94          7           0        1.192940   10.504562  -16.138524
     95          1           0        1.738804   11.213864  -15.661511
     96          6           0        1.207174   10.561125  -17.583031
     97          1           0        0.197654   10.695166  -17.989990
     98          1           0        1.596888    9.632752  -18.017700
     99          6           0        2.081472   11.723614  -18.003234
    100          8           0        2.655279   12.459067  -17.228999
    101          8           0        2.139960   11.835651  -19.338994
    102          1           0        2.714809   12.598725  -19.539925
 ---------------------------------------------------------------------

 SCF Done:  E(RB3LYP) =  -2989.25932021     A.U. after    2 cycles

 Alpha  occ. eigenvalues --  -19.26978 -19.23159 -19.22533 -19.22207 -19.22116
 Alpha  occ. eigenvalues --  -19.22079 -19.21626 -19.21257 -19.21206 -19.21096
 Alpha  occ. eigenvalues --  -19.20233 -19.20067 -19.19538 -19.19300 -19.19186
 Alpha  occ. eigenvalues --  -14.53942 -14.46852 -14.46183 -14.46138 -14.46121
 Alpha  occ. eigenvalues --  -14.46058 -14.45555 -14.45364 -14.45081 -14.44575
 Alpha  occ. eigenvalues --  -14.44156 -14.43483 -14.43468 -14.43369 -10.39913
 Alpha  occ. eigenvalues --  -10.39821 -10.39796 -10.39095 -10.39081 -10.38838
 Alpha  occ. eigenvalues --  -10.38271 -10.38265 -10.37798 -10.37635 -10.37254
 Alpha  occ. eigenvalues --  -10.36806 -10.36613 -10.36443 -10.35250 -10.32580
 Alpha  occ. eigenvalues --  -10.32503 -10.32439 -10.32288 -10.32076 -10.31657
 Alpha  occ. eigenvalues --  -10.31568 -10.31363 -10.31251 -10.31167 -10.30662
 Alpha  occ. eigenvalues --  -10.30631 -10.30414  -1.18134  -1.14901  -1.14462
 Alpha  occ. eigenvalues --   -1.14362  -1.14006  -1.13602  -1.13078  -1.12899
 Alpha  occ. eigenvalues --   -1.12585  -1.12356  -1.11725  -1.11673  -1.11208
 Alpha  occ. eigenvalues --   -1.10955  -1.09283  -1.08888  -1.03523  -1.02692
 Alpha  occ. eigenvalues --   -1.02383  -1.02348  -1.02055  -1.01853  -1.01679
 Alpha  occ. eigenvalues --   -1.01473  -1.01377  -1.00458  -1.00223  -0.99792
 Alpha  occ. eigenvalues --   -0.99624  -0.86975  -0.86639  -0.86299  -0.85332
 Alpha  occ. eigenvalues --   -0.84788  -0.83744  -0.83179  -0.82100  -0.81040
 Alpha  occ. eigenvalues --   -0.80113  -0.79014  -0.77938  -0.76949  -0.76673
 Alpha  occ. eigenvalues --   -0.70449  -0.69900  -0.69629  -0.69547  -0.69206
 Alpha  occ. eigenvalues --   -0.68966  -0.68672  -0.68228  -0.68057  -0.67795
 Alpha  occ. eigenvalues --   -0.67407  -0.67158  -0.66897  -0.66191  -0.66076
 Alpha  occ. eigenvalues --   -0.65852  -0.64588  -0.64316  -0.63165  -0.62876
 Alpha  occ. eigenvalues --   -0.62563  -0.61265  -0.60784  -0.60435  -0.60168
 Alpha  occ. eigenvalues --   -0.59317  -0.59048  -0.58267  -0.58160  -0.57896
 Alpha  occ. eigenvalues --   -0.57749  -0.57392  -0.57083  -0.56893  -0.56443
 Alpha  occ. eigenvalues --   -0.56292  -0.56186  -0.56174  -0.55830  -0.55536
 Alpha  occ. eigenvalues --   -0.55449  -0.55213  -0.54794  -0.54626  -0.54181
 Alpha  occ. eigenvalues --   -0.54053  -0.53741  -0.53504  -0.53347  -0.53201
 Alpha  occ. eigenvalues --   -0.52790  -0.52646  -0.52470  -0.52043  -0.51839
 Alpha  occ. eigenvalues --   -0.51682  -0.51412  -0.51334  -0.50960  -0.50874
 Alpha  occ. eigenvalues --   -0.50262  -0.50116  -0.49965  -0.49463  -0.49179
 Alpha  occ. eigenvalues --   -0.49106  -0.48883  -0.48779  -0.48348  -0.47911
 Alpha  occ. eigenvalues --   -0.47735  -0.47352  -0.47216  -0.46899  -0.46553
 Alpha  occ. eigenvalues --   -0.46456  -0.46330  -0.46221  -0.45981  -0.45841
 Alpha  occ. eigenvalues --   -0.45559  -0.45425  -0.44968  -0.44596  -0.44162
 Alpha  occ. eigenvalues --   -0.43596  -0.42623  -0.39230  -0.38228  -0.37866
 Alpha  occ. eigenvalues --   -0.37293  -0.37026  -0.36862  -0.36761  -0.36713
 Alpha  occ. eigenvalues --   -0.36552  -0.36208  -0.36031  -0.35893  -0.35746
 Alpha  occ. eigenvalues --   -0.35601  -0.35442  -0.35216  -0.35176  -0.34800
 Alpha  occ. eigenvalues --   -0.34326  -0.34249  -0.34138  -0.33679  -0.33602
 Alpha  occ. eigenvalues --   -0.33390  -0.32904  -0.32560  -0.32316  -0.32031
 Alpha virt. eigenvalues --   -0.09680  -0.09050  -0.08440  -0.08265  -0.07761
 Alpha virt. eigenvalues --   -0.07509  -0.07113  -0.06876  -0.06549  -0.06275
 Alpha virt. eigenvalues --   -0.05874  -0.05721  -0.05252  -0.04705  -0.04154

 Mulliken charges:
               1
     1  N   -0.761284
     2  H    0.421840
     3  H    0.396665
     4  H    0.449163
     5  C   -0.316857
     6  H    0.267867
     7  H    0.216663
     8  C    0.616058
     9  O   -0.521390
    10  N   -0.589416
    11  H    0.377210
    12  C   -0.209882
    13  H    0.196858
    14  H    0.198466
    15  C    0.597557
    16  O   -0.540357
    17  N   -0.592785
    18  H    0.382566
    19  C   -0.240337
    20  H    0.191348
    21  H    0.205719
    22  C    0.597691
    23  O   -0.545620
    24  N   -0.552490
    25  H    0.379926
    26  C   -0.255918
    27  H    0.192591
    28  H    0.212438
    29  C    0.625846
    30  O   -0.561485
    31  N   -0.585462
    32  H    0.365162
    33  C   -0.234972
    34  H    0.210761
    35  H    0.195373
    36  C    0.608859
    37  O   -0.514824
    38  N   -0.588226
    39  H    0.355583
    40  C   -0.265528
    41  H    0.198867
    42  H    0.214812
    43  C    0.647669
    44  O   -0.550249
    45  N   -0.561038
    46  H    0.352823
    47  C   -0.236813
    48  H    0.200714
    49  H    0.181746
    50  C    0.593295
    51  O   -0.503441
    52  N   -0.601076
    53  H    0.342176
    54  C   -0.225401
    55  H    0.189194
    56  H    0.222423
    57  C    0.609239
    58  O   -0.487710
    59  N   -0.659874
    60  H    0.390703
    61  C   -0.213119
    62  H    0.176976
    63  H    0.224993
    64  C    0.631847
    65  O   -0.623619
    66  N   -0.530282
    67  H    0.363340
    68  C   -0.292651
    69  H    0.212318
    70  H    0.229241
    71  C    0.617838
    72  O   -0.579633
    73  N   -0.612133
    74  H    0.397322
    75  C   -0.218169
    76  H    0.188322
    77  H    0.231459
    78  C    0.607633
    79  O   -0.557170
    80  N   -0.601780
    81  H    0.369994
    82  C   -0.200577
    83  H    0.199487
    84  H    0.198359
    85  C    0.611178
    86  O   -0.530756
    87  N   -0.623781
    88  H    0.363679
    89  C   -0.194116
    90  H    0.197067
    91  H    0.197692
    92  C    0.610733
    93  O   -0.526229
    94  N   -0.625904
    95  H    0.361451
    96  C   -0.177982
    97  H    0.213426
    98  H    0.213169
    99  C    0.569861
   100  O   -0.456842
   101  O   -0.553800
   102  H    0.427725
 Sum of Mulliken charges =   1.00000

 Dipole moment (field-independent basis, Debye):
    X=             -7.3749    Y=             19.9474    Z=            -30.1575  Tot=             36.9021
 Quadrupole moment (field-independent basis, Debye-Ang):
   XX=           -253.4161   YY=           -171.1798   ZZ=             49.7100
   XY=            -44.5077   XZ=             11.6858   YZ=           -238.5916

 Normal termination of Gaussian 16 at Thu Aug 11 11:21:32 2022.
