 Gaussian 16, Revision C.01,
 Gaussian 16:  ES64L-G16RevC.01  3-Jul-2019

 ----------------------------------------------------------------------
 # B3LYP/6-31G* empiricaldispersion=gd3bj guess=read geom=check nosymm
 integral(ultrafinegrid)
 ----------------------------------------------------------------------

 ------------------------------------------------------
 Candidate Structure: Conf:202 Charge calc in gas phase
 ------------------------------------------------------
 Structure from the checkpoint file:  "conf-202.chk"
 Charge =  1 Multiplicity = 1

                          Input orientation:
 ---------------------------------------------------------------------
 Center     Atomic      Atomic             Coordinates (Angstroms)
 Number     Number       Type             X           Y           Z
 ---------------------------------------------------------------------
      1          7           0       -0.378761    8.650097    0.701142
      2          1           0        0.466882    8.759132    0.085482
      3          1           0       -0.977510    7.894983    0.295390
      4          1           0       -0.064377    8.368723    1.633589
      5          6           0       -1.133202    9.952507    0.748079
      6          1           0       -1.873377    9.899661    1.544669
      7          1           0       -0.408789   10.743770    0.955005
      8          6           0       -1.892289   10.199847   -0.565323
      9          8           0       -3.116740   10.279190   -0.559923
     10          7           0       -1.126796   10.321005   -1.676603
     11          1           0       -0.126604   10.112628   -1.625301
     12          6           0       -1.754226   10.389585   -2.996229
     13          1           0       -1.036470   10.785146   -3.714418
     14          1           0       -2.625533   11.045369   -2.942816
     15          6           0       -2.123795    8.958077   -3.383127
     16          8           0       -1.354900    8.234255   -4.025193
     17          7           0       -3.279221    8.496919   -2.839610
     18          1           0       -3.711912    9.091840   -2.134936
     19          6           0       -3.433338    7.058189   -2.680939
     20          1           0       -4.390470    6.860417   -2.194216
     21          1           0       -3.426089    6.570737   -3.658369
     22          6           0       -2.298429    6.563541   -1.781470
     23          8           0       -2.115899    7.085703   -0.674149
     24          7           0       -1.481334    5.606578   -2.264341
     25          1           0       -1.618839    5.280665   -3.211326
     26          6           0       -0.275390    5.245757   -1.542582
     27          1           0       -0.508532    5.085755   -0.489151
     28          1           0        0.114045    4.305908   -1.940714
     29          6           0        0.852097    6.284684   -1.610507
     30          8           0        1.720054    6.280348   -0.734618
     31          7           0        0.865578    7.128726   -2.660903
     32          1           0        0.043429    7.250373   -3.250736
     33          6           0        2.004627    7.999582   -2.912471
     34          1           0        2.858879    7.395808   -3.236007
     35          1           0        1.716269    8.673773   -3.724330
     36          6           0        2.379166    8.836679   -1.690754
     37          8           0        1.500568    9.435999   -1.016958
     38          7           0        3.670413    8.900333   -1.402232
     39          1           0        4.355593    8.358496   -1.940649
     40          6           0        4.215909    9.492920   -0.186547
     41          1           0        5.104774   10.074267   -0.430372
     42          1           0        3.460248   10.147166    0.253080
     43          6           0        4.650876    8.402401    0.816526
     44          8           0        5.698353    8.493511    1.436737
     45          7           0        3.763136    7.371801    0.936975
     46          1           0        3.020971    7.290872    0.250316
     47          6           0        4.113033    6.110538    1.573601
     48          1           0        5.038907    6.265796    2.134845
     49          1           0        3.329191    5.783637    2.259919
     50          6           0        4.292011    5.009766    0.521306
     51          8           0        3.763392    3.906305    0.606652
     52          7           0        5.091932    5.363304   -0.523435
     53          1           0        5.403520    6.320386   -0.653748
     54          6           0        5.244234    4.467274   -1.645006
     55          1           0        5.354400    3.448424   -1.267085
     56          1           0        6.144174    4.736613   -2.199392
     57          6           0        4.072116    4.547789   -2.622742
     58          8           0        4.006777    5.398674   -3.524251
     59          7           0        3.114007    3.605870   -2.482766
     60          1           0        3.198740    2.941183   -1.723820
     61          6           0        2.217209    3.345895   -3.596848
     62          1           0        1.532384    2.543636   -3.313771
     63          1           0        1.643356    4.247033   -3.836183
     64          6           0        3.057738    2.866827   -4.792708
     65          8           0        3.761811    1.864977   -4.689070
     66          7           0        2.996890    3.629362   -5.911172
     67          1           0        2.636261    4.569044   -5.813435
     68          6           0        3.862775    3.359692   -7.056039
     69          1           0        3.898256    2.275640   -7.195109
     70          1           0        3.434204    3.821640   -7.945403
     71          6           0        5.289139    3.915503   -6.892448
     72          8           0        5.758480    4.731579   -7.669437
     73          7           0        5.970118    3.441246   -5.801451
     74          1           0        5.557281    2.666396   -5.289461
     75          6           0        7.370905    3.770838   -5.611491
     76          1           0        7.879842    3.809798   -6.580643
     77          1           0        7.849510    2.990832   -5.014783
     78          6           0        7.653331    5.113411   -4.937343
     79          8           0        8.809864    5.445131   -4.660745
     80          7           0        6.587312    5.907638   -4.690648
     81          1           0        5.646270    5.532944   -4.729816
     82          6           0        6.756155    7.256278   -4.185403
     83          1           0        7.630577    7.699212   -4.671460
     84          1           0        5.869364    7.839563   -4.433228
     85          6           0        6.931678    7.281083   -2.667581
     86          8           0        6.037228    7.712039   -1.915185
     87          7           0        8.088831    6.773045   -2.214770
     88          1           0        8.692310    6.331802   -2.916526
     89          6           0        8.387033    6.618837   -0.795414
     90          1           0        8.182230    5.599269   -0.454174
     91          1           0        7.735423    7.295562   -0.233466
     92          6           0        9.836840    6.930635   -0.425418
     93          8           0       10.322048    6.470906    0.594389
     94          7           0       10.515777    7.735197   -1.298177
     95          1           0        9.974119    8.240471   -1.985939
     96          6           0       11.802194    8.275650   -0.919005
     97          1           0       12.406676    8.474380   -1.808977
     98          1           0       12.325063    7.525141   -0.322332
     99          6           0       11.756161    9.554074   -0.089562
    100          8           0       12.739360   10.101194    0.346424
    101          8           0       10.496465   10.018395    0.089158
    102          1           0       10.582510   10.815274    0.646198
 ---------------------------------------------------------------------

 SCF Done:  E(RB3LYP) =  -2989.24901727     A.U. after    3 cycles

 Alpha  occ. eigenvalues --  -19.26867 -19.26107 -19.25785 -19.25252 -19.25103
 Alpha  occ. eigenvalues --  -19.24787 -19.23542 -19.23530 -19.22173 -19.20622
 Alpha  occ. eigenvalues --  -19.20463 -19.20304 -19.19990 -19.19490 -19.18102
 Alpha  occ. eigenvalues --  -14.56658 -14.51269 -14.49066 -14.48866 -14.48771
 Alpha  occ. eigenvalues --  -14.48481 -14.47553 -14.47094 -14.46255 -14.45073
 Alpha  occ. eigenvalues --  -14.44795 -14.44599 -14.44275 -14.43201 -10.43630
 Alpha  occ. eigenvalues --  -10.42757 -10.42420 -10.42324 -10.41732 -10.40038
 Alpha  occ. eigenvalues --  -10.39779 -10.39505 -10.38310 -10.38108 -10.37937
 Alpha  occ. eigenvalues --  -10.37661 -10.37341 -10.37127 -10.36551 -10.36029
 Alpha  occ. eigenvalues --  -10.35837 -10.35534 -10.35078 -10.34678 -10.33138
 Alpha  occ. eigenvalues --  -10.32651 -10.32491 -10.31929 -10.31220 -10.31047
 Alpha  occ. eigenvalues --  -10.30860 -10.29702  -1.18944  -1.17729  -1.17150
 Alpha  occ. eigenvalues --   -1.16548  -1.16451  -1.16295  -1.15395  -1.14772
 Alpha  occ. eigenvalues --   -1.14029  -1.12735  -1.12508  -1.11990  -1.11793
 Alpha  occ. eigenvalues --   -1.11752  -1.10378  -1.07511  -1.07396  -1.05695
 Alpha  occ. eigenvalues --   -1.05396  -1.05056  -1.04611  -1.03681  -1.02978
 Alpha  occ. eigenvalues --   -1.02848  -1.02015  -1.01710  -1.00433  -1.00037
 Alpha  occ. eigenvalues --   -0.99271  -0.90329  -0.88940  -0.87561  -0.86999
 Alpha  occ. eigenvalues --   -0.85728  -0.85202  -0.84124  -0.83150  -0.82257
 Alpha  occ. eigenvalues --   -0.81667  -0.80813  -0.79319  -0.78381  -0.77651
 Alpha  occ. eigenvalues --   -0.74543  -0.73593  -0.72735  -0.71968  -0.71076
 Alpha  occ. eigenvalues --   -0.71025  -0.70510  -0.70100  -0.68920  -0.68727
 Alpha  occ. eigenvalues --   -0.68358  -0.68275  -0.67889  -0.67375  -0.67203
 Alpha  occ. eigenvalues --   -0.66875  -0.66154  -0.65748  -0.65616  -0.65156
 Alpha  occ. eigenvalues --   -0.64097  -0.63716  -0.63466  -0.63183  -0.62810
 Alpha  occ. eigenvalues --   -0.62366  -0.61854  -0.61598  -0.61393  -0.60588
 Alpha  occ. eigenvalues --   -0.60162  -0.59615  -0.59508  -0.59082  -0.58620
 Alpha  occ. eigenvalues --   -0.57974  -0.57763  -0.57623  -0.57097  -0.56944
 Alpha  occ. eigenvalues --   -0.56432  -0.55903  -0.55764  -0.55185  -0.54943
 Alpha  occ. eigenvalues --   -0.54757  -0.54634  -0.54369  -0.54197  -0.54011
 Alpha  occ. eigenvalues --   -0.53928  -0.53661  -0.53385  -0.53059  -0.52683
 Alpha  occ. eigenvalues --   -0.52586  -0.52160  -0.51967  -0.51773  -0.51655
 Alpha  occ. eigenvalues --   -0.51534  -0.51339  -0.51049  -0.50901  -0.50784
 Alpha  occ. eigenvalues --   -0.50648  -0.50446  -0.50299  -0.50024  -0.49714
 Alpha  occ. eigenvalues --   -0.49543  -0.49306  -0.49112  -0.48720  -0.48484
 Alpha  occ. eigenvalues --   -0.48428  -0.47924  -0.47490  -0.47237  -0.46731
 Alpha  occ. eigenvalues --   -0.46305  -0.46116  -0.45734  -0.45102  -0.44961
 Alpha  occ. eigenvalues --   -0.44289  -0.43490  -0.42668  -0.41669  -0.41268
 Alpha  occ. eigenvalues --   -0.40541  -0.40175  -0.39149  -0.38923  -0.38805
 Alpha  occ. eigenvalues --   -0.38549  -0.38330  -0.38231  -0.38070  -0.37590
 Alpha  occ. eigenvalues --   -0.37484  -0.36896  -0.36809  -0.36476  -0.36190
 Alpha  occ. eigenvalues --   -0.35387  -0.35237  -0.34334  -0.34053  -0.33736
 Alpha  occ. eigenvalues --   -0.33122  -0.33003  -0.32565  -0.31979  -0.31237
 Alpha virt. eigenvalues --   -0.13388  -0.12990  -0.12326  -0.11517  -0.10914
 Alpha virt. eigenvalues --   -0.10509  -0.09516  -0.09346  -0.07596  -0.06808
 Alpha virt. eigenvalues --   -0.06472  -0.06178  -0.05724  -0.05488  -0.04624

 Mulliken charges:
               1
     1  N   -0.810042
     2  H    0.450280
     3  H    0.448935
     4  H    0.403522
     5  C   -0.268406
     6  H    0.238216
     7  H    0.230276
     8  C    0.605070
     9  O   -0.502125
    10  N   -0.604199
    11  H    0.388250
    12  C   -0.238732
    13  H    0.198310
    14  H    0.215952
    15  C    0.596317
    16  O   -0.550514
    17  N   -0.552037
    18  H    0.388117
    19  C   -0.230840
    20  H    0.217136
    21  H    0.193341
    22  C    0.617811
    23  O   -0.558683
    24  N   -0.572117
    25  H    0.360615
    26  C   -0.244344
    27  H    0.217407
    28  H    0.210885
    29  C    0.609335
    30  O   -0.543060
    31  N   -0.618847
    32  H    0.405046
    33  C   -0.258810
    34  H    0.230071
    35  H    0.199797
    36  C    0.634158
    37  O   -0.621913
    38  N   -0.580710
    39  H    0.399311
    40  C   -0.243981
    41  H    0.212078
    42  H    0.197562
    43  C    0.582450
    44  O   -0.492319
    45  N   -0.634757
    46  H    0.390843
    47  C   -0.230678
    48  H    0.223835
    49  H    0.180181
    50  C    0.598643
    51  O   -0.528106
    52  N   -0.615184
    53  H    0.401836
    54  C   -0.238994
    55  H    0.196223
    56  H    0.178541
    57  C    0.623488
    58  O   -0.573297
    59  N   -0.554265
    60  H    0.373461
    61  C   -0.231661
    62  H    0.195222
    63  H    0.150378
    64  C    0.607057
    65  O   -0.520542
    66  N   -0.562739
    67  H    0.344213
    68  C   -0.248906
    69  H    0.212485
    70  H    0.196300
    71  C    0.574211
    72  O   -0.483215
    73  N   -0.630327
    74  H    0.375197
    75  C   -0.220129
    76  H    0.225386
    77  H    0.192820
    78  C    0.606478
    79  O   -0.537442
    80  N   -0.591677
    81  H    0.386759
    82  C   -0.218441
    83  H    0.205012
    84  H    0.173443
    85  C    0.598829
    86  O   -0.574543
    87  N   -0.607304
    88  H    0.394716
    89  C   -0.251271
    90  H    0.198991
    91  H    0.232052
    92  C    0.599325
    93  O   -0.493873
    94  N   -0.574593
    95  H    0.334243
    96  C   -0.240596
    97  H    0.200174
    98  H    0.236192
    99  C    0.587617
   100  O   -0.440784
   101  O   -0.568023
   102  H    0.418628
 Sum of Mulliken charges =   1.00000

 Dipole moment (field-independent basis, Debye):
    X=             -1.5832    Y=             36.0793    Z=            -11.7577  Tot=             37.9798
 Quadrupole moment (field-independent basis, Debye-Ang):
   XX=           -337.3683   YY=            -18.8292   ZZ=           -292.6308
   XY=             -6.1689   XZ=            -30.3583   YZ=            -65.1232

 Normal termination of Gaussian 16 at Thu Aug 11 11:45:17 2022.
