 Gaussian 16, Revision C.01,
 Gaussian 16:  ES64L-G16RevC.01  3-Jul-2019

 -------------------------------------------------------------------
 # B3LYP/6-31G* guess=read geom=check nosymm integral(ultrafinegrid)
 -------------------------------------------------------------------

 ------------------------------------------------------
 Candidate Structure: Conf:304 Charge calc in gas phase
 ------------------------------------------------------
 Structure from the checkpoint file:  "conf-304.chk"
 Charge =  1 Multiplicity = 1

                          Input orientation:
 ---------------------------------------------------------------------
 Center     Atomic      Atomic             Coordinates (Angstroms)
 Number     Number       Type             X           Y           Z
 ---------------------------------------------------------------------
      1          7           0       -9.513429   -2.686523   -8.485972
      2          1           0       -8.558053   -2.705859   -8.855378
      3          1           0       -9.967469   -3.600071   -8.649921
      4          1           0      -10.050893   -1.970829   -8.990110
      5          6           0       -9.541038   -2.465068   -6.993773
      6          1           0       -9.279706   -1.421895   -6.783607
      7          6           0       -8.508018   -3.399109   -6.341728
      8          6           0      -10.957052   -2.790602   -6.521394
      9          1           0      -11.669929   -2.099967   -6.981550
     10          1           0      -11.021796   -2.680157   -5.433155
     11          8           0       -8.851274   -4.448348   -5.799541
     12          8           0      -11.311119   -4.091430   -6.953145
     13          1           0      -10.706494   -4.689922   -6.475487
     14          7           0       -7.212013   -3.018041   -6.518999
     15          1           0       -7.019349   -2.025498   -6.619628
     16          6           0       -6.122249   -3.723277   -5.845167
     17          1           0       -6.498561   -4.708776   -5.568820
     18          6           0       -5.740691   -2.916275   -4.598389
     19          6           0       -4.902275   -3.851460   -6.763278
     20          1           0       -4.087393   -4.365457   -6.243541
     21          1           0       -4.541046   -2.858305   -7.052250
     22          1           0       -5.155285   -4.409971   -7.667693
     23          8           0       -5.783240   -1.686946   -4.621491
     24          7           0       -5.319088   -3.637842   -3.530811
     25          1           0       -5.084554   -4.613563   -3.673394
     26          6           0       -4.550268   -3.009055   -2.461938
     27          1           0       -5.097324   -2.123616   -2.131180
     28          6           0       -3.164896   -2.611816   -2.987324
     29          6           0       -4.382656   -4.024330   -1.311154
     30          1           0       -3.621410   -3.630449   -0.621905
     31          8           0       -2.432846   -3.465716   -3.502563
     32          6           0       -5.673365   -4.271265   -0.549109
     33          1           0       -6.014390   -3.354917   -0.057050
     34          1           0       -6.460541   -4.616311   -1.224680
     35          1           0       -5.510250   -5.039529    0.210370
     36          8           0       -3.954225   -5.272438   -1.850485
     37          1           0       -3.102567   -5.108029   -2.293193
     38          7           0       -2.833739   -1.311590   -2.868256
     39          1           0       -3.469485   -0.654776   -2.434449
     40          6           0       -1.581208   -0.752428   -3.365452
     41          1           0       -0.875728   -1.580710   -3.477713
     42          6           0       -1.110683    0.238775   -2.296538
     43          6           0       -1.742762   -0.041249   -4.733296
     44          1           0       -2.417577    0.806196   -4.566852
     45          8           0       -1.868111    1.121151   -1.897651
     46          6           0       -0.393833    0.491735   -5.232809
     47          1           0        0.304698   -0.336303   -5.404158
     48          1           0        0.068113    1.186738   -4.525460
     49          1           0       -0.525215    1.019393   -6.181972
     50          6           0       -2.369470   -0.974661   -5.776669
     51          1           0       -1.800371   -1.907723   -5.849602
     52          1           0       -3.404844   -1.217410   -5.529736
     53          1           0       -2.361789   -0.489731   -6.757964
     54          7           0        0.168473    0.106202   -1.868691
     55          1           0        0.690722   -0.725028   -2.110558
     56          6           0        0.714919    0.935489   -0.791731
     57          1           0        0.367640    1.953362   -0.983396
     58          6           0        2.239450    0.868949   -0.939227
     59          6           0        0.199309    0.509534    0.615326
     60          1           0       -0.856612    0.806554    0.617662
     61          8           0        2.856008   -0.184889   -0.724910
     62          6           0        0.888637    1.261813    1.771314
     63          1           0        1.975370    1.103106    1.739928
     64          1           0        0.540006    0.798985    2.704621
     65          6           0        0.240276   -1.011257    0.828327
     66          1           0        1.235094   -1.406390    0.610702
     67          1           0       -0.470529   -1.523024    0.172887
     68          1           0       -0.027610   -1.258614    1.859666
     69          6           0        0.589095    2.762188    1.826000
     70          1           0        0.927536    3.186786    2.775934
     71          1           0        1.091456    3.312509    1.027521
     72          1           0       -0.489120    2.945813    1.752286
     73          7           0        2.833469    2.010124   -1.362103
     74          1           0        2.264656    2.843024   -1.290595
     75          6           0        4.268656    2.225028   -1.172046
     76          1           0        4.783704    1.307531   -1.451435
     77          6           0        4.529548    2.486291    0.325963
     78          6           0        4.810465    3.365308   -2.028968
     79          1           0        4.593193    3.159581   -3.081047
     80          1           0        4.350561    4.316735   -1.743710
     81          8           0        3.665702    2.965182    1.071298
     82          6           0        6.362933    3.477616   -1.861654
     83          8           0        6.833368    4.614399   -1.997422
     84          8           0        6.963104    2.385968   -1.623692
     85          7           0        5.756726    2.080876    0.740646
     86          1           0        6.460548    1.968219   -0.015729
     87          6           0        6.088765    2.078989    2.151187
     88          1           0        5.145694    2.249607    2.684982
     89          6           0        7.055461    3.215483    2.517924
     90          6           0        6.653822    0.713339    2.559285
     91          1           0        7.071928    0.777918    3.567599
     92          1           0        7.482905    0.436722    1.901745
     93          8           0        8.174338    2.986624    2.982948
     94          6           0        5.575564   -0.334613    2.526852
     95          6           0        4.601555   -0.634471    1.608432
     96          1           0        4.340708   -0.208629    0.645421
     97          7           0        5.374854   -1.210033    3.584711
     98          1           0        5.945238   -1.233635    4.424138
     99          6           0        4.326271   -2.005913    3.333348
    100          1           0        3.946381   -2.790787    3.965149
    101          7           0        3.851833   -1.667772    2.131198
    102          7           0        6.581888    4.456275    2.283537
    103          1           0        5.660904    4.555750    1.872434
    104          6           0        7.475573    5.619246    2.259188
    105          1           0        8.483795    5.211148    2.138335
    106          6           0        7.447504    6.346709    3.612738
    107          6           0        7.146127    6.517965    1.070112
    108          1           0        7.072673    5.869778    0.190015
    109          1           0        6.152181    6.955181    1.221461
    110          8           0        7.004851    7.479036    3.748132
    111          6           0        8.155407    7.654796    0.772027
    112          1           0        7.852877    8.531099    1.355135
    113          6           0        9.601657    7.316342    1.158642
    114          1           0        9.924609    6.379693    0.686794
    115          1           0       10.275663    8.107151    0.812868
    116          1           0        9.745794    7.213255    2.237658
    117          6           0        8.071165    7.994246   -0.722344
    118          1           0        8.398600    7.140097   -1.324280
    119          1           0        8.702456    8.854566   -0.969731
    120          1           0        7.044298    8.228721   -1.022974
    121          7           0        7.940726    5.608581    4.656291
    122          1           0        8.467350    4.783458    4.388666
    123          6           0        8.463080    6.323019    5.807107
    124          1           0        7.718723    7.044564    6.146291
    125          6           0        9.801808    7.121620    5.425069
    126          6           0        8.851851    5.363528    6.930983
    127          1           0        9.662382    4.714764    6.575292
    128          1           0        7.999818    4.716040    7.180346
    129          8           0        9.966535    8.172936    6.079613
    130          6           0        9.298451    6.157780    8.159328
    131          1           0       10.169990    6.766422    7.897254
    132          1           0        8.502692    6.856195    8.440693
    133          6           0        9.624411    5.279896    9.359213
    134          1           0        8.747404    4.692148    9.651837
    135          1           0       10.435150    4.579006    9.116141
    136          7           0       10.021270    6.149789   10.488505
    137          1           0       10.498611    6.997643   10.202021
    138          7           0       10.056706    4.428602   12.054542
    139          1           0       10.511879    4.046160   12.871359
    140          1           0        9.886397    3.765624   11.311159
    141          7           0       10.884076    6.540267   12.612606
    142          1           0       10.791700    6.284458   13.587292
    143          1           0       10.752313    7.531808   12.451075
    144          6           0       10.326085    5.701365   11.703986
    145          8           0       10.510084    6.542177    4.577753
    146          1           0        3.041964   -2.070650    1.668250
 ---------------------------------------------------------------------

 SCF Done:  E(RB3LYP) =  -3503.19310690     A.U. after    3 cycles

 Alpha  occ. eigenvalues --  -19.27961 -19.26367 -19.21752 -19.21698 -19.19575
 Alpha  occ. eigenvalues --  -19.18033 -19.18022 -19.14877 -19.13107 -19.08705
 Alpha  occ. eigenvalues --  -19.04784 -19.03990 -19.03240 -19.02828 -14.62840
 Alpha  occ. eigenvalues --  -14.53388 -14.53244 -14.50950 -14.50527 -14.49769
 Alpha  occ. eigenvalues --  -14.49637 -14.45327 -14.44148 -14.42915 -14.40821
 Alpha  occ. eigenvalues --  -14.37474 -14.36616 -14.31989 -10.46623 -10.43401
 Alpha  occ. eigenvalues --  -10.41249 -10.40102 -10.38556 -10.38192 -10.36688
 Alpha  occ. eigenvalues --  -10.35183 -10.34559 -10.34315 -10.34162 -10.32306
 Alpha  occ. eigenvalues --  -10.32149 -10.31498 -10.31445 -10.31194 -10.30111
 Alpha  occ. eigenvalues --  -10.29950 -10.29098 -10.28494 -10.27209 -10.26885
 Alpha  occ. eigenvalues --  -10.25625 -10.25262 -10.24920 -10.24775 -10.24756
 Alpha  occ. eigenvalues --  -10.23996 -10.23302 -10.23221 -10.23085 -10.22896
 Alpha  occ. eigenvalues --  -10.22609 -10.21092 -10.20857 -10.20673 -10.20218
 Alpha  occ. eigenvalues --  -10.18681 -10.17583 -10.14845 -10.14775 -10.13087
 Alpha  occ. eigenvalues --  -10.12370  -1.19459  -1.17437  -1.16822  -1.15306
 Alpha  occ. eigenvalues --   -1.14951  -1.13708  -1.11658  -1.10222  -1.09361
 Alpha  occ. eigenvalues --   -1.09187  -1.06357  -1.05848  -1.04771  -1.04480
 Alpha  occ. eigenvalues --   -1.04113  -1.03919  -1.01697  -1.00479  -1.00332
 Alpha  occ. eigenvalues --   -0.99100  -0.98087  -0.97052  -0.96309  -0.95414
 Alpha  occ. eigenvalues --   -0.93043  -0.92777  -0.89907  -0.89282  -0.89003
 Alpha  occ. eigenvalues --   -0.88629  -0.87796  -0.87402  -0.86204  -0.85764
 Alpha  occ. eigenvalues --   -0.85093  -0.82965  -0.80751  -0.80697  -0.79933
 Alpha  occ. eigenvalues --   -0.79560  -0.78659  -0.78275  -0.77711  -0.77410
 Alpha  occ. eigenvalues --   -0.76022  -0.75830  -0.75788  -0.75383  -0.74686
 Alpha  occ. eigenvalues --   -0.74272  -0.74078  -0.72744  -0.72346  -0.72014
 Alpha  occ. eigenvalues --   -0.70428  -0.69698  -0.69242  -0.68691  -0.68093
 Alpha  occ. eigenvalues --   -0.67617  -0.67061  -0.66797  -0.66549  -0.65973
 Alpha  occ. eigenvalues --   -0.65577  -0.64592  -0.64219  -0.64119  -0.63938
 Alpha  occ. eigenvalues --   -0.63763  -0.63331  -0.62988  -0.62958  -0.61922
 Alpha  occ. eigenvalues --   -0.61831  -0.61384  -0.60769  -0.60278  -0.60269
 Alpha  occ. eigenvalues --   -0.59541  -0.59355  -0.58945  -0.58351  -0.58150
 Alpha  occ. eigenvalues --   -0.58131  -0.58063  -0.57218  -0.56501  -0.56358
 Alpha  occ. eigenvalues --   -0.56010  -0.55938  -0.55314  -0.55148  -0.54765
 Alpha  occ. eigenvalues --   -0.54310  -0.53905  -0.53281  -0.53184  -0.53062
 Alpha  occ. eigenvalues --   -0.52584  -0.52234  -0.52221  -0.52003  -0.51698
 Alpha  occ. eigenvalues --   -0.51251  -0.50903  -0.50474  -0.50154  -0.49830
 Alpha  occ. eigenvalues --   -0.49588  -0.49066  -0.48862  -0.48694  -0.48444
 Alpha  occ. eigenvalues --   -0.47881  -0.47661  -0.47576  -0.47375  -0.47031
 Alpha  occ. eigenvalues --   -0.46953  -0.46515  -0.46299  -0.46243  -0.46043
 Alpha  occ. eigenvalues --   -0.45761  -0.45733  -0.45610  -0.45535  -0.45306
 Alpha  occ. eigenvalues --   -0.45190  -0.44851  -0.44573  -0.44255  -0.44089
 Alpha  occ. eigenvalues --   -0.44022  -0.43794  -0.43766  -0.43260  -0.42685
 Alpha  occ. eigenvalues --   -0.42461  -0.42140  -0.41819  -0.41759  -0.41618
 Alpha  occ. eigenvalues --   -0.41230  -0.40963  -0.40890  -0.40508  -0.40439
 Alpha  occ. eigenvalues --   -0.39893  -0.39678  -0.39533  -0.39521  -0.39254
 Alpha  occ. eigenvalues --   -0.39240  -0.38990  -0.38562  -0.38522  -0.38188
 Alpha  occ. eigenvalues --   -0.38076  -0.37902  -0.37534  -0.37321  -0.37240
 Alpha  occ. eigenvalues --   -0.36942  -0.36391  -0.36366  -0.35499  -0.35384
 Alpha  occ. eigenvalues --   -0.34991  -0.34906  -0.34620  -0.34083  -0.33891
 Alpha  occ. eigenvalues --   -0.33722  -0.32949  -0.32831  -0.32571  -0.32526
 Alpha  occ. eigenvalues --   -0.32367  -0.32337  -0.31835  -0.31344  -0.30955
 Alpha  occ. eigenvalues --   -0.30429  -0.29763  -0.29271  -0.28476  -0.28123
 Alpha  occ. eigenvalues --   -0.27925  -0.26889  -0.25746  -0.23994  -0.21428
 Alpha  occ. eigenvalues --   -0.20553  -0.19608  -0.18767  -0.18153  -0.17233
 Alpha  occ. eigenvalues --   -0.15886
 Alpha virt. eigenvalues --   -0.15454  -0.12354  -0.11687  -0.11524  -0.08255
 Alpha virt. eigenvalues --   -0.07113  -0.06821  -0.06393  -0.06154  -0.05728
 Alpha virt. eigenvalues --   -0.05241  -0.04484  -0.03968  -0.03418  -0.02350

 Mulliken charges:
               1
     1  N   -0.705304
     2  H    0.416170
     3  H    0.422266
     4  H    0.406125
     5  C   -0.168694
     6  H    0.219226
     7  C    0.606440
     8  C   -0.044449
     9  H    0.178237
    10  H    0.205473
    11  O   -0.497756
    12  O   -0.621953
    13  H    0.439276
    14  N   -0.593527
    15  H    0.347330
    16  C   -0.096082
    17  H    0.199367
    18  C    0.640286
    19  C   -0.458099
    20  H    0.195590
    21  H    0.176970
    22  H    0.164160
    23  O   -0.537913
    24  N   -0.580169
    25  H    0.351941
    26  C   -0.078215
    27  H    0.169027
    28  C    0.634584
    29  C    0.112684
    30  H    0.139015
    31  O   -0.564873
    32  C   -0.450092
    33  H    0.150377
    34  H    0.161362
    35  H    0.176250
    36  O   -0.637680
    37  H    0.415557
    38  N   -0.601199
    39  H    0.355007
    40  C   -0.042010
    41  H    0.165848
    42  C    0.620001
    43  C   -0.072179
    44  H    0.150933
    45  O   -0.541735
    46  C   -0.461719
    47  H    0.146631
    48  H    0.167886
    49  H    0.158533
    50  C   -0.477967
    51  H    0.157694
    52  H    0.158749
    53  H    0.142727
    54  N   -0.619123
    55  H    0.345290
    56  C   -0.030912
    57  H    0.178051
    58  C    0.614271
    59  C   -0.076060
    60  H    0.156740
    61  O   -0.581262
    62  C   -0.275492
    63  H    0.149919
    64  H    0.118426
    65  C   -0.482613
    66  H    0.141208
    67  H    0.141774
    68  H    0.139534
    69  C   -0.439974
    70  H    0.154438
    71  H    0.164458
    72  H    0.136550
    73  N   -0.567917
    74  H    0.344407
    75  C   -0.061926
    76  H    0.188878
    77  C    0.581622
    78  C   -0.376013
    79  H    0.153341
    80  H    0.142001
    81  O   -0.564806
    82  C    0.572772
    83  O   -0.549198
    84  O   -0.625885
    85  N   -0.610732
    86  H    0.399835
    87  C   -0.083252
    88  H    0.182694
    89  C    0.647775
    90  C   -0.350136
    91  H    0.171536
    92  H    0.222222
    93  O   -0.549170
    94  C    0.317554
    95  C    0.010557
    96  H    0.290725
    97  N   -0.597057
    98  H    0.383406
    99  C    0.298247
   100  H    0.235454
   101  N   -0.554022
   102  N   -0.600154
   103  H    0.348008
   104  C   -0.084247
   105  H    0.203183
   106  C    0.638715
   107  C   -0.311304
   108  H    0.188733
   109  H    0.124833
   110  O   -0.526500
   111  C   -0.060238
   112  H    0.142466
   113  C   -0.484778
   114  H    0.133238
   115  H    0.126571
   116  H    0.200477
   117  C   -0.450170
   118  H    0.172397
   119  H    0.120476
   120  H    0.125812
   121  N   -0.612704
   122  H    0.341869
   123  C   -0.017302
   124  H    0.148114
   125  C    0.571511
   126  C   -0.296437
   127  H    0.149523
   128  H    0.108692
   129  O   -0.591833
   130  C   -0.308799
   131  H    0.204244
   132  H    0.163010
   133  C   -0.168184
   134  H    0.168444
   135  H    0.179180
   136  N   -0.576810
   137  H    0.381739
   138  N   -0.737077
   139  H    0.377743
   140  H    0.391724
   141  N   -0.733844
   142  H    0.373050
   143  H    0.384473
   144  C    0.770374
   145  O   -0.587227
   146  H    0.400766
 Sum of Mulliken charges =   1.00000

 Dipole moment (field-independent basis, Debye):
    X=            -30.8604    Y=            -27.2991    Z=             11.4595  Tot=             42.7659
 Quadrupole moment (field-independent basis, Debye-Ang):
   XX=           -104.5336   YY=           -512.1289   ZZ=            340.5349
   XY=            -44.0687   XZ=            666.5978   YZ=            188.8649

 Normal termination of Gaussian 16 at Sun Jun 19 12:00:58 2022.
