 Gaussian 16, Revision C.01,
 Gaussian 16:  ES64L-G16RevC.01  3-Jul-2019

 -------------------------------------------------------------------
 # B3LYP/6-31G* guess=read geom=check nosymm integral(ultrafinegrid)
 -------------------------------------------------------------------

 ------------------------------------------------------
 Candidate Structure: Conf:123 Charge calc in gas phase
 ------------------------------------------------------
 Structure from the checkpoint file:  "conf-123.chk"
 Charge =  1 Multiplicity = 1

                          Input orientation:
 ---------------------------------------------------------------------
 Center     Atomic      Atomic             Coordinates (Angstroms)
 Number     Number       Type             X           Y           Z
 ---------------------------------------------------------------------
      1          7           0      -11.562486   -3.733663   -0.018617
      2          1           0      -10.783259   -4.356136    0.343607
      3          1           0      -11.729895   -2.986183    0.674444
      4          1           0      -12.421476   -4.256910   -0.199922
      5          6           0      -10.935807   -3.099211   -1.233792
      6          1           0      -11.335533   -3.581506   -2.129871
      7          6           0       -9.426573   -3.468896   -1.074564
      8          6           0      -11.263840   -1.601044   -1.226862
      9          1           0      -12.304652   -1.442733   -1.544050
     10          1           0      -10.612031   -1.076472   -1.936177
     11          8           0       -9.132540   -4.282071   -0.187718
     12          8           0      -11.051804   -1.184432    0.112352
     13          1           0      -11.257732   -0.241131    0.207781
     14          7           0       -8.584822   -2.907649   -1.930427
     15          1           0       -8.864171   -2.201627   -2.615072
     16          6           0       -7.132085   -3.094878   -1.916960
     17          1           0       -6.784384   -3.030580   -0.879866
     18          6           0       -6.588138   -1.894818   -2.726755
     19          6           0       -6.713453   -4.445589   -2.518709
     20          1           0       -5.625530   -4.556574   -2.487405
     21          1           0       -7.039384   -4.523038   -3.560715
     22          1           0       -7.156210   -5.262201   -1.942322
     23          8           0       -7.386544   -1.201222   -3.382833
     24          7           0       -5.272108   -1.705339   -2.663864
     25          1           0       -4.678944   -2.295457   -2.075356
     26          6           0       -4.463968   -0.744036   -3.427351
     27          1           0       -4.741169   -0.796891   -4.487135
     28          6           0       -3.021822   -1.277972   -3.237229
     29          6           0       -4.712592    0.730922   -2.959787
     30          1           0       -4.742464    0.701016   -1.857355
     31          8           0       -2.773701   -2.075693   -2.328822
     32          6           0       -3.650241    1.733480   -3.397714
     33          1           0       -2.665045    1.530306   -2.970249
     34          1           0       -3.582590    1.766668   -4.493366
     35          1           0       -3.976440    2.726508   -3.075081
     36          8           0       -5.937308    1.202943   -3.493495
     37          1           0       -6.603952    0.491202   -3.457194
     38          7           0       -2.102383   -0.880407   -4.139884
     39          1           0       -2.328213   -0.089073   -4.728505
     40          6           0       -0.681155   -1.191690   -3.969168
     41          1           0       -0.600507   -2.275005   -3.826204
     42          6           0       -0.154016   -0.458984   -2.714008
     43          6           0        0.094428   -0.775326   -5.244686
     44          1           0       -0.073928    0.304469   -5.374509
     45          8           0       -0.483714    0.701740   -2.478791
     46          6           0        1.606623   -0.998953   -5.092128
     47          1           0        1.838382   -2.054422   -4.902102
     48          1           0        2.035878   -0.410423   -4.276761
     49          1           0        2.119087   -0.710916   -6.015800
     50          6           0       -0.432226   -1.516764   -6.484051
     51          1           0       -0.261772   -2.596631   -6.391902
     52          1           0       -1.504299   -1.362360   -6.644101
     53          1           0        0.092200   -1.172949   -7.381889
     54          7           0        0.675651   -1.186227   -1.929505
     55          1           0        1.041525   -2.072131   -2.263295
     56          6           0        1.424917   -0.617797   -0.819540
     57          1           0        1.410727    0.470597   -0.940156
     58          6           0        2.869276   -1.139386   -0.950273
     59          6           0        0.810838   -0.964482    0.572782
     60          1           0        1.478873   -0.510892    1.321440
     61          8           0        3.126814   -2.132296   -1.632330
     62          6           0        0.778671   -2.485657    0.829309
     63          1           0        1.759291   -2.917898    0.594086
     64          1           0        0.066689   -2.945333    0.130387
     65          6           0       -0.574630   -0.316817    0.718637
     66          1           0       -1.291669   -0.773751    0.027309
     67          1           0       -0.538753    0.755266    0.499808
     68          1           0       -0.956583   -0.440651    1.737011
     69          6           0        0.407279   -2.870003    2.266590
     70          1           0        0.462761   -3.955964    2.401369
     71          1           0        1.092778   -2.411411    2.989922
     72          1           0       -0.609814   -2.558608    2.527858
     73          7           0        3.802969   -0.431594   -0.267491
     74          1           0        3.493578    0.234516    0.433291
     75          6           0        5.170791   -0.901779   -0.060513
     76          1           0        5.140038   -1.932931    0.321826
     77          6           0        5.732837   -0.035184    1.093674
     78          6           0        5.984874   -0.952928   -1.379598
     79          1           0        5.366330   -1.488729   -2.102318
     80          1           0        6.200768    0.051005   -1.754824
     81          8           0        4.960260    0.317861    1.997396
     82          6           0        7.260384   -1.751988   -1.153900
     83          8           0        7.275278   -2.938557   -0.909924
     84          8           0        8.362052   -0.967148   -1.141535
     85          7           0        7.045088    0.260850    1.086046
     86          1           0        7.605444    0.045353    0.264370
     87          6           0        7.757995    0.846503    2.227820
     88          1           0        7.306048    0.424406    3.133369
     89          6           0        7.595668    2.390769    2.289111
     90          6           0        9.257372    0.484833    2.162164
     91          1           0        9.748165    1.003204    2.990036
     92          1           0        9.684703    0.920633    1.252921
     93          8           0        8.562006    3.144303    2.182318
     94          6           0        9.568955   -0.983852    2.217706
     95          6           0        9.823235   -1.761565    3.321356
     96          1           0        9.872756   -1.526060    4.373608
     97          7           0        9.652407   -1.776692    1.081432
     98          1           0        9.047842   -1.405927   -0.542192
     99          6           0        9.933538   -2.996892    1.492204
    100          1           0       10.048805   -3.864900    0.859198
    101          7           0       10.050414   -3.036674    2.843941
    102          7           0        6.326881    2.820162    2.484448
    103          1           0        5.588787    2.123035    2.565568
    104          6           0        5.984234    4.246235    2.494007
    105          1           0        6.729653    4.738426    1.862135
    106          6           0        6.120577    4.805941    3.933492
    107          6           0        4.571104    4.449505    1.936788
    108          1           0        4.488941    3.872586    1.004492
    109          1           0        3.860579    4.022654    2.654878
    110          8           0        5.138498    5.073871    4.628358
    111          6           0        4.174295    5.914268    1.661217
    112          1           0        4.327402    6.477043    2.590165
    113          6           0        5.019493    6.557515    0.550839
    114          1           0        4.907281    6.011593   -0.395642
    115          1           0        4.704214    7.592543    0.374361
    116          1           0        6.086992    6.581555    0.796444
    117          6           0        2.680453    5.989820    1.311343
    118          1           0        2.459189    5.422510    0.397002
    119          1           0        2.367600    7.026525    1.140350
    120          1           0        2.061888    5.581000    2.118865
    121          7           0        7.395051    4.953701    4.361597
    122          1           0        8.185416    4.732545    3.757342
    123          6           0        7.698721    5.496020    5.674436
    124          1           0        7.109741    6.411384    5.809870
    125          6           0        9.185508    5.893962    5.672921
    126          6           0        7.336673    4.518045    6.846321
    127          1           0        8.238216    4.249709    7.412801
    128          1           0        6.979394    3.594512    6.382359
    129          8           0        9.926983    5.638005    4.747046
    130          6           0        6.247481    5.041152    7.802360
    131          1           0        5.487372    5.558810    7.207407
    132          1           0        5.744949    4.186258    8.273711
    133          6           0        6.749095    5.949142    8.937977
    134          1           0        5.867430    6.319168    9.488779
    135          1           0        7.330781    5.343643    9.650619
    136          7           0        7.591459    7.024281    8.440395
    137          1           0        8.827256    6.664015    7.424731
    138          7           0        6.934179    8.624931   10.092546
    139          1           0        6.587225    9.575982   10.077503
    140          1           0        6.285273    7.967314   10.501328
    141          7           0        8.304535    9.225015    8.326847
    142          1           0        8.795226    9.848994    8.957254
    143          1           0        8.896319    8.890817    7.573629
    144          6           0        7.589084    8.211328    8.947087
    145          8           0        9.598499    6.538043    6.764715
    146          1           0       10.277432   -3.849834    3.398345
 ---------------------------------------------------------------------

 SCF Done:  E(RB3LYP) =  -3503.38344029     A.U. after    1 cycles

 Alpha  occ. eigenvalues --  -19.31447 -19.27322 -19.23493 -19.21592 -19.20467
 Alpha  occ. eigenvalues --  -19.19234 -19.18019 -19.17807 -19.17352 -19.17311
 Alpha  occ. eigenvalues --  -19.16934 -19.15069 -19.13937 -19.13352 -14.59950
 Alpha  occ. eigenvalues --  -14.49931 -14.46256 -14.45159 -14.43991 -14.41506
 Alpha  occ. eigenvalues --  -14.41381 -14.41140 -14.40070 -14.38867 -14.38757
 Alpha  occ. eigenvalues --  -14.38078 -14.37013 -14.35045 -10.44310 -10.41889
 Alpha  occ. eigenvalues --  -10.40578 -10.40248 -10.37329 -10.35561 -10.35528
 Alpha  occ. eigenvalues --  -10.34916 -10.34194 -10.34129 -10.33839 -10.32347
 Alpha  occ. eigenvalues --  -10.32109 -10.32092 -10.31033 -10.30267 -10.30003
 Alpha  occ. eigenvalues --  -10.29822 -10.29645 -10.28815 -10.28384 -10.28207
 Alpha  occ. eigenvalues --  -10.26885 -10.26257 -10.26214 -10.25583 -10.25286
 Alpha  occ. eigenvalues --  -10.25019 -10.24392 -10.24305 -10.23842 -10.23656
 Alpha  occ. eigenvalues --  -10.23122 -10.22951 -10.22458 -10.21755 -10.21550
 Alpha  occ. eigenvalues --  -10.21466 -10.21188 -10.21025 -10.20957 -10.19795
 Alpha  occ. eigenvalues --  -10.19710  -1.20287  -1.18518  -1.15199  -1.13778
 Alpha  occ. eigenvalues --   -1.12964  -1.12361  -1.09835  -1.09609  -1.09182
 Alpha  occ. eigenvalues --   -1.08461  -1.07394  -1.07271  -1.06864  -1.06555
 Alpha  occ. eigenvalues --   -1.04936  -1.04431  -1.02737  -1.02709  -1.01549
 Alpha  occ. eigenvalues --   -1.00410  -0.98165  -0.97903  -0.97673  -0.95376
 Alpha  occ. eigenvalues --   -0.93623  -0.93473  -0.93098  -0.92140  -0.91476
 Alpha  occ. eigenvalues --   -0.88886  -0.87412  -0.85776  -0.84590  -0.84297
 Alpha  occ. eigenvalues --   -0.83410  -0.82778  -0.81650  -0.81475  -0.79512
 Alpha  occ. eigenvalues --   -0.79256  -0.78951  -0.77499  -0.77414  -0.76574
 Alpha  occ. eigenvalues --   -0.75499  -0.75476  -0.75354  -0.74356  -0.73410
 Alpha  occ. eigenvalues --   -0.73118  -0.71397  -0.70905  -0.70605  -0.70214
 Alpha  occ. eigenvalues --   -0.69431  -0.68234  -0.67742  -0.67501  -0.67439
 Alpha  occ. eigenvalues --   -0.67160  -0.66776  -0.65862  -0.65127  -0.64930
 Alpha  occ. eigenvalues --   -0.64727  -0.64158  -0.64026  -0.63055  -0.62659
 Alpha  occ. eigenvalues --   -0.62287  -0.61985  -0.61664  -0.61589  -0.61151
 Alpha  occ. eigenvalues --   -0.60871  -0.60776  -0.60618  -0.59672  -0.59585
 Alpha  occ. eigenvalues --   -0.59438  -0.58561  -0.58368  -0.58139  -0.58041
 Alpha  occ. eigenvalues --   -0.57227  -0.57028  -0.56815  -0.56721  -0.56479
 Alpha  occ. eigenvalues --   -0.55744  -0.55155  -0.54593  -0.54254  -0.53961
 Alpha  occ. eigenvalues --   -0.53349  -0.53216  -0.52500  -0.51939  -0.51698
 Alpha  occ. eigenvalues --   -0.51583  -0.51486  -0.51356  -0.51330  -0.51080
 Alpha  occ. eigenvalues --   -0.50925  -0.50826  -0.50540  -0.50188  -0.50078
 Alpha  occ. eigenvalues --   -0.49739  -0.49644  -0.49468  -0.49329  -0.49210
 Alpha  occ. eigenvalues --   -0.49009  -0.48833  -0.48759  -0.48461  -0.48320
 Alpha  occ. eigenvalues --   -0.47773  -0.47609  -0.47312  -0.47165  -0.46878
 Alpha  occ. eigenvalues --   -0.46680  -0.46283  -0.45981  -0.45922  -0.45608
 Alpha  occ. eigenvalues --   -0.45459  -0.45259  -0.45213  -0.45073  -0.44687
 Alpha  occ. eigenvalues --   -0.44408  -0.44353  -0.44174  -0.44101  -0.43741
 Alpha  occ. eigenvalues --   -0.43481  -0.43454  -0.43291  -0.43074  -0.42824
 Alpha  occ. eigenvalues --   -0.42487  -0.42363  -0.42209  -0.42173  -0.41940
 Alpha  occ. eigenvalues --   -0.41851  -0.41617  -0.41317  -0.41032  -0.40980
 Alpha  occ. eigenvalues --   -0.40808  -0.40667  -0.40474  -0.40190  -0.40084
 Alpha  occ. eigenvalues --   -0.39868  -0.39827  -0.39601  -0.39115  -0.39052
 Alpha  occ. eigenvalues --   -0.38559  -0.38154  -0.37943  -0.37905  -0.37419
 Alpha  occ. eigenvalues --   -0.37280  -0.36977  -0.36518  -0.36073  -0.35525
 Alpha  occ. eigenvalues --   -0.35447  -0.35292  -0.34864  -0.34683  -0.34508
 Alpha  occ. eigenvalues --   -0.34070  -0.34055  -0.33926  -0.32840  -0.32246
 Alpha  occ. eigenvalues --   -0.32174  -0.31828  -0.31535  -0.31495  -0.31240
 Alpha  occ. eigenvalues --   -0.30473  -0.30182  -0.30120  -0.30071  -0.30004
 Alpha  occ. eigenvalues --   -0.28678  -0.27814  -0.27477  -0.27423  -0.26895
 Alpha  occ. eigenvalues --   -0.26014
 Alpha virt. eigenvalues --   -0.13263  -0.10524  -0.08951  -0.06485  -0.06240
 Alpha virt. eigenvalues --   -0.05372  -0.04730  -0.03553  -0.03242  -0.03095
 Alpha virt. eigenvalues --   -0.02850  -0.02718  -0.02603  -0.01756  -0.00565

 Mulliken charges:
               1
     1  N   -0.756684
     2  H    0.436851
     3  H    0.431114
     4  H    0.413338
     5  C   -0.129623
     6  H    0.234433
     7  C    0.669629
     8  C   -0.058067
     9  H    0.179178
    10  H    0.199631
    11  O   -0.535155
    12  O   -0.626348
    13  H    0.443938
    14  N   -0.616594
    15  H    0.377944
    16  C   -0.054930
    17  H    0.202827
    18  C    0.637969
    19  C   -0.454492
    20  H    0.185400
    21  H    0.172844
    22  H    0.189970
    23  O   -0.575167
    24  N   -0.627071
    25  H    0.374701
    26  C   -0.093400
    27  H    0.184636
    28  C    0.632784
    29  C    0.174212
    30  H    0.124659
    31  O   -0.545589
    32  C   -0.505217
    33  H    0.207618
    34  H    0.138238
    35  H    0.177443
    36  O   -0.656274
    37  H    0.423752
    38  N   -0.606302
    39  H    0.349697
    40  C   -0.032130
    41  H    0.164134
    42  C    0.634843
    43  C   -0.114217
    44  H    0.147738
    45  O   -0.540489
    46  C   -0.464085
    47  H    0.155509
    48  H    0.167632
    49  H    0.160508
    50  C   -0.445261
    51  H    0.152107
    52  H    0.140685
    53  H    0.162067
    54  N   -0.591557
    55  H    0.353676
    56  C   -0.078530
    57  H    0.181211
    58  C    0.628746
    59  C   -0.074533
    60  H    0.132517
    61  O   -0.544220
    62  C   -0.271664
    63  H    0.152060
    64  H    0.142358
    65  C   -0.462032
    66  H    0.161027
    67  H    0.157229
    68  H    0.145429
    69  C   -0.450547
    70  H    0.147433
    71  H    0.149842
    72  H    0.144152
    73  N   -0.629888
    74  H    0.358796
    75  C   -0.017862
    76  H    0.209201
    77  C    0.598397
    78  C   -0.364639
    79  H    0.219293
    80  H    0.171249
    81  O   -0.559937
    82  C    0.557016
    83  O   -0.454453
    84  O   -0.604449
    85  N   -0.639876
    86  H    0.393691
    87  C   -0.057387
    88  H    0.179368
    89  C    0.634375
    90  C   -0.391482
    91  H    0.190467
    92  H    0.189824
    93  O   -0.527613
    94  C    0.279282
    95  C   -0.018278
    96  H    0.171920
    97  N   -0.546790
    98  H    0.443700
    99  C    0.258402
   100  H    0.188670
   101  N   -0.553962
   102  N   -0.636410
   103  H    0.372978
   104  C   -0.058123
   105  H    0.178056
   106  C    0.628886
   107  C   -0.267552
   108  H    0.120534
   109  H    0.151416
   110  O   -0.546079
   111  C   -0.076686
   112  H    0.153849
   113  C   -0.450932
   114  H    0.134847
   115  H    0.144232
   116  H    0.150696
   117  C   -0.445104
   118  H    0.131183
   119  H    0.141196
   120  H    0.144300
   121  N   -0.639194
   122  H    0.381981
   123  C   -0.034148
   124  H    0.180657
   125  C    0.578269
   126  C   -0.284551
   127  H    0.148792
   128  H    0.159561
   129  O   -0.468773
   130  C   -0.270362
   131  H    0.178456
   132  H    0.130215
   133  C   -0.145577
   134  H    0.108890
   135  H    0.148054
   136  N   -0.557817
   137  H    0.462800
   138  N   -0.758180
   139  H    0.342173
   140  H    0.344964
   141  N   -0.758227
   142  H    0.334746
   143  H    0.351067
   144  C    0.669228
   145  O   -0.636135
   146  H    0.351262
 Sum of Mulliken charges =   1.00000

 Dipole moment (field-independent basis, Debye):
    X=            -40.7766    Y=            -13.4148    Z=              3.2392  Tot=             43.0486
 Quadrupole moment (field-independent basis, Debye-Ang):
   XX=            123.4526   YY=           -321.9098   ZZ=           -296.6325
   XY=            109.3219   XZ=             93.1863   YZ=             63.3625

 Normal termination of Gaussian 16 at Sun Jun 19 11:59:33 2022.
