 Gaussian 16, Revision C.01,
 Gaussian 16:  ES64L-G16RevC.01  3-Jul-2019

 -------------------------------------------------------------------
 # B3LYP/6-31G* guess=read geom=check nosymm integral(ultrafinegrid)
 -------------------------------------------------------------------

 ------------------------------------------------------
 Candidate Structure: Conf:879 Charge calc in gas phase
 ------------------------------------------------------
 Structure from the checkpoint file:  "conf-879.chk"
 Charge =  1 Multiplicity = 1

                          Input orientation:
 ---------------------------------------------------------------------
 Center     Atomic      Atomic             Coordinates (Angstroms)
 Number     Number       Type             X           Y           Z
 ---------------------------------------------------------------------
      1          7           0        0.983179    4.010721   -5.360641
      2          1           0        1.743626    4.124599   -6.034109
      3          1           0        0.147455    4.371724   -5.832128
      4          1           0        1.217030    4.604183   -4.372302
      5          6           0        0.790256    2.567535   -5.048405
      6          1           0        1.766330    2.177917   -4.747145
      7          6           0        0.207964    1.843395   -6.274653
      8          6           0       -0.168392    2.366465   -3.856294
      9          1           0       -1.206352    2.335966   -4.205178
     10          1           0       -0.060127    3.187464   -3.145500
     11          8           0       -0.119687    2.469642   -7.275319
     12          8           0        0.203760    1.118553   -3.278888
     13          1           0       -0.550777    0.827441   -2.722814
     14          7           0        0.042795    0.502746   -6.082267
     15          1           0        0.182253    0.222599   -5.111078
     16          6           0       -0.985858   -0.242633   -6.810859
     17          1           0       -1.318537    0.417026   -7.620501
     18          6           0       -2.193486   -0.406879   -5.851014
     19          6           0       -0.428781   -1.537115   -7.412174
     20          1           0       -1.169854   -2.036831   -8.045633
     21          1           0       -0.101850   -2.239610   -6.636632
     22          1           0        0.433500   -1.302090   -8.041437
     23          8           0       -2.487510    0.500601   -5.064824
     24          7           0       -2.898773   -1.558186   -5.900017
     25          1           0       -2.625491   -2.344070   -6.478627
     26          6           0       -4.091729   -1.781263   -5.080686
     27          1           0       -4.591177   -0.815558   -4.952832
     28          6           0       -3.687687   -2.329752   -3.686968
     29          6           0       -5.009348   -2.790230   -5.803879
     30          1           0       -5.825446   -3.041666   -5.113218
     31          8           0       -3.896926   -3.503380   -3.364903
     32          6           0       -5.595184   -2.247175   -7.100058
     33          1           0       -6.216992   -1.366106   -6.908602
     34          1           0       -4.808354   -1.967751   -7.808236
     35          1           0       -6.214872   -3.016690   -7.568381
     36          8           0       -4.249719   -3.957499   -6.112347
     37          1           0       -4.060296   -4.362651   -5.244277
     38          7           0       -3.080552   -1.431357   -2.875226
     39          1           0       -2.900338   -0.491684   -3.228630
     40          6           0       -2.544809   -1.772098   -1.562680
     41          1           0       -3.341363   -2.235773   -0.966133
     42          6           0       -2.115274   -0.449278   -0.911475
     43          6           0       -1.376042   -2.813463   -1.655610
     44          1           0       -1.821760   -3.646889   -2.207055
     45          8           0       -1.882329    0.556130   -1.597284
     46          6           0       -0.175797   -2.289021   -2.454628
     47          1           0        0.312321   -1.446781   -1.949760
     48          1           0       -0.476088   -1.952344   -3.451744
     49          1           0        0.559443   -3.092827   -2.588619
     50          6           0       -0.942258   -3.348742   -0.283780
     51          1           0       -0.393734   -2.594085    0.292252
     52          1           0       -1.799047   -3.689785    0.311458
     53          1           0       -0.283490   -4.215023   -0.411408
     54          7           0       -1.970502   -0.413761    0.429816
     55          1           0       -2.152221   -1.243892    0.976188
     56          6           0       -1.394174    0.755159    1.094556
     57          1           0       -2.050680    1.607752    0.884319
     58          6           0       -0.005207    1.055362    0.481283
     59          6           0       -1.350359    0.548465    2.635128
     60          1           0       -2.379500    0.276242    2.915810
     61          8           0        0.764636    0.147696    0.145769
     62          6           0       -1.013733    1.876677    3.349328
     63          1           0       -1.645169    2.671907    2.926022
     64          1           0        0.027680    2.150834    3.136119
     65          6           0       -0.411086   -0.588567    3.069873
     66          1           0        0.633705   -0.333338    2.866236
     67          1           0       -0.627979   -1.534894    2.560776
     68          1           0       -0.512278   -0.774294    4.142488
     69          6           0       -1.236052    1.844355    4.866040
     70          1           0       -1.058784    2.834772    5.297444
     71          1           0       -2.264172    1.553489    5.113051
     72          1           0       -0.557882    1.146143    5.366934
     73          7           0        0.292147    2.366362    0.334616
     74          1           0       -0.364403    3.055411    0.674314
     75          6           0        1.506718    2.827656   -0.320586
     76          1           0        1.665904    2.154553   -1.169830
     77          6           0        2.738804    2.662498    0.592273
     78          6           0        1.359063    4.273434   -0.867796
     79          1           0        0.305748    4.564840   -0.902791
     80          1           0        1.863234    4.995444   -0.213785
     81          8           0        2.660790    2.272382    1.755164
     82          6           0        1.931089    4.384303   -2.297826
     83          8           0        1.239373    5.103016   -3.099758
     84          8           0        2.953597    3.730148   -2.596936
     85          7           0        3.917241    2.922959   -0.049440
     86          1           0        3.838062    3.185701   -1.044971
     87          6           0        5.196051    2.523805    0.514218
     88          1           0        4.987311    2.235316    1.550729
     89          6           0        6.253333    3.648436    0.571298
     90          6           0        5.835803    1.318871   -0.229839
     91          1           0        6.736505    1.029352    0.320698
     92          1           0        6.179025    1.648785   -1.218754
     93          8           0        7.444906    3.357027    0.667531
     94          6           0        4.885636    0.177885   -0.407215
     95          6           0        3.751857   -0.176552    0.271020
     96          1           0        3.279341    0.269454    1.131563
     97          7           0        4.949140   -0.698225   -1.488636
     98          1           0        5.682787   -0.706717   -2.187164
     99          6           0        3.894786   -1.525349   -1.485108
    100          1           0        3.677084   -2.287366   -2.216390
    101          7           0        3.163105   -1.214520   -0.416589
    102          7           0        5.781510    4.910985    0.517346
    103          1           0        4.780748    5.057201    0.514452
    104          6           0        6.661582    6.084304    0.604871
    105          1           0        7.609994    5.775294    0.158791
    106          6           0        6.884585    6.439392    2.096506
    107          6           0        6.042689    7.253087   -0.168043
    108          1           0        5.775578    6.895085   -1.172325
    109          1           0        5.115070    7.538979    0.343647
    110          8           0        6.170004    7.253674    2.677525
    111          6           0        6.936609    8.503832   -0.292489
    112          1           0        7.197488    8.825587    0.723834
    113          6           0        8.234788    8.230488   -1.067838
    114          1           0        8.019600    7.868306   -2.082119
    115          1           0        8.826520    9.147778   -1.163747
    116          1           0        8.870821    7.487314   -0.573693
    117          6           0        6.142369    9.641491   -0.951651
    118          1           0        5.840635    9.373256   -1.972948
    119          1           0        6.744398   10.554946   -1.013448
    120          1           0        5.235011    9.876156   -0.383212
    121          7           0        7.905884    5.774200    2.686277
    122          1           0        8.403630    5.038553    2.191825
    123          6           0        8.281900    5.989680    4.073981
    124          1           0        8.220848    7.059034    4.291233
    125          6           0        9.714888    5.506924    4.267171
    126          6           0        7.338355    5.228828    5.056914
    127          1           0        7.205722    4.209268    4.669765
    128          1           0        6.364814    5.723869    4.990902
    129          8           0       10.310197    6.152803    5.261819
    130          6           0        7.820867    5.174685    6.523974
    131          1           0        8.374519    6.085383    6.769970
    132          1           0        6.947993    5.141786    7.189266
    133          6           0        8.708767    3.942631    6.812699
    134          1           0        8.070397    3.050566    6.873664
    135          1           0        9.419064    3.756804    6.006641
    136          7           0        9.486847    4.024487    8.043645
    137          1           0        8.972714    4.189613    8.898831
    138          7           0       11.517301    4.629917    7.044792
    139          1           0       12.514703    4.666049    7.243067
    140          1           0       10.954816    5.541944    5.776762
    141          7           0       11.327445    4.279106    9.396562
    142          1           0       12.325555    4.421777    9.477224
    143          1           0       10.995040    3.514046    9.972024
    144          6           0       10.824565    4.324472    8.098232
    145          8           0       10.178666    4.573837    3.634218
    146          1           0        2.210206   -1.515345   -0.227968
 ---------------------------------------------------------------------

 SCF Done:  E(RB3LYP) =  -3503.40475644     A.U. after    1 cycles

 Alpha  occ. eigenvalues --  -19.23213 -19.22845 -19.22095 -19.21076 -19.21065
 Alpha  occ. eigenvalues --  -19.20721 -19.20514 -19.20359 -19.19574 -19.19286
 Alpha  occ. eigenvalues --  -19.18967 -19.18818 -19.16377 -19.15694 -14.56010
 Alpha  occ. eigenvalues --  -14.55340 -14.49922 -14.47022 -14.46235 -14.45148
 Alpha  occ. eigenvalues --  -14.44526 -14.44095 -14.44051 -14.43560 -14.40835
 Alpha  occ. eigenvalues --  -14.40766 -14.39929 -14.35247 -10.42816 -10.39722
 Alpha  occ. eigenvalues --  -10.39040 -10.37962 -10.37899 -10.37732 -10.37405
 Alpha  occ. eigenvalues --  -10.37188 -10.36988 -10.36476 -10.35590 -10.34946
 Alpha  occ. eigenvalues --  -10.34340 -10.33592 -10.33467 -10.33164 -10.33062
 Alpha  occ. eigenvalues --  -10.32920 -10.32618 -10.32204 -10.31968 -10.31386
 Alpha  occ. eigenvalues --  -10.31119 -10.30954 -10.29269 -10.28786 -10.28689
 Alpha  occ. eigenvalues --  -10.28134 -10.27147 -10.27116 -10.27076 -10.27051
 Alpha  occ. eigenvalues --  -10.26708 -10.26640 -10.26433 -10.24875 -10.24040
 Alpha  occ. eigenvalues --  -10.23556 -10.23528 -10.23278 -10.23127 -10.21594
 Alpha  occ. eigenvalues --  -10.21365  -1.20134  -1.15061  -1.13565  -1.13263
 Alpha  occ. eigenvalues --   -1.12601  -1.12565  -1.12301  -1.11745  -1.11636
 Alpha  occ. eigenvalues --   -1.10966  -1.10332  -1.08303  -1.07495  -1.06913
 Alpha  occ. eigenvalues --   -1.05302  -1.03833  -1.03275  -1.03244  -1.03141
 Alpha  occ. eigenvalues --   -1.02402  -1.01746  -1.01340  -1.01082  -1.00443
 Alpha  occ. eigenvalues --   -0.99363  -0.96374  -0.94560  -0.93390  -0.90920
 Alpha  occ. eigenvalues --   -0.90345  -0.89416  -0.88076  -0.87395  -0.85997
 Alpha  occ. eigenvalues --   -0.85645  -0.84852  -0.83950  -0.83144  -0.82871
 Alpha  occ. eigenvalues --   -0.82066  -0.80959  -0.80823  -0.79536  -0.78696
 Alpha  occ. eigenvalues --   -0.78079  -0.77583  -0.77439  -0.75766  -0.74712
 Alpha  occ. eigenvalues --   -0.74329  -0.72543  -0.72290  -0.72220  -0.72061
 Alpha  occ. eigenvalues --   -0.71173  -0.70269  -0.69491  -0.69276  -0.68685
 Alpha  occ. eigenvalues --   -0.68125  -0.67188  -0.66972  -0.66582  -0.66494
 Alpha  occ. eigenvalues --   -0.66434  -0.66194  -0.65860  -0.65364  -0.64802
 Alpha  occ. eigenvalues --   -0.64584  -0.64172  -0.63861  -0.63494  -0.62607
 Alpha  occ. eigenvalues --   -0.61910  -0.61454  -0.61275  -0.60953  -0.60816
 Alpha  occ. eigenvalues --   -0.60536  -0.60252  -0.59714  -0.59215  -0.59099
 Alpha  occ. eigenvalues --   -0.58678  -0.58178  -0.58059  -0.57955  -0.57595
 Alpha  occ. eigenvalues --   -0.56950  -0.56852  -0.56644  -0.56032  -0.55931
 Alpha  occ. eigenvalues --   -0.55345  -0.55162  -0.54793  -0.54567  -0.54019
 Alpha  occ. eigenvalues --   -0.53984  -0.53802  -0.53656  -0.53231  -0.53000
 Alpha  occ. eigenvalues --   -0.52932  -0.52728  -0.52483  -0.52065  -0.51778
 Alpha  occ. eigenvalues --   -0.51643  -0.51564  -0.51470  -0.51075  -0.50738
 Alpha  occ. eigenvalues --   -0.50580  -0.50419  -0.50253  -0.50143  -0.49837
 Alpha  occ. eigenvalues --   -0.49637  -0.49492  -0.49395  -0.49181  -0.48994
 Alpha  occ. eigenvalues --   -0.48933  -0.48827  -0.48498  -0.48359  -0.48149
 Alpha  occ. eigenvalues --   -0.47789  -0.47505  -0.47327  -0.47184  -0.47132
 Alpha  occ. eigenvalues --   -0.47000  -0.46854  -0.46674  -0.46539  -0.46422
 Alpha  occ. eigenvalues --   -0.45966  -0.45471  -0.45416  -0.45351  -0.45058
 Alpha  occ. eigenvalues --   -0.45050  -0.44854  -0.44650  -0.44602  -0.44408
 Alpha  occ. eigenvalues --   -0.44265  -0.43918  -0.43853  -0.43774  -0.43616
 Alpha  occ. eigenvalues --   -0.43084  -0.43035  -0.42785  -0.42637  -0.42115
 Alpha  occ. eigenvalues --   -0.42090  -0.41918  -0.41271  -0.41192  -0.40996
 Alpha  occ. eigenvalues --   -0.40829  -0.40535  -0.39965  -0.39329  -0.38644
 Alpha  occ. eigenvalues --   -0.38466  -0.38274  -0.37562  -0.37331  -0.37013
 Alpha  occ. eigenvalues --   -0.36879  -0.36761  -0.36625  -0.36484  -0.36200
 Alpha  occ. eigenvalues --   -0.35919  -0.35497  -0.35360  -0.35026  -0.34960
 Alpha  occ. eigenvalues --   -0.34225  -0.34064  -0.33823  -0.33801  -0.33626
 Alpha  occ. eigenvalues --   -0.33588  -0.33219  -0.33053  -0.32881  -0.32163
 Alpha  occ. eigenvalues --   -0.32110  -0.31483  -0.30317  -0.29071  -0.28777
 Alpha  occ. eigenvalues --   -0.28488
 Alpha virt. eigenvalues --   -0.14979  -0.09964  -0.09386  -0.08256  -0.07848
 Alpha virt. eigenvalues --   -0.07434  -0.06384  -0.06333  -0.05740  -0.05280
 Alpha virt. eigenvalues --   -0.04872  -0.04078  -0.02867  -0.02680  -0.02095

 Mulliken charges:
               1
     1  N   -0.773900
     2  H    0.385127
     3  H    0.386334
     4  H    0.460610
     5  C   -0.106386
     6  H    0.208799
     7  C    0.600153
     8  C   -0.080999
     9  H    0.196168
    10  H    0.170171
    11  O   -0.513700
    12  O   -0.687245
    13  H    0.468393
    14  N   -0.587769
    15  H    0.359754
    16  C   -0.063758
    17  H    0.219066
    18  C    0.608228
    19  C   -0.474269
    20  H    0.168937
    21  H    0.151694
    22  H    0.184465
    23  O   -0.538501
    24  N   -0.610608
    25  H    0.358844
    26  C   -0.073198
    27  H    0.188241
    28  C    0.633215
    29  C    0.108932
    30  H    0.151380
    31  O   -0.544649
    32  C   -0.449799
    33  H    0.152994
    34  H    0.147908
    35  H    0.178501
    36  O   -0.647528
    37  H    0.418834
    38  N   -0.649354
    39  H    0.393090
    40  C   -0.036776
    41  H    0.177004
    42  C    0.648027
    43  C   -0.077242
    44  H    0.191660
    45  O   -0.573442
    46  C   -0.496098
    47  H    0.163800
    48  H    0.157366
    49  H    0.133903
    50  C   -0.498043
    51  H    0.152743
    52  H    0.157226
    53  H    0.160275
    54  N   -0.617656
    55  H    0.348448
    56  C   -0.027595
    57  H    0.170547
    58  C    0.678566
    59  C   -0.114137
    60  H    0.147282
    61  O   -0.597264
    62  C   -0.285576
    63  H    0.128447
    64  H    0.173531
    65  C   -0.468936
    66  H    0.166801
    67  H    0.135678
    68  H    0.172493
    69  C   -0.452811
    70  H    0.163878
    71  H    0.152154
    72  H    0.157605
    73  N   -0.601334
    74  H    0.346487
    75  C   -0.044670
    76  H    0.209898
    77  C    0.597089
    78  C   -0.407094
    79  H    0.178367
    80  H    0.185463
    81  O   -0.533325
    82  C    0.626412
    83  O   -0.617519
    84  O   -0.563841
    85  N   -0.641091
    86  H    0.383812
    87  C   -0.077518
    88  H    0.215400
    89  C    0.642810
    90  C   -0.368867
    91  H    0.232285
    92  H    0.180046
    93  O   -0.537016
    94  C    0.330462
    95  C    0.006139
    96  H    0.261521
    97  N   -0.602086
    98  H    0.387382
    99  C    0.311743
   100  H    0.245550
   101  N   -0.535863
   102  N   -0.610834
   103  H    0.343268
   104  C   -0.058273
   105  H    0.178501
   106  C    0.630420
   107  C   -0.272914
   108  H    0.131467
   109  H    0.150672
   110  O   -0.538714
   111  C   -0.081094
   112  H    0.156532
   113  C   -0.452455
   114  H    0.136460
   115  H    0.153205
   116  H    0.147364
   117  C   -0.445846
   118  H    0.135571
   119  H    0.149739
   120  H    0.147949
   121  N   -0.623096
   122  H    0.366188
   123  C   -0.003926
   124  H    0.185442
   125  C    0.574958
   126  C   -0.283033
   127  H    0.137188
   128  H    0.172763
   129  O   -0.608251
   130  C   -0.278549
   131  H    0.177891
   132  H    0.130337
   133  C   -0.152516
   134  H    0.142366
   135  H    0.203969
   136  N   -0.603275
   137  H    0.327696
   138  N   -0.732813
   139  H    0.292966
   140  H    0.459494
   141  N   -0.758718
   142  H    0.334753
   143  H    0.333339
   144  C    0.682774
   145  O   -0.495639
   146  H    0.416004
 Sum of Mulliken charges =   1.00000

 Dipole moment (field-independent basis, Debye):
    X=             10.1031    Y=             -3.1031    Z=             -1.1998  Tot=             10.6368
 Quadrupole moment (field-independent basis, Debye-Ang):
   XX=           -312.9674   YY=           -418.1367   ZZ=           -269.7700
   XY=            -15.7689   XZ=             55.1369   YZ=             12.4045

 Normal termination of Gaussian 16 at Sun Jun 19 11:59:56 2022.
