 Gaussian 16, Revision C.01,
 Gaussian 16:  ES64L-G16RevC.01  3-Jul-2019

 -------------------------------------------------------------------
 # B3LYP/6-31G* guess=read geom=check nosymm integral(ultrafinegrid)
 -------------------------------------------------------------------

 ------------------------------------------------------
 Candidate Structure: Conf:474 Charge calc in gas phase
 ------------------------------------------------------
 Structure from the checkpoint file:  "conf-474.chk"
 Charge =  1 Multiplicity = 1

                          Input orientation:
 ---------------------------------------------------------------------
 Center     Atomic      Atomic             Coordinates (Angstroms)
 Number     Number       Type             X           Y           Z
 ---------------------------------------------------------------------
      1          7           0      -10.591937   -3.308268   -7.243947
      2          1           0      -11.036514   -3.323804   -8.166720
      3          1           0       -9.758935   -3.968603   -7.247519
      4          1           0      -11.284139   -3.604518   -6.547746
      5          6           0       -9.940547   -1.984663   -6.913716
      6          1           0      -10.300720   -1.222611   -7.607416
      7          6           0       -8.434855   -2.279083   -7.075436
      8          6           0      -10.260475   -1.560276   -5.446498
      9          1           0      -10.004337   -2.394136   -4.775774
     10          1           0      -11.337630   -1.367146   -5.369258
     11          8           0       -8.082914   -3.462279   -7.159998
     12          8           0       -9.571425   -0.389962   -5.126213
     13          1           0       -8.703446   -0.653135   -4.731814
     14          7           0       -7.623293   -1.213351   -7.062517
     15          1           0       -8.067141   -0.333545   -6.811799
     16          6           0       -6.214646   -1.344504   -6.687393
     17          1           0       -5.817685   -2.218935   -7.210019
     18          6           0       -6.137832   -1.597654   -5.156955
     19          6           0       -5.440688   -0.083742   -7.095118
     20          1           0       -4.386857   -0.169186   -6.816470
     21          1           0       -5.845202    0.803708   -6.594659
     22          1           0       -5.500909    0.065117   -8.176786
     23          8           0       -7.119757   -1.423873   -4.420030
     24          7           0       -4.940310   -2.011401   -4.716637
     25          1           0       -4.122524   -1.941841   -5.327738
     26          6           0       -4.530427   -1.999064   -3.313336
     27          1           0       -5.187472   -1.320277   -2.759152
     28          6           0       -3.077634   -1.459903   -3.334936
     29          6           0       -4.587231   -3.411421   -2.667615
     30          1           0       -4.201800   -3.316262   -1.646246
     31          8           0       -2.479352   -1.346403   -4.408547
     32          6           0       -5.999775   -3.991042   -2.613468
     33          1           0       -6.682536   -3.334961   -2.063978
     34          1           0       -6.406722   -4.127978   -3.622749
     35          1           0       -5.970729   -4.966139   -2.118458
     36          8           0       -3.676735   -4.289418   -3.313623
     37          1           0       -4.033452   -4.486858   -4.195159
     38          7           0       -2.570551   -1.137019   -2.134126
     39          1           0       -3.071376   -1.368037   -1.278677
     40          6           0       -1.160570   -0.843444   -1.883068
     41          1           0       -0.585470   -1.205785   -2.741721
     42          6           0       -0.831180   -1.646413   -0.602624
     43          6           0       -0.899282    0.682219   -1.693246
     44          1           0       -1.397326    0.974703   -0.758029
     45          8           0       -1.724804   -1.849513    0.224216
     46          6           0        0.601211    0.990957   -1.565175
     47          1           0        1.140397    0.693721   -2.474969
     48          1           0        1.072030    0.491912   -0.713778
     49          1           0        0.750106    2.068551   -1.438206
     50          6           0       -1.508943    1.498986   -2.842115
     51          1           0       -1.081356    1.205194   -3.807581
     52          1           0       -2.593451    1.369337   -2.900197
     53          1           0       -1.307484    2.565107   -2.690257
     54          7           0        0.435184   -2.094463   -0.475987
     55          1           0        1.143281   -1.788255   -1.134089
     56          6           0        0.977200   -2.677927    0.757259
     57          1           0        0.214727   -2.575564    1.529744
     58          6           0        2.209241   -1.841534    1.129602
     59          6           0        1.345859   -4.174586    0.562225
     60          1           0        2.073332   -4.194764   -0.266911
     61          8           0        3.033559   -1.583413    0.172850
     62          6           0        0.146332   -5.037195    0.108577
     63          1           0        0.534091   -6.037890   -0.129255
     64          1           0       -0.243808   -4.632452   -0.833286
     65          6           0        2.032116   -4.746583    1.815175
     66          1           0        1.388503   -4.660649    2.696941
     67          1           0        2.964501   -4.224659    2.053042
     68          1           0        2.255706   -5.811455    1.674320
     69          6           0       -1.007570   -5.171908    1.111071
     70          1           0       -1.778070   -5.837348    0.705085
     71          1           0       -0.677628   -5.600481    2.063799
     72          1           0       -1.480542   -4.205354    1.310752
     73          7           0        2.299832   -1.453811    2.371139
     74          1           0        1.321545   -1.123312    3.636505
     75          6           0        3.433118   -0.617734    2.746221
     76          1           0        3.286760    0.399366    2.346411
     77          6           0        4.797830   -1.139220    2.269522
     78          6           0        3.492753   -0.545699    4.290759
     79          1           0        3.701207   -1.560243    4.653641
     80          1           0        4.313705    0.096900    4.617324
     81          8           0        5.208120   -2.260463    2.546660
     82          6           0        2.199363   -0.066282    4.947938
     83          8           0        1.084267   -0.588134    4.482539
     84          8           0        2.195112    0.740223    5.877375
     85          7           0        5.565330   -0.213207    1.602346
     86          1           0        5.084736    0.583195    1.202401
     87          6           0        6.892711   -0.516884    1.095661
     88          1           0        7.272656   -1.324959    1.730416
     89          6           0        7.885110    0.667645    1.250714
     90          6           0        6.902629   -1.000600   -0.377594
     91          1           0        7.921651   -0.863936   -0.748986
     92          1           0        6.248515   -0.356354   -0.978005
     93          8           0        8.909330    0.694783    0.573383
     94          6           0        6.511028   -2.432394   -0.544182
     95          6           0        7.299454   -3.526299   -0.784825
     96          1           0        8.363119   -3.607336   -0.943649
     97          7           0        5.213663   -2.906973   -0.422693
     98          1           0        4.335572   -2.339883   -0.166224
     99          6           0        5.207510   -4.226401   -0.560886
    100          1           0        4.341054   -4.864955   -0.492323
    101          7           0        6.465934   -4.630098   -0.788373
    102          7           0        7.538477    1.589997    2.173648
    103          1           0        6.752716    1.401090    2.787778
    104          6           0        8.431886    2.637357    2.669324
    105          1           0        9.460382    2.340046    2.450266
    106          6           0        8.213129    2.707003    4.188291
    107          6           0        8.132469    4.024921    2.054382
    108          1           0        7.089614    4.273627    2.295309
    109          1           0        8.758002    4.762133    2.576213
    110          8           0        7.072177    2.420563    4.650122
    111          6           0        8.359391    4.157334    0.535864
    112          1           0        7.784306    3.365370    0.034362
    113          6           0        7.817257    5.512202    0.053287
    114          1           0        8.355993    6.342173    0.527628
    115          1           0        7.935796    5.618119   -1.031355
    116          1           0        6.752216    5.629398    0.289252
    117          6           0        9.835956    3.989430    0.147784
    118          1           0       10.465668    4.718248    0.674085
    119          1           0        9.970471    4.151725   -0.928243
    120          1           0       10.200943    2.983472    0.373598
    121          7           0        9.234116    3.089504    4.929519
    122          1           0       10.119534    3.508175    4.566639
    123          6           0        9.161685    3.449413    6.342004
    124          1           0        8.253781    4.042739    6.507784
    125          6           0       10.402993    4.404613    6.603457
    126          6           0        9.193960    2.229606    7.297636
    127          1           0       10.238453    2.007076    7.534288
    128          1           0        8.792805    1.337362    6.794731
    129          8           0       10.501905    4.802397    7.774808
    130          6           0        8.424861    2.494875    8.610483
    131          1           0        8.924599    1.999371    9.450356
    132          1           0        8.464109    3.567162    8.822452
    133          6           0        6.977644    1.974805    8.602989
    134          1           0        6.981744    0.875858    8.678876
    135          1           0        6.434498    2.370363    9.470495
    136          7           0        6.268991    2.367976    7.379931
    137          1           0        6.825131    2.558595    6.538343
    138          7           0        4.142565    1.618111    8.030529
    139          1           0        3.247137    1.276571    7.693923
    140          1           0        4.513764    1.212277    8.875570
    141          7           0        4.490918    2.484980    5.914391
    142          1           0        3.587502    2.084793    5.664834
    143          1           0        5.169474    2.692080    5.185072
    144          6           0        4.987012    2.135356    7.115243
    145          8           0       11.114613    4.603515    5.581172
    146          1           0        6.752358   -5.589539   -0.930162
 ---------------------------------------------------------------------

 SCF Done:  E(RB3LYP) =  -3503.34643303     A.U. after    3 cycles

 Alpha  occ. eigenvalues --  -19.28700 -19.27422 -19.24698 -19.22850 -19.21825
 Alpha  occ. eigenvalues --  -19.20512 -19.18545 -19.18520 -19.18305 -19.17204
 Alpha  occ. eigenvalues --  -19.16772 -19.16567 -19.05709 -19.04511 -14.62013
 Alpha  occ. eigenvalues --  -14.52634 -14.50943 -14.49322 -14.47096 -14.43905
 Alpha  occ. eigenvalues --  -14.43200 -14.42996 -14.42647 -14.41726 -14.41112
 Alpha  occ. eigenvalues --  -14.40789 -14.37555 -14.36431 -10.45102 -10.41712
 Alpha  occ. eigenvalues --  -10.41233 -10.39331 -10.38561 -10.38525 -10.37556
 Alpha  occ. eigenvalues --  -10.37030 -10.36571 -10.35658 -10.35372 -10.34320
 Alpha  occ. eigenvalues --  -10.33665 -10.33427 -10.32954 -10.32697 -10.32460
 Alpha  occ. eigenvalues --  -10.32454 -10.30638 -10.30497 -10.30254 -10.28998
 Alpha  occ. eigenvalues --  -10.28137 -10.27987 -10.27543 -10.27243 -10.26431
 Alpha  occ. eigenvalues --  -10.26159 -10.25596 -10.25476 -10.24013 -10.23675
 Alpha  occ. eigenvalues --  -10.23621 -10.23502 -10.22980 -10.22065 -10.21968
 Alpha  occ. eigenvalues --  -10.21866 -10.21702 -10.21128 -10.20233 -10.20183
 Alpha  occ. eigenvalues --  -10.19241  -1.21116  -1.16268  -1.15997  -1.15973
 Alpha  occ. eigenvalues --   -1.14978  -1.13860  -1.12478  -1.10506  -1.10335
 Alpha  occ. eigenvalues --   -1.10250  -1.08729  -1.07835  -1.07585  -1.06988
 Alpha  occ. eigenvalues --   -1.06885  -1.05503  -1.03562  -1.02466  -1.00595
 Alpha  occ. eigenvalues --   -0.99811  -0.98873  -0.98809  -0.96967  -0.96729
 Alpha  occ. eigenvalues --   -0.95307  -0.94504  -0.94139  -0.93277  -0.90102
 Alpha  occ. eigenvalues --   -0.89870  -0.89751  -0.87864  -0.86495  -0.85651
 Alpha  occ. eigenvalues --   -0.84823  -0.83951  -0.82928  -0.82136  -0.81416
 Alpha  occ. eigenvalues --   -0.81080  -0.79465  -0.79377  -0.77980  -0.77156
 Alpha  occ. eigenvalues --   -0.76818  -0.76308  -0.75809  -0.75395  -0.75094
 Alpha  occ. eigenvalues --   -0.74623  -0.74048  -0.73424  -0.72212  -0.71292
 Alpha  occ. eigenvalues --   -0.71120  -0.70635  -0.70614  -0.69227  -0.68969
 Alpha  occ. eigenvalues --   -0.68842  -0.68022  -0.67829  -0.66942  -0.66566
 Alpha  occ. eigenvalues --   -0.66281  -0.66035  -0.65114  -0.64728  -0.64675
 Alpha  occ. eigenvalues --   -0.63927  -0.63839  -0.63683  -0.63005  -0.62834
 Alpha  occ. eigenvalues --   -0.62562  -0.61912  -0.61270  -0.60937  -0.60157
 Alpha  occ. eigenvalues --   -0.59745  -0.59559  -0.59346  -0.59006  -0.58552
 Alpha  occ. eigenvalues --   -0.58343  -0.58107  -0.57411  -0.57356  -0.57061
 Alpha  occ. eigenvalues --   -0.56801  -0.56315  -0.55822  -0.55690  -0.55313
 Alpha  occ. eigenvalues --   -0.55158  -0.55010  -0.54918  -0.54671  -0.54290
 Alpha  occ. eigenvalues --   -0.53815  -0.53420  -0.53382  -0.53227  -0.52870
 Alpha  occ. eigenvalues --   -0.52557  -0.52485  -0.52104  -0.52010  -0.51463
 Alpha  occ. eigenvalues --   -0.51214  -0.50796  -0.50714  -0.50424  -0.50116
 Alpha  occ. eigenvalues --   -0.50047  -0.49826  -0.49769  -0.49433  -0.49417
 Alpha  occ. eigenvalues --   -0.48917  -0.48700  -0.48519  -0.48083  -0.47835
 Alpha  occ. eigenvalues --   -0.47591  -0.47355  -0.47278  -0.47179  -0.46937
 Alpha  occ. eigenvalues --   -0.46864  -0.46515  -0.46304  -0.46009  -0.45750
 Alpha  occ. eigenvalues --   -0.45387  -0.45321  -0.45100  -0.45034  -0.44748
 Alpha  occ. eigenvalues --   -0.44441  -0.44299  -0.44270  -0.44035  -0.43733
 Alpha  occ. eigenvalues --   -0.43514  -0.43325  -0.43225  -0.43109  -0.43032
 Alpha  occ. eigenvalues --   -0.42577  -0.42137  -0.42086  -0.41798  -0.41618
 Alpha  occ. eigenvalues --   -0.41361  -0.41308  -0.40826  -0.40797  -0.40776
 Alpha  occ. eigenvalues --   -0.40725  -0.40479  -0.40052  -0.39780  -0.39240
 Alpha  occ. eigenvalues --   -0.38866  -0.38208  -0.38077  -0.37985  -0.37809
 Alpha  occ. eigenvalues --   -0.37664  -0.37243  -0.37115  -0.35945  -0.35688
 Alpha  occ. eigenvalues --   -0.35646  -0.35420  -0.35396  -0.35345  -0.35243
 Alpha  occ. eigenvalues --   -0.34805  -0.34728  -0.34576  -0.33930  -0.33684
 Alpha  occ. eigenvalues --   -0.33477  -0.33146  -0.32941  -0.32283  -0.31946
 Alpha  occ. eigenvalues --   -0.31607  -0.31029  -0.30966  -0.30709  -0.30176
 Alpha  occ. eigenvalues --   -0.29632  -0.29157  -0.28450  -0.20684  -0.20669
 Alpha  occ. eigenvalues --   -0.18854
 Alpha virt. eigenvalues --   -0.14251  -0.12885  -0.10721  -0.10244  -0.07788
 Alpha virt. eigenvalues --   -0.06694  -0.06256  -0.05308  -0.04930  -0.04674
 Alpha virt. eigenvalues --   -0.03688  -0.03377  -0.03306  -0.03128  -0.03046

 Mulliken charges:
               1
     1  N   -0.759779
     2  H    0.423447
     3  H    0.434725
     4  H    0.418574
     5  C   -0.134670
     6  H    0.228210
     7  C    0.640387
     8  C   -0.040082
     9  H    0.170761
    10  H    0.181943
    11  O   -0.530137
    12  O   -0.626472
    13  H    0.455442
    14  N   -0.567964
    15  H    0.360811
    16  C   -0.093038
    17  H    0.209352
    18  C    0.647896
    19  C   -0.476281
    20  H    0.200877
    21  H    0.173958
    22  H    0.190174
    23  O   -0.569376
    24  N   -0.609366
    25  H    0.370668
    26  C   -0.094356
    27  H    0.184941
    28  C    0.649586
    29  C    0.129825
    30  H    0.168696
    31  O   -0.552328
    32  C   -0.463148
    33  H    0.159464
    34  H    0.136348
    35  H    0.176246
    36  O   -0.611063
    37  H    0.391717
    38  N   -0.611303
    39  H    0.360312
    40  C   -0.056201
    41  H    0.170983
    42  C    0.624787
    43  C   -0.072241
    44  H    0.147331
    45  O   -0.544132
    46  C   -0.476057
    47  H    0.141992
    48  H    0.167037
    49  H    0.159018
    50  C   -0.444524
    51  H    0.157070
    52  H    0.141400
    53  H    0.152514
    54  N   -0.603918
    55  H    0.342368
    56  C   -0.034385
    57  H    0.188683
    58  C    0.584674
    59  C   -0.082266
    60  H    0.089335
    61  O   -0.700188
    62  C   -0.252147
    63  H    0.124929
    64  H    0.140430
    65  C   -0.475685
    66  H    0.165634
    67  H    0.170481
    68  H    0.133815
    69  C   -0.467737
    70  H    0.142008
    71  H    0.146271
    72  H    0.179626
    73  N   -0.570320
    74  H    0.442275
    75  C   -0.025750
    76  H    0.131718
    77  C    0.634182
    78  C   -0.409009
    79  H    0.207398
    80  H    0.162087
    81  O   -0.541581
    82  C    0.615924
    83  O   -0.565835
    84  O   -0.526648
    85  N   -0.633265
    86  H    0.337382
    87  C   -0.058842
    88  H    0.211421
    89  C    0.619054
    90  C   -0.363180
    91  H    0.217989
    92  H    0.174635
    93  O   -0.528157
    94  C    0.330689
    95  C   -0.010446
    96  H    0.215525
    97  N   -0.604664
    98  H    0.463313
    99  C    0.301854
   100  H    0.237408
   101  N   -0.550378
   102  N   -0.610864
   103  H    0.345023
   104  C   -0.054686
   105  H    0.190516
   106  C    0.619602
   107  C   -0.256208
   108  H    0.127639
   109  H    0.168753
   110  O   -0.632672
   111  C   -0.065217
   112  H    0.116003
   113  C   -0.444150
   114  H    0.153270
   115  H    0.141296
   116  H    0.131215
   117  C   -0.461836
   118  H    0.149816
   119  H    0.137913
   120  H    0.173340
   121  N   -0.586196
   122  H    0.368107
   123  C   -0.094029
   124  H    0.143170
   125  C    0.583549
   126  C   -0.280772
   127  H    0.176725
   128  H    0.122725
   129  O   -0.578282
   130  C   -0.284843
   131  H    0.150852
   132  H    0.202827
   133  C   -0.161329
   134  H    0.150385
   135  H    0.162451
   136  N   -0.633875
   137  H    0.427969
   138  N   -0.775397
   139  H    0.396350
   140  H    0.363209
   141  N   -0.798037
   142  H    0.383294
   143  H    0.386128
   144  C    0.768935
   145  O   -0.605169
   146  H    0.381818
 Sum of Mulliken charges =   1.00000

 Dipole moment (field-independent basis, Debye):
    X=            -44.0041    Y=            -27.6060    Z=            -37.9533  Tot=             64.3343
 Quadrupole moment (field-independent basis, Debye-Ang):
   XX=           -170.5688   YY=           -391.3156   ZZ=           -236.7199
   XY=            -61.9318   XZ=            166.8247   YZ=             16.1071

 Normal termination of Gaussian 16 at Sun Jun 19 12:01:08 2022.
