 Gaussian 16, Revision C.01,
 Gaussian 16:  ES64L-G16RevC.01  3-Jul-2019

 -------------------------------------------------------------------
 # B3LYP/6-31G* guess=read geom=check nosymm integral(ultrafinegrid)
 -------------------------------------------------------------------

 ------------------------------------------------------
 Candidate Structure: Conf:883 Charge calc in gas phase
 ------------------------------------------------------
 Structure from the checkpoint file:  "conf-883.chk"
 Charge =  1 Multiplicity = 1

                          Input orientation:
 ---------------------------------------------------------------------
 Center     Atomic      Atomic             Coordinates (Angstroms)
 Number     Number       Type             X           Y           Z
 ---------------------------------------------------------------------
      1          7           0       -7.744816   -6.826272   -4.090869
      2          1           0       -8.288386   -7.676141   -4.265671
      3          1           0       -6.764335   -6.942343   -4.498135
      4          1           0       -7.701995   -6.673812   -3.078073
      5          6           0       -8.247927   -5.624211   -4.856171
      6          1           0       -9.222717   -5.857251   -5.289218
      7          6           0       -7.157795   -5.413258   -5.932958
      8          6           0       -8.380696   -4.387635   -3.930179
      9          1           0       -7.393930   -4.154972   -3.502967
     10          1           0       -9.059639   -4.645965   -3.101684
     11          8           0       -6.113313   -6.075602   -5.824909
     12          8           0       -8.896410   -3.336218   -4.691542
     13          1           0       -8.290917   -2.550997   -4.609308
     14          7           0       -7.423843   -4.502549   -6.869975
     15          1           0       -8.247290   -3.924671   -6.705552
     16          6           0       -6.370326   -3.917215   -7.730549
     17          1           0       -5.527273   -4.610240   -7.695880
     18          6           0       -6.017388   -2.579131   -7.043178
     19          6           0       -6.865311   -3.721856   -9.157781
     20          1           0       -6.057952   -3.319441   -9.776733
     21          1           0       -7.692234   -3.007593   -9.186335
     22          1           0       -7.188515   -4.676078   -9.582835
     23          8           0       -6.632595   -1.547090   -7.330489
     24          7           0       -5.118205   -2.662887   -6.044277
     25          1           0       -4.616691   -3.522206   -5.826438
     26          6           0       -4.728436   -1.526463   -5.218183
     27          1           0       -4.601136   -0.650701   -5.865140
     28          6           0       -3.388983   -1.944904   -4.568229
     29          6           0       -5.791674   -1.193718   -4.123797
     30          1           0       -5.736806   -1.970932   -3.351743
     31          8           0       -3.171558   -3.143405   -4.363102
     32          6           0       -5.590040    0.183932   -3.497745
     33          1           0       -4.622875    0.276529   -2.994922
     34          1           0       -5.656652    0.967103   -4.262400
     35          1           0       -6.378520    0.365519   -2.762133
     36          8           0       -7.125346   -1.290499   -4.660281
     37          1           0       -7.111288   -0.962928   -5.585424
     38          7           0       -2.550639   -0.948058   -4.257513
     39          1           0       -2.812850    0.031008   -4.364320
     40          6           0       -1.319132   -1.116713   -3.491541
     41          1           0       -1.468446   -1.937118   -2.780597
     42          6           0       -1.156012    0.221913   -2.732241
     43          6           0       -0.121865   -1.488037   -4.420404
     44          1           0       -0.504056   -2.323395   -5.021904
     45          8           0       -1.814499    1.209303   -3.082638
     46          6           0        0.262476   -0.344124   -5.368509
     47          1           0        0.675419    0.510999   -4.821029
     48          1           0       -0.597328    0.010809   -5.946820
     49          1           0        1.025163   -0.681701   -6.078577
     50          6           0        1.094377   -2.010391   -3.640624
     51          1           0        1.593857   -1.225727   -3.062536
     52          1           0        0.816295   -2.818769   -2.952692
     53          1           0        1.834640   -2.416145   -4.338813
     54          7           0       -0.286874    0.228293   -1.710118
     55          1           0        0.286048   -0.580339   -1.485416
     56          6           0        0.091492    1.435366   -0.979561
     57          1           0        0.058462    2.274655   -1.680235
     58          6           0        1.534164    1.187628   -0.508075
     59          6           0       -0.896855    1.725082    0.194361
     60          1           0       -1.888940    1.679247   -0.276466
     61          8           0        1.982906    0.039128   -0.422898
     62          6           0       -0.747289    3.133151    0.807348
     63          1           0        0.212308    3.202778    1.334087
     64          1           0       -1.521181    3.219387    1.582217
     65          6           0       -0.818114    0.648467    1.287405
     66          1           0        0.145529    0.680032    1.808337
     67          1           0       -0.947240   -0.358820    0.875712
     68          1           0       -1.607535    0.808429    2.030805
     69          6           0       -0.898134    4.305442   -0.172303
     70          1           0       -0.993403    5.249301    0.375648
     71          1           0       -0.035137    4.418648   -0.837989
     72          1           0       -1.792422    4.190795   -0.797433
     73          7           0        2.227161    2.289502   -0.163090
     74          1           0        1.970121    3.215047   -0.525181
     75          6           0        3.604926    2.224677    0.272216
     76          1           0        4.230075    1.788631   -0.522285
     77          6           0        3.807686    1.405467    1.553515
     78          6           0        4.076321    3.666165    0.578687
     79          1           0        3.392205    4.088016    1.324019
     80          1           0        5.075108    3.638242    1.019986
     81          8           0        2.992560    1.320978    2.457066
     82          6           0        4.045352    4.542878   -0.697667
     83          8           0        5.181982    4.906594   -1.156138
     84          8           0        2.924683    4.777276   -1.185968
     85          7           0        5.081829    0.865273    1.630578
     86          1           0        5.730602    1.178092    0.916927
     87          6           0        5.709961    0.647263    2.921437
     88          1           0        4.903779    0.439729    3.629764
     89          6           0        6.475799    1.926782    3.315851
     90          6           0        6.682763   -0.558440    2.843547
     91          1           0        7.501438   -0.292542    2.161532
     92          1           0        6.132931   -1.382371    2.378456
     93          8           0        7.099425    2.575424    2.469134
     94          6           0        7.251779   -1.025087    4.152064
     95          6           0        7.040567   -2.230776    4.775654
     96          1           0        6.434582   -3.082706    4.507363
     97          7           0        8.140163   -0.273776    4.909140
     98          1           0        8.747984    1.422661    4.782016
     99          6           0        8.455164   -1.012906    5.955558
    100          1           0        9.135420   -0.731865    6.747383
    101          7           0        7.811807   -2.207957    5.918841
    102          7           0        6.445327    2.251872    4.625797
    103          1           0        5.920167    1.651020    5.246377
    104          6           0        7.159448    3.378887    5.230490
    105          1           0        6.733469    4.312448    4.855337
    106          6           0        8.638151    3.402820    4.841070
    107          6           0        6.972796    3.281085    6.763048
    108          1           0        5.897305    3.150862    6.957298
    109          1           0        7.469982    2.362883    7.106445
    110          8           0        9.309845    2.249841    4.747588
    111          6           0        7.475919    4.475774    7.596819
    112          1           0        8.534657    4.640816    7.360502
    113          6           0        6.710303    5.770920    7.284951
    114          1           0        5.637561    5.652748    7.486646
    115          1           0        7.076468    6.592614    7.910029
    116          1           0        6.822943    6.079511    6.239889
    117          6           0        7.376789    4.135377    9.091873
    118          1           0        6.335107    3.957908    9.389687
    119          1           0        7.761028    4.958445    9.703755
    120          1           0        7.954956    3.237090    9.339498
    121          7           0        9.184428    4.548122    4.685223
    122          1           0        9.428628    6.131829    5.686429
    123          6           0       10.605787    4.666013    4.382173
    124          1           0       11.170505    3.749437    4.588657
    125          6           0       11.211128    5.779928    5.260325
    126          6           0       10.804509    5.064598    2.901260
    127          1           0       11.865503    5.300868    2.757210
    128          1           0       10.232857    5.985994    2.725048
    129          8           0       12.398493    5.995204    5.312733
    130          6           0       10.351024    3.976309    1.924990
    131          1           0       11.003251    3.097993    2.019771
    132          1           0        9.343108    3.642281    2.190317
    133          6           0       10.376986    4.412603    0.453812
    134          1           0       11.378956    4.754874    0.173588
    135          1           0       10.131619    3.566467   -0.196587
    136          7           0        9.454733    5.505018    0.111206
    137          1           0        9.802219    6.452705    0.146750
    138          7           0        7.544551    4.169263   -0.127847
    139          1           0        6.556452    4.197236   -0.486902
    140          1           0        7.753495    3.567121    0.662250
    141          7           0        7.495205    6.360671   -0.819847
    142          1           0        6.514266    6.170482   -1.075680
    143          1           0        7.992567    7.094351   -1.303208
    144          6           0        8.171510    5.338387   -0.266226
    145          8           0       10.304598    6.515170    5.930571
    146          1           0        7.896664   -2.952008    6.597097
 ---------------------------------------------------------------------

 SCF Done:  E(RB3LYP) =  -3503.38059395     A.U. after    1 cycles

 Alpha  occ. eigenvalues --  -19.27404 -19.26156 -19.24771 -19.22288 -19.21967
 Alpha  occ. eigenvalues --  -19.20825 -19.19865 -19.19130 -19.17471 -19.16307
 Alpha  occ. eigenvalues --  -19.15814 -19.15204 -19.12122 -19.11070 -14.60689
 Alpha  occ. eigenvalues --  -14.49827 -14.47538 -14.45929 -14.44429 -14.43422
 Alpha  occ. eigenvalues --  -14.43412 -14.42132 -14.41057 -14.40697 -14.40649
 Alpha  occ. eigenvalues --  -14.40564 -14.38884 -14.36521 -10.43861 -10.40669
 Alpha  occ. eigenvalues --  -10.39109 -10.39108 -10.38435 -10.37175 -10.35729
 Alpha  occ. eigenvalues --  -10.34537 -10.34528 -10.33817 -10.33713 -10.33603
 Alpha  occ. eigenvalues --  -10.33246 -10.32617 -10.32541 -10.32505 -10.29845
 Alpha  occ. eigenvalues --  -10.29719 -10.29715 -10.29650 -10.29325 -10.29319
 Alpha  occ. eigenvalues --  -10.28653 -10.27532 -10.27279 -10.27192 -10.26496
 Alpha  occ. eigenvalues --  -10.26445 -10.25411 -10.25373 -10.25197 -10.24099
 Alpha  occ. eigenvalues --  -10.23790 -10.23646 -10.23008 -10.22823 -10.22588
 Alpha  occ. eigenvalues --  -10.21951 -10.21909 -10.21848 -10.21035 -10.20527
 Alpha  occ. eigenvalues --  -10.19960  -1.19812  -1.14735  -1.14470  -1.13759
 Alpha  occ. eigenvalues --   -1.11978  -1.11754  -1.11592  -1.11153  -1.10445
 Alpha  occ. eigenvalues --   -1.09711  -1.09313  -1.08255  -1.07795  -1.07190
 Alpha  occ. eigenvalues --   -1.06431  -1.04569  -1.03578  -1.02057  -1.00034
 Alpha  occ. eigenvalues --   -0.99774  -0.97971  -0.97699  -0.97593  -0.96518
 Alpha  occ. eigenvalues --   -0.95885  -0.95548  -0.95403  -0.94612  -0.92107
 Alpha  occ. eigenvalues --   -0.88106  -0.87066  -0.86933  -0.85849  -0.85520
 Alpha  occ. eigenvalues --   -0.84815  -0.84374  -0.82333  -0.81275  -0.80421
 Alpha  occ. eigenvalues --   -0.80098  -0.79831  -0.78709  -0.78173  -0.76174
 Alpha  occ. eigenvalues --   -0.74910  -0.74640  -0.74005  -0.73669  -0.73526
 Alpha  occ. eigenvalues --   -0.73424  -0.72789  -0.72600  -0.71749  -0.70845
 Alpha  occ. eigenvalues --   -0.70322  -0.69717  -0.69507  -0.68917  -0.68661
 Alpha  occ. eigenvalues --   -0.67348  -0.66950  -0.66791  -0.66449  -0.65754
 Alpha  occ. eigenvalues --   -0.65653  -0.65514  -0.64632  -0.64444  -0.63985
 Alpha  occ. eigenvalues --   -0.63680  -0.63121  -0.62431  -0.62273  -0.61886
 Alpha  occ. eigenvalues --   -0.61684  -0.61295  -0.60956  -0.60547  -0.60440
 Alpha  occ. eigenvalues --   -0.59657  -0.59454  -0.59330  -0.59279  -0.58550
 Alpha  occ. eigenvalues --   -0.57477  -0.57124  -0.56596  -0.56239  -0.55957
 Alpha  occ. eigenvalues --   -0.55917  -0.55621  -0.55066  -0.54736  -0.54225
 Alpha  occ. eigenvalues --   -0.53943  -0.53736  -0.53604  -0.53302  -0.53231
 Alpha  occ. eigenvalues --   -0.53084  -0.52881  -0.52585  -0.52278  -0.51919
 Alpha  occ. eigenvalues --   -0.51648  -0.51568  -0.51398  -0.50852  -0.50839
 Alpha  occ. eigenvalues --   -0.50692  -0.50456  -0.50094  -0.49711  -0.49441
 Alpha  occ. eigenvalues --   -0.49292  -0.49095  -0.48824  -0.48749  -0.48209
 Alpha  occ. eigenvalues --   -0.48083  -0.48042  -0.47413  -0.47405  -0.47051
 Alpha  occ. eigenvalues --   -0.46821  -0.46619  -0.46483  -0.46303  -0.46165
 Alpha  occ. eigenvalues --   -0.45992  -0.45934  -0.45815  -0.45721  -0.45532
 Alpha  occ. eigenvalues --   -0.45293  -0.44985  -0.44950  -0.44863  -0.44629
 Alpha  occ. eigenvalues --   -0.44500  -0.44333  -0.44221  -0.43749  -0.43488
 Alpha  occ. eigenvalues --   -0.43374  -0.43279  -0.43077  -0.42918  -0.42761
 Alpha  occ. eigenvalues --   -0.42530  -0.42335  -0.42101  -0.41712  -0.41454
 Alpha  occ. eigenvalues --   -0.41304  -0.40818  -0.40796  -0.40733  -0.40143
 Alpha  occ. eigenvalues --   -0.39948  -0.39691  -0.39415  -0.39245  -0.39242
 Alpha  occ. eigenvalues --   -0.39074  -0.38976  -0.38537  -0.38322  -0.38147
 Alpha  occ. eigenvalues --   -0.37732  -0.37656  -0.37597  -0.37431  -0.36688
 Alpha  occ. eigenvalues --   -0.36358  -0.36294  -0.36206  -0.35846  -0.35397
 Alpha  occ. eigenvalues --   -0.35208  -0.33817  -0.33731  -0.33503  -0.33306
 Alpha  occ. eigenvalues --   -0.32983  -0.32968  -0.32770  -0.32140  -0.31470
 Alpha  occ. eigenvalues --   -0.31384  -0.31049  -0.30751  -0.30520  -0.30108
 Alpha  occ. eigenvalues --   -0.29441  -0.28686  -0.28129  -0.27431  -0.26484
 Alpha  occ. eigenvalues --   -0.25123
 Alpha virt. eigenvalues --   -0.13203  -0.11890  -0.08271  -0.06629  -0.05988
 Alpha virt. eigenvalues --   -0.05267  -0.05219  -0.04200  -0.04028  -0.03569
 Alpha virt. eigenvalues --   -0.03388  -0.02559  -0.02432  -0.02213  -0.01640

 Mulliken charges:
               1
     1  N   -0.763852
     2  H    0.421270
     3  H    0.437835
     4  H    0.415927
     5  C   -0.122498
     6  H    0.231485
     7  C    0.634439
     8  C   -0.037262
     9  H    0.166960
    10  H    0.164914
    11  O   -0.537762
    12  O   -0.644424
    13  H    0.465057
    14  N   -0.571711
    15  H    0.375518
    16  C   -0.079509
    17  H    0.201014
    18  C    0.628305
    19  C   -0.449406
    20  H    0.184625
    21  H    0.186675
    22  H    0.168047
    23  O   -0.545205
    24  N   -0.613673
    25  H    0.365936
    26  C   -0.084244
    27  H    0.185619
    28  C    0.611164
    29  C    0.152522
    30  H    0.139406
    31  O   -0.552592
    32  C   -0.472573
    33  H    0.178605
    34  H    0.164683
    35  H    0.174794
    36  O   -0.679586
    37  H    0.439911
    38  N   -0.609559
    39  H    0.367855
    40  C   -0.063952
    41  H    0.171490
    42  C    0.629086
    43  C   -0.068508
    44  H    0.151537
    45  O   -0.558726
    46  C   -0.458013
    47  H    0.165247
    48  H    0.145566
    49  H    0.154053
    50  C   -0.476940
    51  H    0.172901
    52  H    0.145445
    53  H    0.156472
    54  N   -0.618596
    55  H    0.363814
    56  C   -0.070204
    57  H    0.187516
    58  C    0.634660
    59  C   -0.068103
    60  H    0.138974
    61  O   -0.565193
    62  C   -0.266422
    63  H    0.158647
    64  H    0.131727
    65  C   -0.472629
    66  H    0.186889
    67  H    0.131203
    68  H    0.139210
    69  C   -0.471324
    70  H    0.149250
    71  H    0.173311
    72  H    0.145346
    73  N   -0.631768
    74  H    0.390032
    75  C   -0.042684
    76  H    0.155395
    77  C    0.638813
    78  C   -0.415396
    79  H    0.174082
    80  H    0.144470
    81  O   -0.514643
    82  C    0.610597
    83  O   -0.625192
    84  O   -0.551090
    85  N   -0.589044
    86  H    0.329233
    87  C   -0.074990
    88  H    0.181973
    89  C    0.648049
    90  C   -0.351919
    91  H    0.172271
    92  H    0.179075
    93  O   -0.560982
    94  C    0.264498
    95  C   -0.021757
    96  H    0.179331
    97  N   -0.539378
    98  H    0.474925
    99  C    0.242468
   100  H    0.188380
   101  N   -0.550828
   102  N   -0.625064
   103  H    0.343839
   104  C    0.005641
   105  H    0.188945
   106  C    0.556348
   107  C   -0.308059
   108  H    0.145419
   109  H    0.139515
   110  O   -0.658136
   111  C   -0.078800
   112  H    0.145521
   113  C   -0.459269
   114  H    0.143457
   115  H    0.162144
   116  H    0.151980
   117  C   -0.445319
   118  H    0.141631
   119  H    0.159798
   120  H    0.140010
   121  N   -0.529658
   122  H    0.438977
   123  C   -0.084143
   124  H    0.177193
   125  C    0.596900
   126  C   -0.259478
   127  H    0.167039
   128  H    0.135269
   129  O   -0.466042
   130  C   -0.288597
   131  H    0.154243
   132  H    0.185943
   133  C   -0.163679
   134  H    0.169017
   135  H    0.178237
   136  N   -0.596920
   137  H    0.348146
   138  N   -0.810558
   139  H    0.413225
   140  H    0.392797
   141  N   -0.777618
   142  H    0.417636
   143  H    0.345654
   144  C    0.762652
   145  O   -0.588813
   146  H    0.356621
 Sum of Mulliken charges =   1.00000

 Dipole moment (field-independent basis, Debye):
    X=            -15.8275    Y=            -27.1988    Z=             -9.5303  Tot=             32.8803
 Quadrupole moment (field-independent basis, Debye-Ang):
   XX=           -113.6436   YY=           -264.3313   ZZ=           -277.1044
   XY=            163.6671   XZ=            144.9164   YZ=             56.9367

 Normal termination of Gaussian 16 at Sun Jun 19 11:59:39 2022.
