 Gaussian 16, Revision C.01,
 Gaussian 16:  ES64L-G16RevC.01  3-Jul-2019

 -------------------------------------------------------------------
 # B3LYP/6-31G* guess=read geom=check nosymm integral(ultrafinegrid)
 -------------------------------------------------------------------

 ------------------------------------------------------
 Candidate Structure: Conf:472 Charge calc in gas phase
 ------------------------------------------------------
 Structure from the checkpoint file:  "conf-472.chk"
 Charge =  1 Multiplicity = 1

                          Input orientation:
 ---------------------------------------------------------------------
 Center     Atomic      Atomic             Coordinates (Angstroms)
 Number     Number       Type             X           Y           Z
 ---------------------------------------------------------------------
      1          7           0       -6.682499   -7.795570   -4.311362
      2          1           0       -7.038243   -8.735982   -4.504574
      3          1           0       -5.643596   -7.839792   -4.109392
      4          1           0       -7.173021   -7.422233   -3.490974
      5          6           0       -6.746162   -6.863184   -5.500738
      6          1           0       -7.323979   -7.333365   -6.298719
      7          6           0       -5.267121   -6.639463   -5.871114
      8          6           0       -7.410976   -5.508809   -5.089457
      9          1           0       -6.831992   -5.074639   -4.262365
     10          1           0       -8.430745   -5.725850   -4.744372
     11          8           0       -4.401914   -7.059023   -5.084063
     12          8           0       -7.472851   -4.659781   -6.198957
     13          1           0       -6.733470   -4.008642   -6.113719
     14          7           0       -5.029381   -5.906525   -6.965625
     15          1           0       -5.860841   -5.503645   -7.393982
     16          6           0       -3.820361   -5.053067   -7.033345
     17          1           0       -2.956427   -5.689818   -6.830444
     18          6           0       -4.014490   -4.006247   -5.908272
     19          6           0       -3.711830   -4.406028   -8.412183
     20          1           0       -2.803594   -3.799085   -8.468682
     21          1           0       -4.567677   -3.749082   -8.599486
     22          1           0       -3.664951   -5.170083   -9.193508
     23          8           0       -5.089775   -3.394650   -5.818514
     24          7           0       -3.016199   -3.877853   -5.024951
     25          1           0       -2.093306   -4.279961   -5.177510
     26          6           0       -3.125536   -3.082134   -3.809182
     27          1           0       -3.870675   -2.301611   -3.978889
     28          6           0       -1.716304   -2.518380   -3.551057
     29          6           0       -3.571947   -3.991024   -2.603639
     30          1           0       -2.672741   -4.506361   -2.235306
     31          8           0       -0.738301   -3.179185   -3.907673
     32          6           0       -4.206028   -3.184830   -1.479696
     33          1           0       -3.522504   -2.426382   -1.085715
     34          1           0       -5.114624   -2.686460   -1.836586
     35          1           0       -4.482474   -3.852796   -0.658597
     36          8           0       -4.525002   -4.974592   -3.020418
     37          1           0       -4.061068   -5.592288   -3.610103
     38          7           0       -1.663608   -1.328461   -2.924493
     39          1           0       -2.508226   -0.941950   -2.508646
     40          6           0       -0.449404   -0.776278   -2.332342
     41          1           0        0.277793   -1.591186   -2.247429
     42          6           0       -0.863888   -0.288661   -0.922822
     43          6           0        0.181170    0.362629   -3.185633
     44          1           0        1.072316    0.695200   -2.634447
     45          8           0       -2.058769   -0.217362   -0.613567
     46          6           0        0.650936   -0.163102   -4.549013
     47          1           0       -0.198617   -0.483246   -5.162421
     48          1           0        1.326564   -1.018383   -4.444349
     49          1           0        1.177331    0.626791   -5.096277
     50          6           0       -0.760990    1.564692   -3.342772
     51          1           0       -1.668395    1.282796   -3.890044
     52          1           0       -1.064809    1.984635   -2.378122
     53          1           0       -0.268033    2.360476   -3.911019
     54          7           0        0.145585    0.055453   -0.103506
     55          1           0        1.102933    0.042027   -0.434501
     56          6           0       -0.044876    0.723215    1.188496
     57          1           0       -0.929274    1.355389    1.094229
     58          6           0        1.182669    1.627918    1.421180
     59          6           0       -0.314808   -0.304839    2.327710
     60          1           0       -1.153736   -0.912063    1.959391
     61          8           0        2.308637    1.246062    0.908972
     62          6           0       -0.765901    0.357411    3.645645
     63          1           0        0.036571    1.004306    4.020640
     64          1           0       -0.894405   -0.446343    4.384613
     65          6           0        0.877798   -1.240469    2.568108
     66          1           0        1.742377   -0.690506    2.959169
     67          1           0        1.185751   -1.745188    1.645090
     68          1           0        0.616209   -2.015871    3.297493
     69          6           0       -2.066352    1.165324    3.560432
     70          1           0       -2.397734    1.465267    4.560973
     71          1           0       -1.939278    2.081534    2.975903
     72          1           0       -2.873560    0.579933    3.102973
     73          7           0        0.941224    2.702421    2.119645
     74          1           0       -0.348351    3.796786    1.750203
     75          6           0        2.003118    3.701557    2.297036
     76          1           0        2.565876    3.821396    1.358428
     77          6           0        3.011288    3.269500    3.381107
     78          6           0        1.381814    5.050859    2.705719
     79          1           0        0.951510    4.931521    3.707397
     80          1           0        2.155122    5.818790    2.775556
     81          8           0        2.964437    3.634624    4.554680
     82          6           0        0.289661    5.584869    1.775208
     83          8           0       -0.657734    4.694102    1.431051
     84          8           0        0.246502    6.738238    1.409497
     85          7           0        3.999265    2.440354    2.924959
     86          1           0        3.843002    1.956567    2.039304
     87          6           0        4.976989    1.902239    3.833394
     88          1           0        5.356839    2.715564    4.462161
     89          6           0        6.088266    1.254794    3.003158
     90          6           0        4.321466    0.826508    4.776661
     91          1           0        4.114904   -0.077360    4.193174
     92          1           0        3.365917    1.256663    5.084143
     93          8           0        5.873000    0.833831    1.870130
     94          6           0        5.070989    0.477522    6.022265
     95          6           0        4.872531    0.930973    7.301416
     96          1           0        4.155827    1.637110    7.691147
     97          7           0        6.125984   -0.426024    6.090090
     98          1           0        6.594551   -0.950551    5.259268
     99          6           0        6.545148   -0.526346    7.346844
    100          1           0        7.345988   -1.158423    7.698782
    101          7           0        5.798985    0.292581    8.104582
    102          7           0        7.281085    1.059237    3.629798
    103          1           0        7.461178    1.498758    4.521737
    104          6           0        8.284851    0.148136    3.073746
    105          1           0        8.471298    0.444965    2.038715
    106          6           0        7.709480   -1.287586    3.098693
    107          6           0        9.576670    0.246501    3.901424
    108          1           0        9.883842    1.301866    3.925729
    109          1           0        9.339511   -0.045755    4.934487
    110          8           0        7.270246   -1.770012    4.178308
    111          6           0       10.757118   -0.610673    3.400636
    112          1           0       10.425305   -1.657807    3.363293
    113          6           0       11.224549   -0.206940    1.993650
    114          1           0       11.517792    0.850588    1.964741
    115          1           0       12.095536   -0.800226    1.695435
    116          1           0       10.453179   -0.366098    1.232679
    117          6           0       11.917352   -0.523064    4.403895
    118          1           0       12.295375    0.504458    4.481967
    119          1           0       12.751779   -1.159607    4.090949
    120          1           0       11.609341   -0.844932    5.406117
    121          7           0        7.728440   -1.935649    1.949678
    122          1           0        7.955608   -1.447024    1.069710
    123          6           0        7.158958   -3.241548    1.588502
    124          1           0        7.805564   -4.041362    1.965408
    125          6           0        7.158504   -3.281003    0.016214
    126          6           0        5.724714   -3.481503    2.110734
    127          1           0        5.758758   -3.605360    3.196972
    128          1           0        5.405237   -4.434332    1.676025
    129          8           0        6.743664   -4.315713   -0.508427
    130          6           0        4.725515   -2.356562    1.780644
    131          1           0        3.869850   -2.434319    2.464270
    132          1           0        5.195426   -1.390730    1.981566
    133          6           0        4.185587   -2.316608    0.329945
    134          1           0        4.875444   -2.764148   -0.383147
    135          1           0        3.259253   -2.898841    0.257913
    136          7           0        3.879284   -0.944768   -0.092153
    137          1           0        3.233531   -0.396941    0.485243
    138          7           0        5.575012   -0.691603   -1.697264
    139          1           0        5.945345   -0.098863   -2.427281
    140          1           0        6.258500   -1.387478   -1.304067
    141          7           0        4.024635    1.007014   -1.306958
    142          1           0        4.683269    1.688162   -1.660162
    143          1           0        3.337424    1.376556   -0.640744
    144          6           0        4.533022   -0.222220   -1.007386
    145          8           0        7.505786   -2.175651   -0.538301
    146          1           0        5.896167    0.409045    9.105139
 ---------------------------------------------------------------------

 SCF Done:  E(RB3LYP) =  -3503.36116764     A.U. after    1 cycles

 Alpha  occ. eigenvalues --  -19.28289 -19.26224 -19.23694 -19.22827 -19.19877
 Alpha  occ. eigenvalues --  -19.19780 -19.19376 -19.17454 -19.17232 -19.16196
 Alpha  occ. eigenvalues --  -19.15937 -19.12537 -19.12482 -19.10921 -14.60923
 Alpha  occ. eigenvalues --  -14.53984 -14.50705 -14.50102 -14.46707 -14.44619
 Alpha  occ. eigenvalues --  -14.43062 -14.42405 -14.41871 -14.41504 -14.41117
 Alpha  occ. eigenvalues --  -14.41016 -14.40166 -14.34025 -10.44510 -10.40711
 Alpha  occ. eigenvalues --  -10.39965 -10.39949 -10.38586 -10.37682 -10.36887
 Alpha  occ. eigenvalues --  -10.36598 -10.35913 -10.35579 -10.34950 -10.34698
 Alpha  occ. eigenvalues --  -10.34413 -10.32876 -10.32841 -10.31823 -10.31334
 Alpha  occ. eigenvalues --  -10.31283 -10.30947 -10.30705 -10.29810 -10.29282
 Alpha  occ. eigenvalues --  -10.28934 -10.28886 -10.27334 -10.26611 -10.26391
 Alpha  occ. eigenvalues --  -10.26033 -10.25833 -10.25454 -10.25275 -10.24972
 Alpha  occ. eigenvalues --  -10.23339 -10.23216 -10.23198 -10.22902 -10.22682
 Alpha  occ. eigenvalues --  -10.22446 -10.22301 -10.22295 -10.21569 -10.21072
 Alpha  occ. eigenvalues --  -10.20336  -1.20439  -1.17288  -1.15008  -1.14941
 Alpha  occ. eigenvalues --   -1.13675  -1.12125  -1.11457  -1.10739  -1.10362
 Alpha  occ. eigenvalues --   -1.09121  -1.08491  -1.07942  -1.07050  -1.06872
 Alpha  occ. eigenvalues --   -1.05245  -1.04996  -1.03735  -1.02639  -1.00692
 Alpha  occ. eigenvalues --   -1.00418  -0.99650  -0.98480  -0.97638  -0.97328
 Alpha  occ. eigenvalues --   -0.96695  -0.96140  -0.94548  -0.92177  -0.92026
 Alpha  occ. eigenvalues --   -0.90845  -0.88601  -0.88069  -0.86863  -0.85348
 Alpha  occ. eigenvalues --   -0.84787  -0.84437  -0.83915  -0.81664  -0.80244
 Alpha  occ. eigenvalues --   -0.80110  -0.80039  -0.78603  -0.78130  -0.78040
 Alpha  occ. eigenvalues --   -0.76503  -0.76411  -0.75497  -0.74897  -0.74064
 Alpha  occ. eigenvalues --   -0.73949  -0.73434  -0.73386  -0.72852  -0.72768
 Alpha  occ. eigenvalues --   -0.72180  -0.71032  -0.69588  -0.69251  -0.68532
 Alpha  occ. eigenvalues --   -0.68172  -0.68089  -0.67415  -0.66975  -0.66560
 Alpha  occ. eigenvalues --   -0.66038  -0.65958  -0.65312  -0.64216  -0.63833
 Alpha  occ. eigenvalues --   -0.63591  -0.63393  -0.63113  -0.62414  -0.62262
 Alpha  occ. eigenvalues --   -0.62157  -0.61681  -0.61041  -0.60777  -0.60544
 Alpha  occ. eigenvalues --   -0.60317  -0.60012  -0.59450  -0.59313  -0.58591
 Alpha  occ. eigenvalues --   -0.58362  -0.58337  -0.57845  -0.57266  -0.57150
 Alpha  occ. eigenvalues --   -0.56715  -0.56139  -0.55948  -0.55714  -0.55068
 Alpha  occ. eigenvalues --   -0.54868  -0.54594  -0.54297  -0.54083  -0.53964
 Alpha  occ. eigenvalues --   -0.53529  -0.53393  -0.53314  -0.52920  -0.52647
 Alpha  occ. eigenvalues --   -0.52570  -0.52340  -0.51931  -0.51698  -0.51546
 Alpha  occ. eigenvalues --   -0.51094  -0.50635  -0.50335  -0.50087  -0.49661
 Alpha  occ. eigenvalues --   -0.49445  -0.49413  -0.49168  -0.48886  -0.48832
 Alpha  occ. eigenvalues --   -0.48418  -0.48294  -0.48098  -0.48028  -0.47890
 Alpha  occ. eigenvalues --   -0.47376  -0.47296  -0.46848  -0.46839  -0.46629
 Alpha  occ. eigenvalues --   -0.46548  -0.45936  -0.45915  -0.45794  -0.45667
 Alpha  occ. eigenvalues --   -0.45436  -0.45364  -0.44941  -0.44664  -0.44536
 Alpha  occ. eigenvalues --   -0.44362  -0.44285  -0.44100  -0.44029  -0.43919
 Alpha  occ. eigenvalues --   -0.43540  -0.43491  -0.43308  -0.43092  -0.43051
 Alpha  occ. eigenvalues --   -0.42712  -0.42608  -0.42457  -0.42254  -0.41837
 Alpha  occ. eigenvalues --   -0.41707  -0.41629  -0.41549  -0.41267  -0.40365
 Alpha  occ. eigenvalues --   -0.39940  -0.39915  -0.39782  -0.39638  -0.39364
 Alpha  occ. eigenvalues --   -0.39349  -0.38864  -0.38832  -0.38700  -0.38661
 Alpha  occ. eigenvalues --   -0.38417  -0.37956  -0.37636  -0.37142  -0.37015
 Alpha  occ. eigenvalues --   -0.36813  -0.36741  -0.36569  -0.36410  -0.36053
 Alpha  occ. eigenvalues --   -0.35238  -0.35168  -0.34064  -0.33499  -0.33292
 Alpha  occ. eigenvalues --   -0.33189  -0.32757  -0.32069  -0.31806  -0.31491
 Alpha  occ. eigenvalues --   -0.31228  -0.30652  -0.30513  -0.30181  -0.29589
 Alpha  occ. eigenvalues --   -0.28533  -0.27926  -0.27215  -0.26519  -0.26217
 Alpha  occ. eigenvalues --   -0.25015
 Alpha virt. eigenvalues --   -0.14198  -0.12159  -0.11793  -0.09210  -0.08448
 Alpha virt. eigenvalues --   -0.06644  -0.06254  -0.05667  -0.05454  -0.04168
 Alpha virt. eigenvalues --   -0.03636  -0.03545  -0.03447  -0.02774  -0.02618

 Mulliken charges:
               1
     1  N   -0.758985
     2  H    0.421329
     3  H    0.435905
     4  H    0.423154
     5  C   -0.126588
     6  H    0.229497
     7  C    0.639438
     8  C   -0.062879
     9  H    0.204058
    10  H    0.172910
    11  O   -0.546973
    12  O   -0.630024
    13  H    0.459469
    14  N   -0.564255
    15  H    0.365689
    16  C   -0.071156
    17  H    0.193658
    18  C    0.633241
    19  C   -0.474266
    20  H    0.192450
    21  H    0.182714
    22  H    0.186676
    23  O   -0.567767
    24  N   -0.608919
    25  H    0.365925
    26  C   -0.064656
    27  H    0.189925
    28  C    0.615086
    29  C    0.124369
    30  H    0.147201
    31  O   -0.542773
    32  C   -0.480010
    33  H    0.190474
    34  H    0.160342
    35  H    0.164925
    36  O   -0.665683
    37  H    0.417405
    38  N   -0.594825
    39  H    0.361049
    40  C   -0.078425
    41  H    0.180355
    42  C    0.630705
    43  C   -0.079842
    44  H    0.138925
    45  O   -0.555791
    46  C   -0.443135
    47  H    0.144760
    48  H    0.158173
    49  H    0.149422
    50  C   -0.463986
    51  H    0.144817
    52  H    0.172326
    53  H    0.157917
    54  N   -0.622384
    55  H    0.339618
    56  C   -0.023371
    57  H    0.184322
    58  C    0.560778
    59  C   -0.072969
    60  H    0.141243
    61  O   -0.677354
    62  C   -0.248655
    63  H    0.146269
    64  H    0.119333
    65  C   -0.469850
    66  H    0.142212
    67  H    0.137754
    68  H    0.142227
    69  C   -0.459059
    70  H    0.142526
    71  H    0.169611
    72  H    0.142883
    73  N   -0.571481
    74  H    0.443252
    75  C   -0.058286
    76  H    0.139722
    77  C    0.628156
    78  C   -0.383834
    79  H    0.187461
    80  H    0.165397
    81  O   -0.548320
    82  C    0.578648
    83  O   -0.608908
    84  O   -0.470478
    85  N   -0.628147
    86  H    0.377876
    87  C   -0.031266
    88  H    0.170664
    89  C    0.627176
    90  C   -0.379294
    91  H    0.194899
    92  H    0.220734
    93  O   -0.522221
    94  C    0.304052
    95  C   -0.003607
    96  H    0.230210
    97  N   -0.610087
    98  H    0.462286
    99  C    0.286238
   100  H    0.240548
   101  N   -0.545585
   102  N   -0.637497
   103  H    0.330483
   104  C   -0.022605
   105  H    0.182935
   106  C    0.658807
   107  C   -0.293877
   108  H    0.150622
   109  H    0.122270
   110  O   -0.631963
   111  C   -0.083552
   112  H    0.149013
   113  C   -0.455220
   114  H    0.145089
   115  H    0.161522
   116  H    0.156330
   117  C   -0.444419
   118  H    0.146297
   119  H    0.159798
   120  H    0.136143
   121  N   -0.593396
   122  H    0.377453
   123  C   -0.043000
   124  H    0.167300
   125  C    0.594968
   126  C   -0.280235
   127  H    0.147274
   128  H    0.173351
   129  O   -0.550123
   130  C   -0.324296
   131  H    0.137970
   132  H    0.183268
   133  C   -0.170953
   134  H    0.219797
   135  H    0.159428
   136  N   -0.631421
   137  H    0.391825
   138  N   -0.780314
   139  H    0.341678
   140  H    0.436701
   141  N   -0.792883
   142  H    0.341486
   143  H    0.397666
   144  C    0.757400
   145  O   -0.642024
   146  H    0.386614
 Sum of Mulliken charges =   1.00000

 Dipole moment (field-independent basis, Debye):
    X=             -6.3414    Y=            -29.9273    Z=             -0.6696  Tot=             30.5991
 Quadrupole moment (field-independent basis, Debye-Ang):
   XX=           -152.9065   YY=           -299.6865   ZZ=           -131.5241
   XY=            242.2189   XZ=            258.5852   YZ=            113.0478

 Normal termination of Gaussian 16 at Sun Jun 19 11:59:57 2022.
