 Gaussian 16, Revision C.01,
 Gaussian 16:  ES64L-G16RevC.01  3-Jul-2019

 -------------------------------------------------------------------
 # B3LYP/6-31G* guess=read geom=check nosymm integral(ultrafinegrid)
 -------------------------------------------------------------------

 ------------------------------------------------------
 Candidate Structure: Conf:978 Charge calc in gas phase
 ------------------------------------------------------
 Structure from the checkpoint file:  "conf-978.chk"
 Charge =  1 Multiplicity = 1

                          Input orientation:
 ---------------------------------------------------------------------
 Center     Atomic      Atomic             Coordinates (Angstroms)
 Number     Number       Type             X           Y           Z
 ---------------------------------------------------------------------
      1          7           0      -12.028235   -3.046889   -7.270779
      2          1           0      -12.106738   -2.202844   -7.844556
      3          1           0      -11.404481   -3.731480   -7.772667
      4          1           0      -12.971081   -3.415920   -7.065891
      5          6           0      -11.307867   -2.819879   -5.969735
      6          1           0      -11.421306   -1.772074   -5.682645
      7          6           0       -9.842561   -3.221142   -6.273427
      8          6           0      -11.960366   -3.770380   -4.934124
      9          1           0      -11.638385   -3.492752   -3.925851
     10          1           0      -11.629490   -4.795801   -5.128106
     11          8           0       -9.653333   -3.928372   -7.273638
     12          8           0      -13.371373   -3.757672   -5.092106
     13          1           0      -13.771822   -3.119421   -4.480819
     14          7           0       -8.935330   -2.810931   -5.400458
     15          1           0       -9.161443   -2.256340   -4.566609
     16          6           0       -7.519712   -3.186438   -5.405188
     17          1           0       -7.445989   -4.272335   -5.532971
     18          6           0       -7.032191   -2.793491   -3.989102
     19          6           0       -6.732560   -2.477487   -6.517983
     20          1           0       -5.680946   -2.777645   -6.492305
     21          1           0       -6.781678   -1.391129   -6.393867
     22          1           0       -7.140846   -2.747466   -7.495567
     23          8           0       -7.777359   -2.118473   -3.257840
     24          7           0       -5.805797   -3.195961   -3.668251
     25          1           0       -5.219973   -3.743416   -4.298267
     26          6           0       -5.128595   -2.872966   -2.418393
     27          1           0       -5.390300   -1.846169   -2.138292
     28          6           0       -3.625322   -2.994474   -2.757884
     29          6           0       -5.557129   -3.842101   -1.270502
     30          1           0       -5.100143   -4.818563   -1.469904
     31          8           0       -3.280522   -3.774844   -3.652376
     32          6           0       -5.124710   -3.335057    0.106036
     33          1           0       -4.039273   -3.230206    0.200201
     34          1           0       -5.580199   -2.358506    0.317857
     35          1           0       -5.471306   -4.038082    0.869071
     36          8           0       -6.958882   -4.082065   -1.316443
     37          1           0       -7.405432   -3.220366   -1.383303
     38          7           0       -2.799049   -2.216728   -2.047328
     39          1           0       -3.141645   -1.696104   -1.244510
     40          6           0       -1.339574   -2.282586   -2.104721
     41          1           0       -1.076172   -3.246092   -2.557059
     42          6           0       -0.905426   -2.252096   -0.618123
     43          6           0       -0.730764   -1.123582   -2.961038
     44          1           0       -0.806559   -0.199445   -2.377265
     45          8           0       -1.692989   -1.888337    0.254451
     46          6           0        0.759469   -1.349682   -3.254330
     47          1           0        0.930708   -2.285109   -3.807353
     48          1           0        1.362424   -1.355682   -2.342528
     49          1           0        1.134996   -0.515292   -3.852116
     50          6           0       -1.489700   -0.950606   -4.285052
     51          1           0       -1.452644   -1.858817   -4.899909
     52          1           0       -2.541184   -0.693290   -4.122667
     53          1           0       -1.034524   -0.130846   -4.850600
     54          7           0        0.351894   -2.687916   -0.334394
     55          1           0        0.958951   -2.943535   -1.100581
     56          6           0        0.950420   -2.521083    0.995349
     57          1           0        0.217912   -1.927871    1.546322
     58          6           0        2.230553   -1.669022    0.840327
     59          6           0        1.128328   -3.872741    1.731892
     60          1           0        0.101744   -4.246466    1.864277
     61          8           0        3.361850   -2.198323    0.771130
     62          6           0        1.736579   -3.698074    3.139482
     63          1           0        2.778461   -3.369325    3.034203
     64          1           0        1.773100   -4.691069    3.608389
     65          6           0        1.903740   -4.927215    0.926293
     66          1           0        2.934360   -4.609745    0.750561
     67          1           0        1.428833   -5.114894   -0.043350
     68          1           0        1.917350   -5.880620    1.468198
     69          6           0        0.976039   -2.739085    4.065437
     70          1           0        1.394570   -2.761476    5.079130
     71          1           0        1.023162   -1.701609    3.716359
     72          1           0       -0.082857   -3.014663    4.141567
     73          7           0        2.000651   -0.349015    0.759024
     74          1           0        1.021973   -0.002802    0.491756
     75          6           0        2.983140    0.594610    0.192777
     76          1           0        3.518428    0.083366   -0.621426
     77          6           0        4.044958    0.977797    1.243590
     78          6           0        2.249474    1.831284   -0.359085
     79          1           0        1.946424    2.459454    0.485833
     80          1           0        2.943163    2.408483   -0.974527
     81          8           0        4.164801    2.109673    1.722664
     82          6           0        0.981942    1.466259   -1.192570
     83          8           0        0.112490    0.772579   -0.544821
     84          8           0        0.909932    1.854068   -2.365203
     85          7           0        4.869224   -0.047566    1.601026
     86          1           0        4.605730   -0.983751    1.261766
     87          6           0        5.765772    0.119579    2.728712
     88          1           0        5.257135    0.754336    3.466319
     89          6           0        7.077024    0.836197    2.321479
     90          6           0        6.124791   -1.234585    3.360961
     91          1           0        6.832779   -1.747216    2.700026
     92          1           0        5.225400   -1.851682    3.446017
     93          8           0        8.136974    0.219472    2.178860
     94          6           0        6.730761   -1.099582    4.726592
     95          6           0        6.469603   -1.810735    5.867887
     96          1           0        5.774193   -2.614544    6.050127
     97          7           0        7.715103   -0.180425    5.075501
     98          1           0        8.133827    0.580981    4.492508
     99          6           0        8.040187   -0.316383    6.357688
    100          1           0        8.790733    0.262258    6.883979
    101          7           0        7.297497   -1.313031    6.860088
    102          7           0        6.978829    2.178264    2.256971
    103          1           0        6.036072    2.571977    2.249987
    104          6           0        8.144879    3.030995    2.119035
    105          1           0        8.591549    2.895328    1.126452
    106          6           0        9.200998    2.626494    3.172958
    107          6           0        7.685935    4.499288    2.305431
    108          1           0        6.796132    4.634389    1.674491
    109          1           0        7.351895    4.613575    3.345133
    110          8           0        8.900708    2.099695    4.259591
    111          6           0        8.695756    5.612560    1.959875
    112          1           0        9.602885    5.479813    2.563521
    113          6           0        9.100899    5.602597    0.477007
    114          1           0        8.224464    5.735354   -0.170101
    115          1           0        9.801067    6.417544    0.265883
    116          1           0        9.593194    4.670260    0.173159
    117          6           0        8.092014    6.974794    2.337771
    118          1           0        7.179640    7.175933    1.761991
    119          1           0        8.801637    7.783580    2.133281
    120          1           0        7.832805    7.017029    3.402173
    121          7           0       10.472589    2.922708    2.851184
    122          1           0       10.667762    3.489888    2.033086
    123          6           0       11.590998    2.761850    3.770437
    124          1           0       11.170349    2.471734    4.731656
    125          6           0       12.302851    4.124726    3.879593
    126          6           0       12.563083    1.671835    3.246315
    127          1           0       12.922692    2.003675    2.264797
    128          1           0       11.974988    0.762390    3.071217
    129          8           0       12.281108    4.911488    2.954403
    130          6           0       13.774232    1.375730    4.149117
    131          1           0       14.587094    0.979962    3.527489
    132          1           0       14.161420    2.301579    4.580474
    133          6           0       13.557414    0.333157    5.262436
    134          1           0       13.560586   -0.667966    4.819477
    135          1           0       14.404475    0.381818    5.957139
    136          7           0       12.314296    0.395495    6.038489
    137          1           0       11.661197   -0.364730    5.929066
    138          7           0       12.553642    2.498140    6.992738
    139          1           0       12.329880    3.020068    7.838637
    140          1           0       12.847445    3.635144    5.686550
    141          7           0       11.013557    0.877284    7.888230
    142          1           0       10.786976    1.576725    8.588659
    143          1           0       11.266092    0.001514    8.340542
    144          6           0       12.008494    1.326370    6.984155
    145          8           0       12.966180    4.366581    5.007237
    146          1           0        7.327205   -1.633271    7.818740
 ---------------------------------------------------------------------

 SCF Done:  E(RB3LYP) =  -3503.32883347     A.U. after    1 cycles

 Alpha  occ. eigenvalues --  -19.30243 -19.25432 -19.22237 -19.20431 -19.19089
 Alpha  occ. eigenvalues --  -19.18711 -19.17637 -19.17564 -19.16329 -19.15929
 Alpha  occ. eigenvalues --  -19.15036 -19.14629 -19.06710 -19.05650 -14.59083
 Alpha  occ. eigenvalues --  -14.53659 -14.50865 -14.48116 -14.45262 -14.44205
 Alpha  occ. eigenvalues --  -14.43415 -14.42908 -14.41037 -14.39944 -14.39384
 Alpha  occ. eigenvalues --  -14.39211 -14.38958 -14.36258 -10.42512 -10.40027
 Alpha  occ. eigenvalues --  -10.39256 -10.38873 -10.38338 -10.37331 -10.36118
 Alpha  occ. eigenvalues --  -10.36115 -10.34829 -10.34336 -10.34132 -10.33590
 Alpha  occ. eigenvalues --  -10.33296 -10.32208 -10.31816 -10.31217 -10.29877
 Alpha  occ. eigenvalues --  -10.29710 -10.29465 -10.29358 -10.29051 -10.29026
 Alpha  occ. eigenvalues --  -10.28280 -10.26734 -10.25922 -10.25545 -10.25541
 Alpha  occ. eigenvalues --  -10.25161 -10.25038 -10.24562 -10.24331 -10.23590
 Alpha  occ. eigenvalues --  -10.22103 -10.21657 -10.21647 -10.21463 -10.21245
 Alpha  occ. eigenvalues --  -10.20955 -10.19747 -10.19716 -10.18281 -10.18216
 Alpha  occ. eigenvalues --  -10.17531  -1.18561  -1.17044  -1.17028  -1.13590
 Alpha  occ. eigenvalues --   -1.12860  -1.12144  -1.10879  -1.09090  -1.08335
 Alpha  occ. eigenvalues --   -1.07411  -1.07351  -1.06617  -1.06332  -1.05692
 Alpha  occ. eigenvalues --   -1.05517  -1.04671  -1.03612  -0.99860  -0.99409
 Alpha  occ. eigenvalues --   -0.99337  -0.98138  -0.98097  -0.96657  -0.96576
 Alpha  occ. eigenvalues --   -0.95472  -0.94088  -0.93521  -0.91743  -0.90599
 Alpha  occ. eigenvalues --   -0.90358  -0.86757  -0.86721  -0.85658  -0.84213
 Alpha  occ. eigenvalues --   -0.83898  -0.82993  -0.81734  -0.80927  -0.79884
 Alpha  occ. eigenvalues --   -0.79606  -0.78662  -0.78209  -0.76784  -0.76401
 Alpha  occ. eigenvalues --   -0.75426  -0.74851  -0.74445  -0.74050  -0.73497
 Alpha  occ. eigenvalues --   -0.72946  -0.72618  -0.72349  -0.71904  -0.70367
 Alpha  occ. eigenvalues --   -0.69445  -0.69429  -0.69084  -0.67631  -0.67412
 Alpha  occ. eigenvalues --   -0.66987  -0.66694  -0.66200  -0.65740  -0.65414
 Alpha  occ. eigenvalues --   -0.65402  -0.64911  -0.64749  -0.63915  -0.63251
 Alpha  occ. eigenvalues --   -0.63180  -0.62844  -0.62370  -0.61969  -0.61460
 Alpha  occ. eigenvalues --   -0.61413  -0.60203  -0.59951  -0.59778  -0.59754
 Alpha  occ. eigenvalues --   -0.59064  -0.58632  -0.58615  -0.58191  -0.57937
 Alpha  occ. eigenvalues --   -0.57524  -0.57056  -0.56916  -0.56722  -0.56120
 Alpha  occ. eigenvalues --   -0.55916  -0.55575  -0.55407  -0.54873  -0.54472
 Alpha  occ. eigenvalues --   -0.54394  -0.53932  -0.53609  -0.53389  -0.53031
 Alpha  occ. eigenvalues --   -0.52644  -0.52077  -0.51878  -0.51521  -0.51263
 Alpha  occ. eigenvalues --   -0.51058  -0.50628  -0.50042  -0.49962  -0.49497
 Alpha  occ. eigenvalues --   -0.49476  -0.49290  -0.48935  -0.48604  -0.48577
 Alpha  occ. eigenvalues --   -0.48429  -0.48256  -0.48082  -0.47798  -0.47506
 Alpha  occ. eigenvalues --   -0.47375  -0.47330  -0.47265  -0.47032  -0.46493
 Alpha  occ. eigenvalues --   -0.46329  -0.46169  -0.46034  -0.45473  -0.45301
 Alpha  occ. eigenvalues --   -0.45169  -0.44823  -0.44689  -0.44616  -0.44527
 Alpha  occ. eigenvalues --   -0.44300  -0.44213  -0.43668  -0.43614  -0.43414
 Alpha  occ. eigenvalues --   -0.43275  -0.42952  -0.42820  -0.42456  -0.42376
 Alpha  occ. eigenvalues --   -0.42196  -0.42009  -0.41935  -0.41699  -0.41369
 Alpha  occ. eigenvalues --   -0.41101  -0.41045  -0.40758  -0.40684  -0.40481
 Alpha  occ. eigenvalues --   -0.40286  -0.40068  -0.39826  -0.39768  -0.39653
 Alpha  occ. eigenvalues --   -0.39069  -0.38728  -0.38263  -0.38117  -0.37727
 Alpha  occ. eigenvalues --   -0.37626  -0.37538  -0.37258  -0.37123  -0.37035
 Alpha  occ. eigenvalues --   -0.36527  -0.36005  -0.35814  -0.35449  -0.35408
 Alpha  occ. eigenvalues --   -0.35355  -0.35217  -0.34893  -0.34880  -0.34586
 Alpha  occ. eigenvalues --   -0.33846  -0.33621  -0.33186  -0.32918  -0.32757
 Alpha  occ. eigenvalues --   -0.32701  -0.32044  -0.31808  -0.31383  -0.30882
 Alpha  occ. eigenvalues --   -0.30443  -0.30295  -0.30064  -0.29240  -0.28794
 Alpha  occ. eigenvalues --   -0.28330  -0.27203  -0.26966  -0.21797  -0.21306
 Alpha  occ. eigenvalues --   -0.19783
 Alpha virt. eigenvalues --   -0.11864  -0.11457  -0.09942  -0.07366  -0.05966
 Alpha virt. eigenvalues --   -0.05501  -0.05459  -0.05392  -0.04395  -0.04364
 Alpha virt. eigenvalues --   -0.04060  -0.03497  -0.02891  -0.02343  -0.02314

 Mulliken charges:
               1
     1  N   -0.742930
     2  H    0.416438
     3  H    0.428072
     4  H    0.425355
     5  C   -0.143202
     6  H    0.211522
     7  C    0.654193
     8  C   -0.067301
     9  H    0.206272
    10  H    0.209584
    11  O   -0.537362
    12  O   -0.610545
    13  H    0.430677
    14  N   -0.610898
    15  H    0.372111
    16  C   -0.055171
    17  H    0.199453
    18  C    0.652294
    19  C   -0.456563
    20  H    0.188549
    21  H    0.172507
    22  H    0.184403
    23  O   -0.581330
    24  N   -0.600109
    25  H    0.365637
    26  C   -0.100072
    27  H    0.172770
    28  C    0.620487
    29  C    0.158319
    30  H    0.150607
    31  O   -0.554528
    32  C   -0.483393
    33  H    0.182311
    34  H    0.141932
    35  H    0.166937
    36  O   -0.636337
    37  H    0.400508
    38  N   -0.597430
    39  H    0.363632
    40  C   -0.080499
    41  H    0.165894
    42  C    0.662616
    43  C   -0.077108
    44  H    0.219758
    45  O   -0.542522
    46  C   -0.472803
    47  H    0.115602
    48  H    0.137804
    49  H    0.185724
    50  C   -0.449409
    51  H    0.137414
    52  H    0.125501
    53  H    0.161901
    54  N   -0.622597
    55  H    0.340945
    56  C   -0.057476
    57  H    0.200940
    58  C    0.597668
    59  C   -0.057471
    60  H    0.131541
    61  O   -0.585731
    62  C   -0.265843
    63  H    0.136610
    64  H    0.125911
    65  C   -0.470123
    66  H    0.176086
    67  H    0.135618
    68  H    0.133924
    69  C   -0.456978
    70  H    0.125036
    71  H    0.159052
    72  H    0.153989
    73  N   -0.623485
    74  H    0.413348
    75  C   -0.074306
    76  H    0.168051
    77  C    0.628436
    78  C   -0.361873
    79  H    0.161862
    80  H    0.146363
    81  O   -0.548070
    82  C    0.594675
    83  O   -0.636770
    84  O   -0.574750
    85  N   -0.640270
    86  H    0.393520
    87  C   -0.035251
    88  H    0.168184
    89  C    0.609118
    90  C   -0.380025
    91  H    0.218865
    92  H    0.192153
    93  O   -0.555390
    94  C    0.346560
    95  C   -0.020645
    96  H    0.215758
    97  N   -0.625029
    98  H    0.474232
    99  C    0.276687
   100  H    0.262526
   101  N   -0.556620
   102  N   -0.631520
   103  H    0.387097
   104  C   -0.013698
   105  H    0.176215
   106  C    0.661727
   107  C   -0.300977
   108  H    0.166953
   109  H    0.154075
   110  O   -0.611028
   111  C   -0.102524
   112  H    0.150528
   113  C   -0.452081
   114  H    0.153015
   115  H    0.165245
   116  H    0.131157
   117  C   -0.445228
   118  H    0.149063
   119  H    0.157136
   120  H    0.142810
   121  N   -0.584763
   122  H    0.363685
   123  C   -0.095307
   124  H    0.185657
   125  C    0.609383
   126  C   -0.262218
   127  H    0.164281
   128  H    0.154084
   129  O   -0.472058
   130  C   -0.293152
   131  H    0.159715
   132  H    0.176147
   133  C   -0.125988
   134  H    0.154370
   135  H    0.174200
   136  N   -0.585877
   137  H    0.331728
   138  N   -0.696197
   139  H    0.301696
   140  H    0.473507
   141  N   -0.777897
   142  H    0.337831
   143  H    0.336456
   144  C    0.629505
   145  O   -0.603222
   146  H    0.380241
 Sum of Mulliken charges =   1.00000

 Dipole moment (field-independent basis, Debye):
    X=            -14.9027    Y=            -15.8366    Z=              4.5606  Tot=             22.2191
 Quadrupole moment (field-independent basis, Debye-Ang):
   XX=            363.8752   YY=           -417.3863   ZZ=            -78.4511
   XY=             51.5595   XZ=            500.0839   YZ=             30.6761

 Normal termination of Gaussian 16 at Sun Jun 19 11:59:41 2022.
