 Gaussian 16, Revision C.01,
 Gaussian 16:  ES64L-G16RevC.01  3-Jul-2019

 -------------------------------------------------------------------
 # B3LYP/6-31G* guess=read geom=check nosymm integral(ultrafinegrid)
 -------------------------------------------------------------------

 ------------------------------------------------------
 Candidate Structure: Conf:121 Charge calc in gas phase
 ------------------------------------------------------
 Structure from the checkpoint file:  "conf-121.chk"
 Charge =  1 Multiplicity = 1

                          Input orientation:
 ---------------------------------------------------------------------
 Center     Atomic      Atomic             Coordinates (Angstroms)
 Number     Number       Type             X           Y           Z
 ---------------------------------------------------------------------
      1          7           0       -9.230046    2.071093   -5.240521
      2          1           0       -8.661450    2.533481   -5.955429
      3          1           0       -9.657321    1.207242   -5.661221
      4          1           0       -9.922944    2.740234   -4.869624
      5          6           0       -8.413466    1.536872   -4.093049
      6          1           0       -7.486602    2.110170   -4.031020
      7          6           0       -8.195538    0.042224   -4.443587
      8          6           0       -9.248270    1.714637   -2.814106
      9          1           0       -8.596589    1.568821   -1.944328
     10          1           0      -10.049043    0.961820   -2.782441
     11          8           0       -8.941387   -0.447503   -5.302747
     12          8           0       -9.772043    3.033472   -2.887145
     13          1           0      -10.365446    3.196111   -2.136595
     14          7           0       -7.250173   -0.584313   -3.757499
     15          1           0       -6.685090   -0.130321   -3.031450
     16          6           0       -6.931027   -2.009886   -3.862128
     17          1           0       -7.856822   -2.587235   -3.755555
     18          6           0       -6.005602   -2.269001   -2.646716
     19          6           0       -6.255682   -2.356688   -5.198799
     20          1           0       -6.046512   -3.428835   -5.258722
     21          1           0       -5.309182   -1.818017   -5.306171
     22          1           0       -6.917312   -2.096042   -6.028740
     23          8           0       -5.630000   -1.318411   -1.950287
     24          7           0       -5.661993   -3.545538   -2.430767
     25          1           0       -5.900454   -4.282272   -3.089916
     26          6           0       -4.661187   -3.959872   -1.446481
     27          1           0       -4.840091   -3.418621   -0.513485
     28          6           0       -3.250841   -3.673788   -2.003864
     29          6           0       -4.825231   -5.492954   -1.252428
     30          1           0       -3.945290   -5.848825   -0.696034
     31          8           0       -2.829958   -4.330870   -2.967185
     32          6           0       -6.087343   -5.870088   -0.488739
     33          1           0       -6.058249   -5.474529    0.532101
     34          1           0       -6.982428   -5.484042   -0.987878
     35          1           0       -6.169139   -6.959489   -0.438904
     36          8           0       -4.882842   -6.105944   -2.536118
     37          1           0       -4.049653   -5.836867   -2.982658
     38          7           0       -2.559599   -2.701363   -1.390051
     39          1           0       -2.926208   -2.242934   -0.561313
     40          6           0       -1.180761   -2.340510   -1.706205
     41          1           0       -0.739961   -3.181581   -2.250156
     42          6           0       -0.502951   -2.128113   -0.335865
     43          6           0       -1.080828   -1.050314   -2.582285
     44          1           0       -1.330210   -0.202779   -1.927908
     45          8           0       -1.162690   -1.681088    0.606244
     46          6           0        0.343856   -0.851839   -3.124664
     47          1           0        0.626354   -1.677915   -3.790178
     48          1           0        1.100826   -0.781985   -2.339192
     49          1           0        0.398083    0.071934   -3.710507
     50          6           0       -2.091169   -1.072248   -3.739799
     51          1           0       -1.951398   -1.957940   -4.370082
     52          1           0       -3.121706   -1.070276   -3.370535
     53          1           0       -1.953811   -0.183638   -4.366855
     54          7           0        0.802953   -2.452731   -0.261483
     55          1           0        1.332021   -2.668783   -1.103506
     56          6           0        1.658004   -2.086681    0.864486
     57          1           0        1.180733   -1.249075    1.380160
     58          6           0        2.988417   -1.629658    0.222485
     59          6           0        1.805632   -3.274187    1.865257
     60          1           0        0.770491   -3.578175    2.076186
     61          8           0        3.263714   -1.974656   -0.932760
     62          6           0        2.448476   -2.884848    3.213468
     63          1           0        3.487271   -2.563380    3.061783
     64          1           0        2.502698   -3.801588    3.817126
     65          6           0        2.535235   -4.468258    1.232937
     66          1           0        3.583613   -4.230896    1.016554
     67          1           0        2.065158   -4.776002    0.293457
     68          1           0        2.517765   -5.328446    1.912183
     69          6           0        1.691645   -1.818731    4.016818
     70          1           0        2.141571   -1.691156    5.007321
     71          1           0        1.707382   -0.835779    3.532184
     72          1           0        0.640471   -2.098415    4.156299
     73          7           0        3.780911   -0.845743    0.973124
     74          1           0        3.615366   -0.713281    1.966950
     75          6           0        5.105025   -0.403964    0.546405
     76          1           0        5.580751   -1.235404    0.010717
     77          6           0        5.912083   -0.125188    1.844514
     78          6           0        4.992902    0.802917   -0.425739
     79          1           0        4.100049    0.667895   -1.037759
     80          1           0        4.863739    1.732487    0.146266
     81          8           0        5.400977   -0.479637    2.949631
     82          6           0        6.141753    0.995082   -1.430807
     83          8           0        5.915357    1.246186   -2.596540
     84          8           0        7.386763    0.895579   -0.957643
     85          7           0        7.081406    0.451648    1.630799
     86          1           0        7.371417    0.730731    0.050426
     87          6           0        7.885466    0.855899    2.763214
     88          1           0        7.311645    0.772350    3.699465
     89          6           0        8.330121    2.340683    2.680004
     90          6           0        9.175629    0.019272    2.904563
     91          1           0        9.840199    0.543090    3.602977
     92          1           0        9.682194   -0.012088    1.930183
     93          8           0        9.264078    2.755767    3.372317
     94          6           0        8.917929   -1.372676    3.371923
     95          6           0        7.761480   -2.019808    3.723461
     96          1           0        6.734039   -1.647249    3.687898
     97          7           0        9.934881   -2.308258    3.545868
     98          1           0       10.916190   -2.132312    3.366169
     99          6           0        9.439465   -3.472918    3.980133
    100          1           0        9.997983   -4.369056    4.198979
    101          7           0        8.118646   -3.306009    4.090994
    102          7           0        7.604127    3.088123    1.829453
    103          1           0        6.822197    2.640412    1.366724
    104          6           0        7.719290    4.524559    1.663173
    105          1           0        8.389631    4.887515    2.446800
    106          6           0        6.306859    5.117849    1.834039
    107          6           0        8.257521    4.910029    0.262892
    108          1           0        7.509390    4.597998   -0.477910
    109          1           0        8.309249    6.007105    0.212947
    110          8           0        5.306521    4.472946    1.506668
    111          6           0        9.623550    4.312736   -0.122541
    112          1           0        9.528235    3.219215   -0.077605
    113          6           0        9.956618    4.687619   -1.574905
    114          1           0       10.052650    5.775550   -1.690300
    115          1           0       10.905666    4.236316   -1.887820
    116          1           0        9.178049    4.341924   -2.264443
    117          6           0       10.748313    4.743418    0.831276
    118          1           0       10.838056    5.838098    0.863240
    119          1           0       11.713175    4.346524    0.492055
    120          1           0       10.580576    4.379755    1.850160
    121          7           0        6.264936    6.378356    2.311350
    122          1           0        7.101583    6.880368    2.596117
    123          6           0        5.046914    7.163135    2.459949
    124          1           0        4.407483    7.013778    1.585004
    125          6           0        5.478679    8.641791    2.579120
    126          6           0        4.296338    6.710600    3.744121
    127          1           0        4.916934    6.988160    4.606752
    128          1           0        4.271344    5.616209    3.712403
    129          8           0        4.584404    9.501648    2.233754
    130          6           0        2.844078    7.177896    3.954780
    131          1           0        2.236016    6.888412    3.087520
    132          1           0        2.436565    6.608543    4.804289
    133          6           0        2.573654    8.672851    4.193306
    134          1           0        2.824438    9.235518    3.297967
    135          1           0        1.507723    8.813224    4.417451
    136          7           0        3.351436    9.221876    5.316701
    137          1           0        3.381041    8.663915    6.160147
    138          7           0        4.392574   11.017577    4.237725
    139          1           0        4.936186   11.862056    4.363660
    140          1           0        4.524675   10.466290    3.259856
    141          7           0        4.562865   10.734445    6.558657
    142          1           0        5.182623   11.528871    6.612597
    143          1           0        4.004936   10.554179    7.380780
    144          6           0        4.104077   10.339149    5.332315
    145          8           0        6.587449    8.884188    3.076389
    146          1           0        7.472397   -4.024238    4.392402
 ---------------------------------------------------------------------

 SCF Done:  E(RB3LYP) =  -3503.33063418     A.U. after    3 cycles

 Alpha  occ. eigenvalues --  -19.30881 -19.26504 -19.21992 -19.20294 -19.18362
 Alpha  occ. eigenvalues --  -19.16304 -19.15211 -19.14895 -19.12787 -19.12733
 Alpha  occ. eigenvalues --  -19.12305 -19.11492 -19.10720 -19.10555 -14.59819
 Alpha  occ. eigenvalues --  -14.52758 -14.52390 -14.49268 -14.45322 -14.43671
 Alpha  occ. eigenvalues --  -14.43256 -14.42405 -14.40128 -14.39529 -14.38489
 Alpha  occ. eigenvalues --  -14.36792 -14.36351 -14.32059 -10.43618 -10.41004
 Alpha  occ. eigenvalues --  -10.39815 -10.39474 -10.38890 -10.38687 -10.35507
 Alpha  occ. eigenvalues --  -10.34716 -10.33455 -10.33208 -10.31898 -10.31411
 Alpha  occ. eigenvalues --  -10.31016 -10.30868 -10.29965 -10.29758 -10.29383
 Alpha  occ. eigenvalues --  -10.28775 -10.28666 -10.28426 -10.28012 -10.26924
 Alpha  occ. eigenvalues --  -10.26408 -10.25294 -10.25230 -10.25098 -10.24645
 Alpha  occ. eigenvalues --  -10.24118 -10.24055 -10.23497 -10.23334 -10.22796
 Alpha  occ. eigenvalues --  -10.22428 -10.22208 -10.21485 -10.21368 -10.21351
 Alpha  occ. eigenvalues --  -10.21058 -10.20062 -10.19356 -10.19284 -10.17600
 Alpha  occ. eigenvalues --  -10.17440  -1.19481  -1.17889  -1.16663  -1.13998
 Alpha  occ. eigenvalues --   -1.13417  -1.10492  -1.08323  -1.07679  -1.07181
 Alpha  occ. eigenvalues --   -1.06697  -1.06537  -1.05871  -1.04805  -1.04483
 Alpha  occ. eigenvalues --   -1.03683  -1.03639  -1.03122  -1.01573  -0.98695
 Alpha  occ. eigenvalues --   -0.98442  -0.96978  -0.96722  -0.96139  -0.94911
 Alpha  occ. eigenvalues --   -0.94089  -0.93850  -0.92937  -0.92732  -0.91008
 Alpha  occ. eigenvalues --   -0.88622  -0.88130  -0.85911  -0.84734  -0.83887
 Alpha  occ. eigenvalues --   -0.82661  -0.81561  -0.81114  -0.80488  -0.79338
 Alpha  occ. eigenvalues --   -0.79043  -0.78670  -0.77663  -0.77472  -0.76794
 Alpha  occ. eigenvalues --   -0.75977  -0.75349  -0.74528  -0.73723  -0.73618
 Alpha  occ. eigenvalues --   -0.72980  -0.72812  -0.71030  -0.70733  -0.69856
 Alpha  occ. eigenvalues --   -0.68713  -0.68463  -0.68386  -0.68298  -0.67535
 Alpha  occ. eigenvalues --   -0.67136  -0.66476  -0.66298  -0.65274  -0.64959
 Alpha  occ. eigenvalues --   -0.64636  -0.64468  -0.63864  -0.63572  -0.63190
 Alpha  occ. eigenvalues --   -0.62804  -0.62574  -0.61466  -0.60852  -0.60630
 Alpha  occ. eigenvalues --   -0.60049  -0.59818  -0.59583  -0.59139  -0.58827
 Alpha  occ. eigenvalues --   -0.58358  -0.58248  -0.57976  -0.57917  -0.57631
 Alpha  occ. eigenvalues --   -0.57349  -0.57178  -0.56814  -0.56633  -0.55660
 Alpha  occ. eigenvalues --   -0.55337  -0.54728  -0.54268  -0.54126  -0.53555
 Alpha  occ. eigenvalues --   -0.53459  -0.53252  -0.52794  -0.52347  -0.51987
 Alpha  occ. eigenvalues --   -0.51441  -0.51227  -0.51122  -0.50774  -0.50681
 Alpha  occ. eigenvalues --   -0.50380  -0.50248  -0.50015  -0.49818  -0.49428
 Alpha  occ. eigenvalues --   -0.48728  -0.48587  -0.48518  -0.48284  -0.47912
 Alpha  occ. eigenvalues --   -0.47828  -0.47592  -0.47545  -0.47462  -0.46653
 Alpha  occ. eigenvalues --   -0.46511  -0.46404  -0.46310  -0.45829  -0.45751
 Alpha  occ. eigenvalues --   -0.45416  -0.45360  -0.45162  -0.45044  -0.44782
 Alpha  occ. eigenvalues --   -0.44746  -0.44697  -0.44225  -0.44083  -0.43952
 Alpha  occ. eigenvalues --   -0.43750  -0.43602  -0.43331  -0.43328  -0.43239
 Alpha  occ. eigenvalues --   -0.42992  -0.42888  -0.42711  -0.42367  -0.42259
 Alpha  occ. eigenvalues --   -0.41965  -0.41254  -0.41063  -0.40996  -0.40695
 Alpha  occ. eigenvalues --   -0.40461  -0.40397  -0.40168  -0.39886  -0.39811
 Alpha  occ. eigenvalues --   -0.39491  -0.39256  -0.39150  -0.39045  -0.38872
 Alpha  occ. eigenvalues --   -0.38547  -0.38289  -0.38136  -0.37989  -0.37866
 Alpha  occ. eigenvalues --   -0.37744  -0.36999  -0.36941  -0.36879  -0.36337
 Alpha  occ. eigenvalues --   -0.36336  -0.36212  -0.35844  -0.35815  -0.35427
 Alpha  occ. eigenvalues --   -0.35139  -0.34026  -0.34015  -0.33724  -0.33082
 Alpha  occ. eigenvalues --   -0.32764  -0.32717  -0.32208  -0.31292  -0.31226
 Alpha  occ. eigenvalues --   -0.30318  -0.29996  -0.29122  -0.28746  -0.28601
 Alpha  occ. eigenvalues --   -0.28282  -0.27905  -0.27654  -0.27142  -0.26571
 Alpha  occ. eigenvalues --   -0.26485  -0.26027  -0.24882  -0.24454  -0.24344
 Alpha  occ. eigenvalues --   -0.24172
 Alpha virt. eigenvalues --   -0.12410  -0.11707  -0.10421  -0.07606  -0.06572
 Alpha virt. eigenvalues --   -0.05176  -0.04728  -0.04154  -0.03859  -0.03509
 Alpha virt. eigenvalues --   -0.02995  -0.02380  -0.01576  -0.00922  -0.00822

 Mulliken charges:
               1
     1  N   -0.744343
     2  H    0.419743
     3  H    0.426831
     4  H    0.429166
     5  C   -0.128685
     6  H    0.228647
     7  C    0.649704
     8  C   -0.050102
     9  H    0.201338
    10  H    0.182853
    11  O   -0.536083
    12  O   -0.630092
    13  H    0.440272
    14  N   -0.613193
    15  H    0.375907
    16  C   -0.054862
    17  H    0.197092
    18  C    0.644463
    19  C   -0.462384
    20  H    0.181756
    21  H    0.181799
    22  H    0.189541
    23  O   -0.550161
    24  N   -0.602249
    25  H    0.357441
    26  C   -0.084120
    27  H    0.171100
    28  C    0.647279
    29  C    0.109364
    30  H    0.149264
    31  O   -0.563681
    32  C   -0.449397
    33  H    0.151568
    34  H    0.146038
    35  H    0.179769
    36  O   -0.648848
    37  H    0.425913
    38  N   -0.596096
    39  H    0.358382
    40  C   -0.054674
    41  H    0.177015
    42  C    0.615490
    43  C   -0.074025
    44  H    0.140537
    45  O   -0.553519
    46  C   -0.470670
    47  H    0.151177
    48  H    0.176057
    49  H    0.156075
    50  C   -0.465006
    51  H    0.163678
    52  H    0.139755
    53  H    0.141153
    54  N   -0.608439
    55  H    0.362565
    56  C   -0.075624
    57  H    0.181623
    58  C    0.624986
    59  C   -0.062301
    60  H    0.142611
    61  O   -0.556598
    62  C   -0.280957
    63  H    0.148400
    64  H    0.126743
    65  C   -0.461262
    66  H    0.151656
    67  H    0.152860
    68  H    0.138615
    69  C   -0.451965
    70  H    0.148182
    71  H    0.151302
    72  H    0.150050
    73  N   -0.620931
    74  H    0.364849
    75  C   -0.041304
    76  H    0.175791
    77  C    0.571290
    78  C   -0.391110
    79  H    0.180996
    80  H    0.188292
    81  O   -0.632301
    82  C    0.581351
    83  O   -0.480584
    84  O   -0.619363
    85  N   -0.620036
    86  H    0.439953
    87  C   -0.066553
    88  H    0.166877
    89  C    0.619142
    90  C   -0.364710
    91  H    0.206288
    92  H    0.185249
    93  O   -0.559331
    94  C    0.324250
    95  C   -0.000535
    96  H    0.286345
    97  N   -0.597157
    98  H    0.385419
    99  C    0.303870
   100  H    0.239720
   101  N   -0.559850
   102  N   -0.585964
   103  H    0.363191
   104  C   -0.078027
   105  H    0.171573
   106  C    0.629255
   107  C   -0.259232
   108  H    0.154945
   109  H    0.137122
   110  O   -0.562553
   111  C   -0.065204
   112  H    0.138919
   113  C   -0.444794
   114  H    0.133762
   115  H    0.135464
   116  H    0.156981
   117  C   -0.468603
   118  H    0.130755
   119  H    0.131137
   120  H    0.175133
   121  N   -0.614720
   122  H    0.348570
   123  C   -0.011331
   124  H    0.160478
   125  C    0.580666
   126  C   -0.266384
   127  H    0.130356
   128  H    0.171310
   129  O   -0.640201
   130  C   -0.288703
   131  H    0.160801
   132  H    0.126579
   133  C   -0.152419
   134  H    0.229694
   135  H    0.147113
   136  N   -0.602433
   137  H    0.337594
   138  N   -0.761478
   139  H    0.332853
   140  H    0.446985
   141  N   -0.766607
   142  H    0.358113
   143  H    0.350849
   144  C    0.775633
   145  O   -0.557460
   146  H    0.387938
 Sum of Mulliken charges =   1.00000

 Dipole moment (field-independent basis, Debye):
    X=            -26.1268    Y=              1.7943    Z=              5.9678  Tot=             26.8598
 Quadrupole moment (field-independent basis, Debye-Ang):
   XX=             26.4859   YY=           -255.9037   ZZ=           -242.1067
   XY=           -171.6745   XZ=            279.3314   YZ=             23.0368

 Normal termination of Gaussian 16 at Sun Jun 19 12:00:44 2022.
