 Gaussian 16, Revision C.01,
 Gaussian 16:  ES64L-G16RevC.01  3-Jul-2019

 -------------------------------------------------------------------
 # B3LYP/6-31G* guess=read geom=check nosymm integral(ultrafinegrid)
 -------------------------------------------------------------------

 ------------------------------------------------------
 Candidate Structure: Conf:608 Charge calc in gas phase
 ------------------------------------------------------
 Structure from the checkpoint file:  "conf-608.chk"
 Charge =  1 Multiplicity = 1

                          Input orientation:
 ---------------------------------------------------------------------
 Center     Atomic      Atomic             Coordinates (Angstroms)
 Number     Number       Type             X           Y           Z
 ---------------------------------------------------------------------
      1          7           0       -3.292691    1.306577   -5.223137
      2          1           0       -2.149850    1.657716   -4.160078
      3          1           0       -2.961752    0.977808   -6.134398
      4          1           0       -3.785975    2.190095   -5.364773
      5          6           0       -4.270344    0.320645   -4.725758
      6          1           0       -4.242462    0.336519   -3.631484
      7          6           0       -3.880863   -1.063593   -5.271447
      8          6           0       -5.692532    0.653901   -5.204231
      9          1           0       -6.412253   -0.026670   -4.725762
     10          1           0       -5.748861    0.510536   -6.293645
     11          8           0       -3.443569   -1.175722   -6.417233
     12          8           0       -5.936818    2.009950   -4.845218
     13          1           0       -6.767942    2.291053   -5.256320
     14          7           0       -4.095763   -2.087125   -4.417945
     15          1           0       -4.517332   -1.909157   -3.509845
     16          6           0       -3.990291   -3.508289   -4.739416
     17          1           0       -4.735618   -3.760156   -5.509708
     18          6           0       -4.411891   -4.222848   -3.435728
     19          6           0       -2.603392   -3.906489   -5.263945
     20          1           0       -2.592466   -4.952883   -5.589286
     21          1           0       -1.833018   -3.763286   -4.499823
     22          1           0       -2.360260   -3.285219   -6.127078
     23          8           0       -5.073978   -3.613850   -2.586767
     24          7           0       -4.023344   -5.501038   -3.251396
     25          1           0       -3.388275   -5.966962   -3.888442
     26          6           0       -4.305733   -6.222746   -2.009171
     27          1           0       -5.271771   -5.867244   -1.636369
     28          6           0       -3.212010   -5.909226   -0.948244
     29          6           0       -4.348029   -7.735964   -2.295129
     30          1           0       -4.485961   -8.242252   -1.330591
     31          8           0       -2.500916   -6.799423   -0.473115
     32          6           0       -5.468939   -8.140123   -3.242910
     33          1           0       -6.446816   -7.877774   -2.824707
     34          1           0       -5.365607   -7.647250   -4.214833
     35          1           0       -5.436547   -9.221165   -3.404812
     36          8           0       -3.106297   -8.127950   -2.879826
     37          1           0       -2.459409   -8.037742   -2.154436
     38          7           0       -3.094964   -4.598931   -0.636153
     39          1           0       -3.796801   -3.940608   -0.979241
     40          6           0       -2.135462   -4.049071    0.306748
     41          1           0       -2.017261   -4.747800    1.144462
     42          6           0       -2.739184   -2.717662    0.793555
     43          6           0       -0.718879   -3.766284   -0.301956
     44          1           0       -0.148819   -3.265520    0.495613
     45          8           0       -3.666252   -2.183142    0.196310
     46          6           0        0.043321   -5.049308   -0.661471
     47          1           0       -0.419809   -5.568883   -1.504490
     48          1           0        0.074958   -5.753368    0.175472
     49          1           0        1.072675   -4.799381   -0.945417
     50          6           0       -0.784810   -2.809543   -1.501362
     51          1           0       -1.346169   -3.265300   -2.323586
     52          1           0       -1.271293   -1.857517   -1.263806
     53          1           0        0.224784   -2.594692   -1.869156
     54          7           0       -2.137821   -2.145379    1.883272
     55          1           0       -1.296431   -2.573458    2.246319
     56          6           0       -2.314664   -0.716895    2.155574
     57          1           0       -3.190298   -0.429424    1.572296
     58          6           0       -1.079814    0.008695    1.601760
     59          6           0       -2.605447   -0.409338    3.647656
     60          1           0       -3.563025   -0.910706    3.848705
     61          8           0        0.050351   -0.196355    2.085258
     62          6           0       -2.803728    1.104078    3.885905
     63          1           0       -1.883615    1.644373    3.622142
     64          1           0       -2.941207    1.250505    4.965100
     65          6           0       -1.571166   -0.988033    4.625986
     66          1           0       -0.593718   -0.511685    4.510463
     67          1           0       -1.445254   -2.069249    4.495102
     68          1           0       -1.909204   -0.827983    5.655731
     69          6           0       -3.993842    1.730328    3.148238
     70          1           0       -4.132530    2.770856    3.460050
     71          1           0       -3.853975    1.739327    2.061806
     72          1           0       -4.924512    1.191103    3.362556
     73          7           0       -1.289298    0.820984    0.553634
     74          1           0       -2.169696    0.782740    0.037167
     75          6           0       -0.202324    1.502949   -0.138876
     76          1           0        0.476523    0.755612   -0.572529
     77          6           0        0.574202    2.396302    0.851959
     78          6           0       -0.757464    2.414034   -1.253408
     79          1           0       -1.334252    3.218126   -0.778866
     80          1           0        0.075097    2.875480   -1.789409
     81          8           0       -0.003424    3.137157    1.640089
     82          6           0       -1.679914    1.716034   -2.249317
     83          8           0       -2.580356    0.962832   -1.877577
     84          8           0       -1.431126    2.043361   -3.493921
     85          7           0        1.925922    2.319728    0.747764
     86          1           0        2.386134    1.739710    0.051527
     87          6           0        2.831346    3.135418    1.532456
     88          1           0        2.600357    4.199103    1.384659
     89          6           0        4.250323    2.833962    0.985582
     90          6           0        2.684590    2.839417    3.056523
     91          1           0        1.626995    2.964383    3.303053
     92          1           0        3.237254    3.587074    3.634703
     93          8           0        4.399028    2.053021    0.047014
     94          6           0        3.196472    1.487227    3.424136
     95          6           0        4.416484    1.140006    3.934074
     96          1           0        5.254899    1.748286    4.236794
     97          7           0        2.550927    0.293130    3.132486
     98          1           0        1.609675    0.193862    2.711593
     99          6           0        3.356110   -0.730389    3.442026
    100          1           0        3.123134   -1.774639    3.307204
    101          7           0        4.490376   -0.232605    3.936488
    102          7           0        5.278637    3.475229    1.591926
    103          1           0        5.127108    3.981588    2.456111
    104          6           0        6.678669    3.167363    1.302349
    105          1           0        6.666489    2.363059    0.563566
    106          6           0        7.326011    2.697834    2.623277
    107          6           0        7.386354    4.419459    0.726407
    108          1           0        6.751968    4.791353   -0.088596
    109          1           0        7.383838    5.194304    1.505149
    110          8           0        6.922881    3.146291    3.700158
    111          6           0        8.822405    4.230252    0.197552
    112          1           0        9.441482    3.827711    1.011457
    113          6           0        8.887415    3.252036   -0.986453
    114          1           0        8.265114    3.602950   -1.819091
    115          1           0        9.914320    3.158245   -1.356806
    116          1           0        8.542373    2.243402   -0.726612
    117          6           0        9.406958    5.594339   -0.201821
    118          1           0        8.825882    6.049091   -1.013903
    119          1           0       10.440271    5.491397   -0.551518
    120          1           0        9.405566    6.293861    0.642167
    121          7           0        8.375781    1.845175    2.505140
    122          1           0        8.472431    1.383702    1.610516
    123          6           0        9.031886    1.186092    3.639614
    124          1           0        9.872702    0.642688    3.188873
    125          6           0        8.133500    0.070018    4.294080
    126          6           0        9.588650    2.203778    4.679530
    127          1           0        9.155951    1.972471    5.656366
    128          1           0        9.221075    3.198904    4.426746
    129          8           0        8.609205   -0.478691    5.336678
    130          6           0       11.123091    2.294487    4.815244
    131          1           0       11.568178    2.685862    3.891186
    132          1           0       11.335640    3.035093    5.596703
    133          6           0       11.857265    0.977823    5.163924
    134          1           0       12.043667    0.385356    4.262819
    135          1           0       12.842067    1.190272    5.592737
    136          7           0       11.071562    0.119610    6.051342
    137          1           0       10.157407   -0.210333    5.632086
    138          7           0       12.087350    0.474289    8.141223
    139          1           0       11.956088    0.697853    9.116382
    140          1           0       12.970427    0.721330    7.722200
    141          7           0        9.902208   -0.302451    7.975192
    142          1           0        9.938526   -0.740317    8.884800
    143          1           0        9.118137   -0.532047    7.363339
    144          6           0       11.039042    0.108794    7.373828
    145          8           0        7.067810   -0.216583    3.717593
    146          1           0        5.415737   -0.682733    4.082570
 ---------------------------------------------------------------------

 SCF Done:  E(RB3LYP) =  -3503.44653455     A.U. after    1 cycles

 Alpha  occ. eigenvalues --  -19.21942 -19.20757 -19.20527 -19.20479 -19.20110
 Alpha  occ. eigenvalues --  -19.18925 -19.18898 -19.18446 -19.18426 -19.18272
 Alpha  occ. eigenvalues --  -19.18156 -19.17707 -19.17416 -19.16936 -14.49854
 Alpha  occ. eigenvalues --  -14.49588 -14.49180 -14.47519 -14.46323 -14.44533
 Alpha  occ. eigenvalues --  -14.44495 -14.43643 -14.43596 -14.42951 -14.42656
 Alpha  occ. eigenvalues --  -14.41210 -14.40805 -14.39494 -10.44380 -10.37718
 Alpha  occ. eigenvalues --  -10.37705 -10.37328 -10.37076 -10.36870 -10.36311
 Alpha  occ. eigenvalues --  -10.35936 -10.35438 -10.35411 -10.34323 -10.34068
 Alpha  occ. eigenvalues --  -10.33205 -10.32963 -10.32652 -10.31603 -10.31413
 Alpha  occ. eigenvalues --  -10.31248 -10.31215 -10.29854 -10.29636 -10.29483
 Alpha  occ. eigenvalues --  -10.29235 -10.29232 -10.28602 -10.28569 -10.28228
 Alpha  occ. eigenvalues --  -10.27757 -10.26905 -10.26843 -10.26131 -10.26099
 Alpha  occ. eigenvalues --  -10.26010 -10.25507 -10.24335 -10.23754 -10.23688
 Alpha  occ. eigenvalues --  -10.23585 -10.23425 -10.23149 -10.22645 -10.22374
 Alpha  occ. eigenvalues --  -10.21979  -1.14906  -1.14022  -1.12946  -1.12728
 Alpha  occ. eigenvalues --   -1.12024  -1.11796  -1.10879  -1.10784  -1.10627
 Alpha  occ. eigenvalues --   -1.10361  -1.09036  -1.08712  -1.07865  -1.05919
 Alpha  occ. eigenvalues --   -1.05415  -1.03120  -1.01917  -1.01375  -1.01029
 Alpha  occ. eigenvalues --   -1.00935  -1.00413  -1.00295  -1.00077  -0.99243
 Alpha  occ. eigenvalues --   -0.98923  -0.97769  -0.97443  -0.95520  -0.90071
 Alpha  occ. eigenvalues --   -0.88701  -0.88023  -0.87610  -0.86204  -0.85846
 Alpha  occ. eigenvalues --   -0.84377  -0.84170  -0.83281  -0.81569  -0.81260
 Alpha  occ. eigenvalues --   -0.79900  -0.78811  -0.77970  -0.77623  -0.77430
 Alpha  occ. eigenvalues --   -0.76830  -0.76102  -0.75053  -0.74917  -0.74726
 Alpha  occ. eigenvalues --   -0.73902  -0.73694  -0.72276  -0.72014  -0.70878
 Alpha  occ. eigenvalues --   -0.70070  -0.69831  -0.68709  -0.68477  -0.68140
 Alpha  occ. eigenvalues --   -0.67308  -0.66973  -0.66419  -0.66149  -0.65436
 Alpha  occ. eigenvalues --   -0.65344  -0.65106  -0.64935  -0.64182  -0.63768
 Alpha  occ. eigenvalues --   -0.63714  -0.62772  -0.62555  -0.62495  -0.62361
 Alpha  occ. eigenvalues --   -0.61716  -0.61597  -0.61214  -0.60889  -0.60419
 Alpha  occ. eigenvalues --   -0.60322  -0.58831  -0.58412  -0.58043  -0.57794
 Alpha  occ. eigenvalues --   -0.57280  -0.56533  -0.56104  -0.55965  -0.55753
 Alpha  occ. eigenvalues --   -0.55536  -0.55494  -0.55100  -0.54908  -0.54762
 Alpha  occ. eigenvalues --   -0.54408  -0.54184  -0.54043  -0.53883  -0.53585
 Alpha  occ. eigenvalues --   -0.53319  -0.53163  -0.52889  -0.52709  -0.52430
 Alpha  occ. eigenvalues --   -0.52139  -0.51749  -0.51615  -0.51410  -0.51118
 Alpha  occ. eigenvalues --   -0.51102  -0.50838  -0.50624  -0.50466  -0.50039
 Alpha  occ. eigenvalues --   -0.49954  -0.49841  -0.49585  -0.49284  -0.49082
 Alpha  occ. eigenvalues --   -0.48892  -0.48685  -0.48384  -0.48330  -0.48214
 Alpha  occ. eigenvalues --   -0.48042  -0.47728  -0.47405  -0.47027  -0.46743
 Alpha  occ. eigenvalues --   -0.46655  -0.46600  -0.46376  -0.46297  -0.46152
 Alpha  occ. eigenvalues --   -0.46088  -0.45873  -0.45607  -0.45234  -0.44920
 Alpha  occ. eigenvalues --   -0.44675  -0.44594  -0.44503  -0.44473  -0.44238
 Alpha  occ. eigenvalues --   -0.43977  -0.43710  -0.43676  -0.43633  -0.43351
 Alpha  occ. eigenvalues --   -0.43139  -0.42887  -0.42860  -0.42731  -0.42534
 Alpha  occ. eigenvalues --   -0.42332  -0.42256  -0.42132  -0.41977  -0.41619
 Alpha  occ. eigenvalues --   -0.41319  -0.41150  -0.41096  -0.40362  -0.40116
 Alpha  occ. eigenvalues --   -0.39766  -0.39712  -0.39621  -0.39523  -0.39510
 Alpha  occ. eigenvalues --   -0.39058  -0.38796  -0.38282  -0.38024  -0.37647
 Alpha  occ. eigenvalues --   -0.37045  -0.35946  -0.35866  -0.35332  -0.35024
 Alpha  occ. eigenvalues --   -0.34682  -0.34362  -0.34154  -0.34049  -0.33813
 Alpha  occ. eigenvalues --   -0.33385  -0.33126  -0.33001  -0.32764  -0.32675
 Alpha  occ. eigenvalues --   -0.32568  -0.32462  -0.31889  -0.31797  -0.31721
 Alpha  occ. eigenvalues --   -0.31467  -0.31377  -0.30773  -0.30635  -0.30599
 Alpha  occ. eigenvalues --   -0.29439
 Alpha virt. eigenvalues --   -0.09968  -0.09111  -0.06974  -0.06859  -0.06492
 Alpha virt. eigenvalues --   -0.05774  -0.05548  -0.05381  -0.05330  -0.04065
 Alpha virt. eigenvalues --   -0.03787  -0.03656  -0.03547  -0.02509  -0.01595

 Mulliken charges:
               1
     1  N   -0.807989
     2  H    0.476879
     3  H    0.348002
     4  H    0.350724
     5  C   -0.063330
     6  H    0.193390
     7  C    0.613709
     8  C   -0.047054
     9  H    0.145981
    10  H    0.147324
    11  O   -0.537773
    12  O   -0.623608
    13  H    0.408443
    14  N   -0.628733
    15  H    0.373341
    16  C   -0.011454
    17  H    0.188473
    18  C    0.612176
    19  C   -0.491178
    20  H    0.150516
    21  H    0.166173
    22  H    0.213892
    23  O   -0.544329
    24  N   -0.608588
    25  H    0.354187
    26  C   -0.080980
    27  H    0.192703
    28  C    0.627081
    29  C    0.114266
    30  H    0.148616
    31  O   -0.549783
    32  C   -0.448508
    33  H    0.149436
    34  H    0.149366
    35  H    0.171414
    36  O   -0.651067
    37  H    0.416127
    38  N   -0.644229
    39  H    0.406109
    40  C   -0.036982
    41  H    0.171260
    42  C    0.612330
    43  C   -0.082748
    44  H    0.111795
    45  O   -0.511614
    46  C   -0.435149
    47  H    0.158550
    48  H    0.157613
    49  H    0.137031
    50  C   -0.479589
    51  H    0.163879
    52  H    0.165107
    53  H    0.145463
    54  N   -0.612314
    55  H    0.336311
    56  C   -0.076101
    57  H    0.199780
    58  C    0.656845
    59  C   -0.076057
    60  H    0.147404
    61  O   -0.604241
    62  C   -0.274780
    63  H    0.155344
    64  H    0.141578
    65  C   -0.462435
    66  H    0.147536
    67  H    0.134589
    68  H    0.154890
    69  C   -0.453234
    70  H    0.157067
    71  H    0.146414
    72  H    0.151671
    73  N   -0.604329
    74  H    0.394811
    75  C   -0.033993
    76  H    0.161156
    77  C    0.630775
    78  C   -0.393067
    79  H    0.209967
    80  H    0.186019
    81  O   -0.527658
    82  C    0.603178
    83  O   -0.507774
    84  O   -0.595707
    85  N   -0.637113
    86  H    0.363780
    87  C   -0.031672
    88  H    0.196036
    89  C    0.613908
    90  C   -0.385614
    91  H    0.228263
    92  H    0.173429
    93  O   -0.527015
    94  C    0.297839
    95  C   -0.014193
    96  H    0.240067
    97  N   -0.618232
    98  H    0.443256
    99  C    0.286586
   100  H    0.224615
   101  N   -0.531097
   102  N   -0.604220
   103  H    0.345014
   104  C   -0.087855
   105  H    0.188926
   106  C    0.640733
   107  C   -0.250720
   108  H    0.157882
   109  H    0.145113
   110  O   -0.558589
   111  C   -0.086363
   112  H    0.126836
   113  C   -0.451715
   114  H    0.158714
   115  H    0.155202
   116  H    0.128302
   117  C   -0.445126
   118  H    0.151344
   119  H    0.150700
   120  H    0.146969
   121  N   -0.588291
   122  H    0.343777
   123  C   -0.065324
   124  H    0.151738
   125  C    0.622661
   126  C   -0.283048
   127  H    0.158687
   128  H    0.188000
   129  O   -0.612698
   130  C   -0.282022
   131  H    0.160748
   132  H    0.152553
   133  C   -0.174268
   134  H    0.185644
   135  H    0.155321
   136  N   -0.605452
   137  H    0.418217
   138  N   -0.759252
   139  H    0.373462
   140  H    0.375741
   141  N   -0.776703
   142  H    0.360311
   143  H    0.410662
   144  C    0.776338
   145  O   -0.576002
   146  H    0.404898
 Sum of Mulliken charges =   1.00000

 Dipole moment (field-independent basis, Debye):
    X=             31.0540    Y=              3.6054    Z=             19.1079  Tot=             36.6396
 Quadrupole moment (field-independent basis, Debye-Ang):
   XX=             11.9472   YY=           -398.3569   ZZ=           -228.6332
   XY=             46.7565   XZ=            255.6220   YZ=              3.8078

 Normal termination of Gaussian 16 at Sun Jun 19 11:59:47 2022.
