 Gaussian 16, Revision C.01,
 Gaussian 16:  ES64L-G16RevC.01  3-Jul-2019

 -------------------------------------------------------------------
 # B3LYP/6-31G* guess=read geom=check nosymm integral(ultrafinegrid)
 -------------------------------------------------------------------

 ------------------------------------------------------
 Candidate Structure: Conf:205 Charge calc in gas phase
 ------------------------------------------------------
 Structure from the checkpoint file:  "conf-205.chk"
 Charge =  1 Multiplicity = 1

                          Input orientation:
 ---------------------------------------------------------------------
 Center     Atomic      Atomic             Coordinates (Angstroms)
 Number     Number       Type             X           Y           Z
 ---------------------------------------------------------------------
      1          7           0      -10.487527   -4.145851   -9.381862
      2          1           0       -9.886630   -5.006678   -9.216293
      3          1           0      -11.347294   -4.237658   -8.817162
      4          1           0      -10.715298   -4.017030  -10.369637
      5          6           0       -9.651359   -3.049698   -8.772811
      6          1           0       -9.184887   -2.472713   -9.575726
      7          6           0       -8.554897   -3.846901   -7.996634
      8          6           0      -10.559530   -2.159746   -7.915108
      9          1           0      -11.149301   -1.491432   -8.559131
     10          1           0       -9.945575   -1.536910   -7.253257
     11          8           0       -8.508844   -5.071544   -8.181349
     12          8           0      -11.384966   -3.061807   -7.196441
     13          1           0      -11.989245   -2.575464   -6.613932
     14          7           0       -7.740179   -3.140533   -7.228325
     15          1           0       -7.840294   -2.134804   -7.067052
     16          6           0       -6.692045   -3.708053   -6.377372
     17          1           0       -7.104447   -4.577489   -5.853594
     18          6           0       -6.387612   -2.582995   -5.361353
     19          6           0       -5.450812   -4.126221   -7.180751
     20          1           0       -4.690039   -4.547829   -6.517047
     21          1           0       -5.017346   -3.264965   -7.698814
     22          1           0       -5.721881   -4.888571   -7.915903
     23          8           0       -6.833115   -1.441031   -5.565268
     24          7           0       -5.622274   -2.928944   -4.326569
     25          1           0       -5.274130   -3.877462   -4.195035
     26          6           0       -5.174146   -2.011168   -3.287379
     27          1           0       -4.929131   -1.050398   -3.755310
     28          6           0       -3.912990   -2.680289   -2.697568
     29          6           0       -6.282930   -1.781215   -2.205473
     30          1           0       -6.348380   -2.689177   -1.594266
     31          8           0       -3.789782   -3.905092   -2.776602
     32          6           0       -5.985054   -0.574150   -1.313597
     33          1           0       -5.067066   -0.688486   -0.728578
     34          1           0       -5.897947    0.340341   -1.915319
     35          1           0       -6.816907   -0.436831   -0.616997
     36          8           0       -7.559422   -1.662905   -2.817327
     37          1           0       -7.482295   -1.028360   -3.551141
     38          7           0       -3.012558   -1.857465   -2.130142
     39          1           0       -3.223789   -0.873693   -1.989453
     40          6           0       -1.863582   -2.318669   -1.351796
     41          1           0       -2.017386   -3.380819   -1.136857
     42          6           0       -1.901442   -1.473477   -0.060239
     43          6           0       -0.523252   -2.140141   -2.128214
     44          1           0       -0.364908   -1.058049   -2.242340
     45          8           0       -2.348903   -0.323465   -0.098047
     46          6           0        0.666483   -2.730229   -1.354643
     47          1           0        0.537780   -3.809367   -1.198152
     48          1           0        0.817396   -2.265278   -0.376972
     49          1           0        1.589452   -2.593387   -1.927613
     50          6           0       -0.607750   -2.768070   -3.527427
     51          1           0       -0.817124   -3.842325   -3.466144
     52          1           0       -1.390893   -2.304950   -4.135021
     53          1           0        0.344685   -2.637756   -4.052676
     54          7           0       -1.449633   -2.070718    1.062790
     55          1           0       -0.975274   -2.967367    1.008471
     56          6           0       -1.213110   -1.362788    2.321466
     57          1           0       -1.323586   -0.293090    2.118289
     58          6           0        0.237840   -1.718117    2.706117
     59          6           0       -2.223021   -1.790307    3.427504
     60          1           0       -2.078007   -2.870204    3.580045
     61          8           0        0.660287   -2.858070    2.496138
     62          6           0       -3.674950   -1.558586    2.961400
     63          1           0       -3.800148   -2.006602    1.969401
     64          1           0       -3.843441   -0.479946    2.834308
     65          6           0       -1.927001   -1.070715    4.752926
     66          1           0       -2.034271    0.016886    4.642708
     67          1           0       -0.915138   -1.273625    5.115088
     68          1           0       -2.622980   -1.392259    5.533039
     69          6           0       -4.738999   -2.144272    3.897828
     70          1           0       -5.739592   -2.019892    3.468586
     71          1           0       -4.578582   -3.217716    4.058110
     72          1           0       -4.744669   -1.658497    4.879271
     73          7           0        0.980457   -0.734152    3.250717
     74          1           0        0.604565    0.194967    3.408317
     75          6           0        2.367480   -0.914275    3.662044
     76          1           0        2.476090   -1.886169    4.150485
     77          6           0        2.675897    0.222446    4.646528
     78          6           0        3.327280   -0.869880    2.445628
     79          1           0        2.973943   -1.625417    1.734371
     80          1           0        3.253044    0.100632    1.943515
     81          8           0        2.004776    1.255769    4.670588
     82          6           0        4.815756   -1.179169    2.725739
     83          8           0        5.619076   -0.844153    1.824595
     84          8           0        5.102152   -1.764103    3.820532
     85          7           0        3.760908   -0.005381    5.441741
     86          1           0        4.351830   -0.794196    5.117921
     87          6           0        4.447939    1.112454    6.072997
     88          1           0        3.809631    1.992554    5.956421
     89          6           0        5.801167    1.276971    5.358179
     90          6           0        4.706007    0.838257    7.570206
     91          1           0        5.306898   -0.074963    7.642846
     92          1           0        3.748040    0.653631    8.068393
     93          8           0        6.733783    0.528240    5.648920
     94          6           0        5.436250    1.958942    8.254032
     95          6           0        6.516146    2.723156    7.880893
     96          1           0        7.132441    2.760732    6.976551
     97          7           0        5.080021    2.411593    9.521627
     98          1           0        4.315551    2.042437   10.074014
     99          6           0        5.891429    3.399823    9.918076
    100          1           0        5.847478    3.930850   10.855681
    101          7           0        6.760859    3.595068    8.924829
    102          7           0        5.872904    2.255497    4.433676
    103          1           0        5.043472    2.797889    4.234251
    104          6           0        7.054713    2.467565    3.600474
    105          1           0        7.179354    1.590215    2.956123
    106          6           0        8.316029    2.617345    4.489111
    107          6           0        6.874782    3.735161    2.745264
    108          1           0        6.769858    4.589585    3.428239
    109          1           0        7.812341    3.891524    2.196971
    110          8           0        8.278879    3.230081    5.572528
    111          6           0        5.710284    3.724440    1.730841
    112          1           0        4.762148    3.568929    2.272649
    113          6           0        5.617351    5.100227    1.051711
    114          1           0        6.527623    5.312401    0.476960
    115          1           0        4.770013    5.138493    0.357879
    116          1           0        5.490513    5.906243    1.784674
    117          6           0        5.843757    2.604385    0.687491
    118          1           0        6.798049    2.689254    0.151083
    119          1           0        5.042573    2.681883   -0.057141
    120          1           0        5.786782    1.600531    1.122525
    121          7           0        9.405606    2.081432    3.945362
    122          1           0        9.389182    1.616794    3.031028
    123          6           0       10.773845    2.068129    4.453018
    124          1           0       11.129045    3.097663    4.578704
    125          6           0       11.668211    1.403567    3.335871
    126          6           0       10.945105    1.356422    5.815707
    127          1           0       10.611263    2.041179    6.604727
    128          1           0       12.025732    1.220151    5.938233
    129          8           0       12.880629    1.396375    3.553686
    130          6           0       10.205340    0.022923    6.051105
    131          1           0       10.417970   -0.274113    7.088697
    132          1           0        9.124037    0.191823    5.994385
    133          6           0       10.577769   -1.189131    5.167118
    134          1           0       11.664734   -1.258957    5.060782
    135          1           0       10.249829   -2.116209    5.653620
    136          7           0       10.034425   -1.166263    3.810597
    137          1           0       10.528253   -0.543939    3.141670
    138          7           0        7.897691   -2.001805    4.344788
    139          1           0        6.893963   -1.993068    4.087686
    140          1           0        8.060402   -1.813754    5.323258
    141          7           0        8.368546   -1.218024    2.217148
    142          1           0        7.354500   -1.166846    2.005918
    143          1           0        9.023900   -0.764502    1.593139
    144          6           0        8.767141   -1.438154    3.480786
    145          8           0       11.017172    0.899820    2.347021
    146          1           0        7.506946    4.281324    8.925105
 ---------------------------------------------------------------------

 SCF Done:  E(RB3LYP) =  -3503.37106063     A.U. after    3 cycles

 Alpha  occ. eigenvalues --  -19.30976 -19.26750 -19.22230 -19.20696 -19.19184
 Alpha  occ. eigenvalues --  -19.17532 -19.17352 -19.17252 -19.16110 -19.14114
 Alpha  occ. eigenvalues --  -19.12505 -19.11889 -19.08159 -19.06840 -14.59407
 Alpha  occ. eigenvalues --  -14.54051 -14.53763 -14.49266 -14.45384 -14.43054
 Alpha  occ. eigenvalues --  -14.41809 -14.41631 -14.40606 -14.40291 -14.37088
 Alpha  occ. eigenvalues --  -14.36922 -14.36846 -14.36729 -10.43703 -10.41372
 Alpha  occ. eigenvalues --  -10.40727 -10.40114 -10.39139 -10.36475 -10.35144
 Alpha  occ. eigenvalues --  -10.34720 -10.34661 -10.34214 -10.33925 -10.33807
 Alpha  occ. eigenvalues --  -10.33333 -10.32794 -10.31481 -10.31271 -10.31207
 Alpha  occ. eigenvalues --  -10.30343 -10.30153 -10.29299 -10.28955 -10.28161
 Alpha  occ. eigenvalues --  -10.28148 -10.27445 -10.26990 -10.25712 -10.25162
 Alpha  occ. eigenvalues --  -10.24474 -10.24285 -10.23975 -10.23059 -10.22760
 Alpha  occ. eigenvalues --  -10.22545 -10.22445 -10.22260 -10.22212 -10.22002
 Alpha  occ. eigenvalues --  -10.21859 -10.21731 -10.20877 -10.20369 -10.19757
 Alpha  occ. eigenvalues --  -10.19323  -1.19757  -1.18075  -1.18004  -1.14127
 Alpha  occ. eigenvalues --   -1.13197  -1.11204  -1.09612  -1.09412  -1.08869
 Alpha  occ. eigenvalues --   -1.08428  -1.07835  -1.05950  -1.05252  -1.05229
 Alpha  occ. eigenvalues --   -1.04976  -1.02501  -1.01843  -1.00800  -0.99542
 Alpha  occ. eigenvalues --   -0.98232  -0.98021  -0.97649  -0.96948  -0.96274
 Alpha  occ. eigenvalues --   -0.94003  -0.92934  -0.92223  -0.91531  -0.91105
 Alpha  occ. eigenvalues --   -0.90266  -0.88271  -0.86700  -0.85539  -0.85139
 Alpha  occ. eigenvalues --   -0.84378  -0.84095  -0.81333  -0.80971  -0.80494
 Alpha  occ. eigenvalues --   -0.80238  -0.79273  -0.79026  -0.78527  -0.77148
 Alpha  occ. eigenvalues --   -0.76377  -0.75601  -0.75009  -0.74304  -0.74254
 Alpha  occ. eigenvalues --   -0.73212  -0.72841  -0.72305  -0.71200  -0.70834
 Alpha  occ. eigenvalues --   -0.70492  -0.69756  -0.68863  -0.68692  -0.68263
 Alpha  occ. eigenvalues --   -0.67592  -0.67234  -0.67047  -0.66794  -0.65776
 Alpha  occ. eigenvalues --   -0.65010  -0.64451  -0.64205  -0.64021  -0.63371
 Alpha  occ. eigenvalues --   -0.63306  -0.62512  -0.62292  -0.61852  -0.61829
 Alpha  occ. eigenvalues --   -0.61125  -0.60713  -0.60362  -0.59796  -0.59436
 Alpha  occ. eigenvalues --   -0.59379  -0.58950  -0.58544  -0.57793  -0.57539
 Alpha  occ. eigenvalues --   -0.57451  -0.57171  -0.56384  -0.56079  -0.55616
 Alpha  occ. eigenvalues --   -0.55075  -0.54958  -0.54621  -0.54564  -0.54234
 Alpha  occ. eigenvalues --   -0.54053  -0.53748  -0.53312  -0.53210  -0.52475
 Alpha  occ. eigenvalues --   -0.52329  -0.51939  -0.51582  -0.51371  -0.50953
 Alpha  occ. eigenvalues --   -0.50733  -0.50476  -0.50340  -0.50250  -0.50182
 Alpha  occ. eigenvalues --   -0.49948  -0.49732  -0.49620  -0.49154  -0.48904
 Alpha  occ. eigenvalues --   -0.48873  -0.48514  -0.48466  -0.48278  -0.47766
 Alpha  occ. eigenvalues --   -0.47462  -0.47091  -0.46990  -0.46854  -0.46702
 Alpha  occ. eigenvalues --   -0.46557  -0.46498  -0.46305  -0.45962  -0.45619
 Alpha  occ. eigenvalues --   -0.45422  -0.45296  -0.45162  -0.45015  -0.44675
 Alpha  occ. eigenvalues --   -0.44456  -0.44177  -0.44047  -0.44009  -0.43852
 Alpha  occ. eigenvalues --   -0.43623  -0.43614  -0.43473  -0.43321  -0.43151
 Alpha  occ. eigenvalues --   -0.42913  -0.42760  -0.42443  -0.42358  -0.42300
 Alpha  occ. eigenvalues --   -0.41975  -0.41729  -0.41459  -0.41294  -0.41179
 Alpha  occ. eigenvalues --   -0.40466  -0.40459  -0.40356  -0.39934  -0.39762
 Alpha  occ. eigenvalues --   -0.39405  -0.39078  -0.38928  -0.38764  -0.38476
 Alpha  occ. eigenvalues --   -0.37900  -0.37768  -0.37432  -0.37213  -0.37053
 Alpha  occ. eigenvalues --   -0.36887  -0.36648  -0.36255  -0.36167  -0.35943
 Alpha  occ. eigenvalues --   -0.35743  -0.35621  -0.35050  -0.34960  -0.34198
 Alpha  occ. eigenvalues --   -0.33999  -0.33093  -0.32801  -0.32319  -0.31922
 Alpha  occ. eigenvalues --   -0.31612  -0.31396  -0.31042  -0.30138  -0.29856
 Alpha  occ. eigenvalues --   -0.29341  -0.29255  -0.28092  -0.27775  -0.27457
 Alpha  occ. eigenvalues --   -0.27021  -0.26566  -0.25980  -0.23375  -0.22880
 Alpha  occ. eigenvalues --   -0.20908
 Alpha virt. eigenvalues --   -0.12914  -0.12705  -0.10059  -0.07841  -0.07399
 Alpha virt. eigenvalues --   -0.06028  -0.05268  -0.04894  -0.04850  -0.04667
 Alpha virt. eigenvalues --   -0.03734  -0.02666  -0.02314  -0.02216  -0.01586

 Mulliken charges:
               1
     1  N   -0.757554
     2  H    0.436805
     3  H    0.430937
     4  H    0.412129
     5  C   -0.128550
     6  H    0.232558
     7  C    0.670070
     8  C   -0.056486
     9  H    0.177045
    10  H    0.198649
    11  O   -0.536930
    12  O   -0.626397
    13  H    0.443419
    14  N   -0.615703
    15  H    0.375272
    16  C   -0.055242
    17  H    0.202610
    18  C    0.652053
    19  C   -0.454855
    20  H    0.183959
    21  H    0.171406
    22  H    0.188951
    23  O   -0.581295
    24  N   -0.602003
    25  H    0.367338
    26  C   -0.099685
    27  H    0.171731
    28  C    0.620258
    29  C    0.160190
    30  H    0.153307
    31  O   -0.542298
    32  C   -0.485609
    33  H    0.174383
    34  H    0.143090
    35  H    0.175276
    36  O   -0.634095
    37  H    0.403040
    38  N   -0.606439
    39  H    0.358508
    40  C   -0.063042
    41  H    0.178091
    42  C    0.622957
    43  C   -0.074553
    44  H    0.141607
    45  O   -0.551147
    46  C   -0.474069
    47  H    0.150541
    48  H    0.167643
    49  H    0.163471
    50  C   -0.445406
    51  H    0.158726
    52  H    0.138475
    53  H    0.153972
    54  N   -0.603080
    55  H    0.357551
    56  C   -0.062294
    57  H    0.171539
    58  C    0.627658
    59  C   -0.068624
    60  H    0.138634
    61  O   -0.551790
    62  C   -0.251470
    63  H    0.138724
    64  H    0.139256
    65  C   -0.472843
    66  H    0.143177
    67  H    0.159257
    68  H    0.157830
    69  C   -0.451048
    70  H    0.144345
    71  H    0.146204
    72  H    0.149504
    73  N   -0.619017
    74  H    0.351719
    75  C   -0.038304
    76  H    0.196265
    77  C    0.581253
    78  C   -0.364249
    79  H    0.195537
    80  H    0.156001
    81  O   -0.545935
    82  C    0.614745
    83  O   -0.572230
    84  O   -0.615552
    85  N   -0.630960
    86  H    0.398824
    87  C   -0.052226
    88  H    0.174538
    89  C    0.636973
    90  C   -0.350704
    91  H    0.217006
    92  H    0.164653
    93  O   -0.542927
    94  C    0.301708
    95  C    0.002810
    96  H    0.331414
    97  N   -0.605187
    98  H    0.383058
    99  C    0.304812
   100  H    0.245737
   101  N   -0.560176
   102  N   -0.618194
   103  H    0.343491
   104  C   -0.038620
   105  H    0.185679
   106  C    0.656340
   107  C   -0.297471
   108  H    0.143847
   109  H    0.166493
   110  O   -0.606718
   111  C   -0.083508
   112  H    0.108570
   113  C   -0.440173
   114  H    0.151751
   115  H    0.145068
   116  H    0.136992
   117  C   -0.476394
   118  H    0.145965
   119  H    0.139475
   120  H    0.193978
   121  N   -0.613184
   122  H    0.350355
   123  C   -0.035339
   124  H    0.155515
   125  C    0.563827
   126  C   -0.269488
   127  H    0.123522
   128  H    0.169138
   129  O   -0.543127
   130  C   -0.297940
   131  H    0.122075
   132  H    0.175497
   133  C   -0.173098
   134  H    0.187982
   135  H    0.147589
   136  N   -0.609616
   137  H    0.399456
   138  N   -0.786042
   139  H    0.408132
   140  H    0.343794
   141  N   -0.811619
   142  H    0.412877
   143  H    0.362227
   144  C    0.742287
   145  O   -0.641710
   146  H    0.401089
 Sum of Mulliken charges =   1.00000

 Dipole moment (field-independent basis, Debye):
    X=            -46.0669    Y=             -2.7006    Z=            -11.5176  Tot=             47.5616
 Quadrupole moment (field-independent basis, Debye-Ang):
   XX=           -190.4520   YY=           -361.3425   ZZ=            186.4255
   XY=            153.8943   XZ=            457.1883   YZ=            196.1142

 Normal termination of Gaussian 16 at Sun Jun 19 12:01:03 2022.
