 Gaussian 16, Revision C.01,
 Gaussian 16:  ES64L-G16RevC.01  3-Jul-2019

 -------------------------------------------------------------------
 # B3LYP/6-31G* guess=read geom=check nosymm integral(ultrafinegrid)
 -------------------------------------------------------------------

 ------------------------------------------------------
 Candidate Structure: Conf:112 Charge calc in gas phase
 ------------------------------------------------------
 Structure from the checkpoint file:  "conf-112.chk"
 Charge =  1 Multiplicity = 1

                          Input orientation:
 ---------------------------------------------------------------------
 Center     Atomic      Atomic             Coordinates (Angstroms)
 Number     Number       Type             X           Y           Z
 ---------------------------------------------------------------------
      1          7           0        0.686792    6.392739   -5.616507
      2          1           0        1.640586    6.302167   -5.105639
      3          1           0        0.644572    5.978993   -6.559062
      4          1           0        0.467098    7.402567   -5.640819
      5          6           0       -0.361873    5.750682   -4.769019
      6          1           0        0.132249    5.395540   -3.865105
      7          6           0       -0.966600    4.585608   -5.560022
      8          6           0       -1.398358    6.851880   -4.388837
      9          1           0       -1.928827    6.535556   -3.480996
     10          1           0       -2.131448    6.970232   -5.193574
     11          8           0       -0.893208    4.572819   -6.789888
     12          8           0       -0.749465    8.092729   -4.238728
     13          1           0       -0.047268    7.975504   -3.546587
     14          7           0       -1.571595    3.656885   -4.797228
     15          1           0       -1.501759    3.683688   -3.781500
     16          6           0       -2.251885    2.462941   -5.286009
     17          1           0       -3.104326    2.761893   -5.909061
     18          6           0       -2.762304    1.748390   -4.015736
     19          6           0       -1.327621    1.542439   -6.104956
     20          1           0       -1.878464    0.672418   -6.476452
     21          1           0       -0.494978    1.189375   -5.488051
     22          1           0       -0.931617    2.092459   -6.960507
     23          8           0       -2.350859    2.083386   -2.898221
     24          7           0       -3.641554    0.745948   -4.201110
     25          1           0       -3.940970    0.451361   -5.125416
     26          6           0       -4.190682   -0.047061   -3.100111
     27          1           0       -4.251962    0.602235   -2.221286
     28          6           0       -3.249867   -1.240729   -2.801672
     29          6           0       -5.587345   -0.560051   -3.515247
     30          1           0       -5.915413   -1.270063   -2.743514
     31          8           0       -3.524615   -2.385422   -3.175347
     32          6           0       -6.620035    0.550476   -3.651038
     33          1           0       -6.770184    1.063928   -2.695111
     34          1           0       -6.313383    1.290179   -4.397836
     35          1           0       -7.573824    0.121949   -3.970933
     36          8           0       -5.473621   -1.218491   -4.773894
     37          1           0       -4.924122   -2.005715   -4.586424
     38          7           0       -2.111895   -0.918557   -2.147854
     39          1           0       -1.955313    0.040298   -1.846892
     40          6           0       -1.064215   -1.881525   -1.833234
     41          1           0       -1.528269   -2.873656   -1.819730
     42          6           0       -0.536215   -1.502782   -0.439230
     43          6           0        0.083684   -1.875551   -2.897946
     44          1           0        0.530594   -0.871413   -2.866193
     45          8           0       -0.544449   -0.335589   -0.051031
     46          6           0        1.185928   -2.900535   -2.581424
     47          1           0        0.769192   -3.914485   -2.496426
     48          1           0        1.732679   -2.656294   -1.667504
     49          1           0        1.911621   -2.926294   -3.401637
     50          6           0       -0.468860   -2.120985   -4.310029
     51          1           0       -0.951517   -3.101612   -4.382930
     52          1           0       -1.202962   -1.365973   -4.602156
     53          1           0        0.349903   -2.090373   -5.037765
     54          7           0       -0.043850   -2.514884    0.327938
     55          1           0        0.073808   -3.423557   -0.098638
     56          6           0        0.720503   -2.236312    1.542526
     57          1           0        0.033082   -1.842983    2.301304
     58          6           0        1.765542   -1.151809    1.212067
     59          6           0        1.393747   -3.527302    2.073091
     60          1           0        2.063337   -3.874685    1.272928
     61          8           0        2.478907   -1.239500    0.207612
     62          6           0        0.375188   -4.660191    2.351097
     63          1           0        0.951647   -5.536837    2.672928
     64          1           0       -0.116474   -4.962599    1.416873
     65          6           0        2.265231   -3.231100    3.305446
     66          1           0        1.688007   -2.765331    4.113280
     67          1           0        3.106051   -2.572338    3.068245
     68          1           0        2.687057   -4.161212    3.699304
     69          6           0       -0.704221   -4.354400    3.396790
     70          1           0       -1.339083   -5.233021    3.551361
     71          1           0       -0.271704   -4.089982    4.367726
     72          1           0       -1.359331   -3.534086    3.081336
     73          7           0        1.860088   -0.105338    2.069509
     74          1           0        1.260326   -0.080565    2.882362
     75          6           0        2.459389    1.155492    1.628066
     76          1           0        2.256084    1.235544    0.555324
     77          6           0        3.993636    1.237204    1.797492
     78          6           0        1.819328    2.384520    2.285923
     79          1           0        2.071604    3.255634    1.681409
     80          1           0        0.727281    2.270811    2.272529
     81          8           0        4.500855    2.099532    2.517808
     82          6           0        2.248036    2.659665    3.706870
     83          8           0        2.519820    3.764108    4.165241
     84          8           0        2.171680    1.570973    4.486592
     85          7           0        4.697196    0.356282    1.047937
     86          1           0        4.156862   -0.346948    0.538611
     87          6           0        6.126307    0.512242    0.810558
     88          1           0        6.544196    1.030665    1.677216
     89          6           0        6.425961    1.448158   -0.394091
     90          6           0        6.840036   -0.836830    0.636327
     91          1           0        7.878370   -0.607911    0.364314
     92          1           0        6.404919   -1.365654   -0.226153
     93          8           0        7.553451    1.893753   -0.563915
     94          6           0        6.780208   -1.695661    1.864302
     95          6           0        6.250896   -1.515197    3.122464
     96          1           0        5.733112   -0.645302    3.502277
     97          7           0        7.328960   -2.966087    1.904947
     98          1           0        7.826061   -3.423393    1.153369
     99          6           0        7.110836   -3.472337    3.157300
    100          1           0        7.449240   -4.457786    3.448868
    101          7           0        6.459116   -2.622564    3.918117
    102          7           0        5.360095    1.695219   -1.211024
    103          1           0        4.460007    1.419493   -0.836499
    104          6           0        5.258259    2.880515   -2.048436
    105          1           0        6.191872    3.440967   -1.940171
    106          6           0        4.093728    3.719362   -1.470554
    107          6           0        5.016000    2.539373   -3.536043
    108          1           0        4.060986    2.000524   -3.611140
    109          1           0        4.884345    3.474774   -4.098905
    110          8           0        3.317915    3.235765   -0.635409
    111          6           0        6.125867    1.701502   -4.200410
    112          1           0        6.216804    0.766695   -3.630266
    113          6           0        5.713129    1.343459   -5.636271
    114          1           0        5.616014    2.244517   -6.255881
    115          1           0        6.461535    0.697566   -6.108786
    116          1           0        4.751703    0.815913   -5.660841
    117          6           0        7.491455    2.405178   -4.177197
    118          1           0        7.436728    3.390353   -4.660509
    119          1           0        8.235023    1.814328   -4.724151
    120          1           0        7.865605    2.536174   -3.156822
    121          7           0        3.989298    4.995817   -1.905404
    122          1           0        4.468823    5.260776   -2.758638
    123          6           0        2.843912    5.833556   -1.563023
    124          1           0        2.063544    5.157838   -1.193584
    125          6           0        2.236373    6.496875   -2.822951
    126          6           0        3.166387    6.838489   -0.440632
    127          1           0        2.368170    7.587483   -0.424915
    128          1           0        4.104943    7.356346   -0.680266
    129          8           0        1.275965    7.273142   -2.606264
    130          6           0        3.269303    6.132642    0.916722
    131          1           0        2.284275    5.714958    1.166970
    132          1           0        3.961832    5.286544    0.855672
    133          6           0        3.713777    7.039645    2.064234
    134          1           0        4.739486    7.388891    1.885575
    135          1           0        3.059207    7.917606    2.149862
    136          7           0        3.668939    6.264338    3.312779
    137          1           0        3.243340    5.333541    3.288056
    138          7           0        4.754227    7.833069    4.647111
    139          1           0        4.906857    8.223908    5.565040
    140          1           0        4.880598    8.451767    3.860585
    141          7           0        3.880593    5.891189    5.580780
    142          1           0        4.437383    6.016877    6.413664
    143          1           0        3.443783    4.982854    5.433282
    144          6           0        4.103363    6.663023    4.500731
    145          8           0        2.706093    6.124755   -3.943125
    146          1           0        2.458690    1.811839    5.387427
 ---------------------------------------------------------------------

 SCF Done:  E(RB3LYP) =  -3503.44024593     A.U. after    2 cycles

 Alpha  occ. eigenvalues --  -19.30657 -19.25654 -19.21443 -19.20682 -19.20670
 Alpha  occ. eigenvalues --  -19.20624 -19.20019 -19.19776 -19.19740 -19.19487
 Alpha  occ. eigenvalues --  -19.18824 -19.17998 -19.17842 -19.17142 -14.50743
 Alpha  occ. eigenvalues --  -14.49271 -14.49245 -14.49201 -14.44932 -14.44582
 Alpha  occ. eigenvalues --  -14.44565 -14.44401 -14.43981 -14.43206 -14.43103
 Alpha  occ. eigenvalues --  -14.42658 -14.41743 -14.36181 -10.46253 -10.43842
 Alpha  occ. eigenvalues --  -10.37917 -10.37547 -10.37402 -10.36715 -10.36388
 Alpha  occ. eigenvalues --  -10.36367 -10.35781 -10.35422 -10.34994 -10.34198
 Alpha  occ. eigenvalues --  -10.32741 -10.32437 -10.32178 -10.32025 -10.31478
 Alpha  occ. eigenvalues --  -10.30372 -10.30309 -10.30284 -10.30189 -10.30033
 Alpha  occ. eigenvalues --  -10.29799 -10.29580 -10.28989 -10.28292 -10.27555
 Alpha  occ. eigenvalues --  -10.27344 -10.27122 -10.26701 -10.26350 -10.25791
 Alpha  occ. eigenvalues --  -10.25489 -10.25197 -10.24729 -10.24458 -10.24350
 Alpha  occ. eigenvalues --  -10.24023 -10.23659 -10.23447 -10.23363 -10.22645
 Alpha  occ. eigenvalues --  -10.21973  -1.21765  -1.14874  -1.12994  -1.12837
 Alpha  occ. eigenvalues --   -1.12554  -1.12259  -1.11687  -1.11470  -1.11121
 Alpha  occ. eigenvalues --   -1.10819  -1.10457  -1.09497  -1.09401  -1.07335
 Alpha  occ. eigenvalues --   -1.06382  -1.04260  -1.04030  -1.03051  -1.01958
 Alpha  occ. eigenvalues --   -1.01388  -1.01296  -1.00652  -1.00595  -1.00330
 Alpha  occ. eigenvalues --   -0.99508  -0.99074  -0.98262  -0.92123  -0.89443
 Alpha  occ. eigenvalues --   -0.89275  -0.88109  -0.87269  -0.86969  -0.86497
 Alpha  occ. eigenvalues --   -0.85985  -0.83977  -0.83830  -0.82014  -0.81716
 Alpha  occ. eigenvalues --   -0.81036  -0.79569  -0.79342  -0.78002  -0.77397
 Alpha  occ. eigenvalues --   -0.77223  -0.75568  -0.75406  -0.74578  -0.74345
 Alpha  occ. eigenvalues --   -0.73269  -0.72889  -0.72349  -0.71941  -0.71830
 Alpha  occ. eigenvalues --   -0.71319  -0.70354  -0.68994  -0.68661  -0.68250
 Alpha  occ. eigenvalues --   -0.67996  -0.66745  -0.66635  -0.66380  -0.66183
 Alpha  occ. eigenvalues --   -0.65928  -0.65784  -0.65597  -0.65126  -0.64481
 Alpha  occ. eigenvalues --   -0.64275  -0.63854  -0.63785  -0.63682  -0.63446
 Alpha  occ. eigenvalues --   -0.63072  -0.62724  -0.61786  -0.61460  -0.60960
 Alpha  occ. eigenvalues --   -0.60877  -0.60044  -0.59623  -0.59545  -0.59404
 Alpha  occ. eigenvalues --   -0.59072  -0.58521  -0.57835  -0.57747  -0.57172
 Alpha  occ. eigenvalues --   -0.56898  -0.56261  -0.55895  -0.55852  -0.55451
 Alpha  occ. eigenvalues --   -0.55324  -0.55194  -0.54766  -0.54191  -0.54068
 Alpha  occ. eigenvalues --   -0.53765  -0.53709  -0.53458  -0.52841  -0.52753
 Alpha  occ. eigenvalues --   -0.52332  -0.51890  -0.51710  -0.51490  -0.51371
 Alpha  occ. eigenvalues --   -0.51187  -0.50835  -0.50726  -0.50633  -0.50470
 Alpha  occ. eigenvalues --   -0.50110  -0.49847  -0.49730  -0.49518  -0.49401
 Alpha  occ. eigenvalues --   -0.49335  -0.49157  -0.48788  -0.48762  -0.48525
 Alpha  occ. eigenvalues --   -0.48239  -0.48018  -0.47922  -0.47794  -0.47609
 Alpha  occ. eigenvalues --   -0.47452  -0.47330  -0.47174  -0.46729  -0.46537
 Alpha  occ. eigenvalues --   -0.46433  -0.46080  -0.45968  -0.45668  -0.45542
 Alpha  occ. eigenvalues --   -0.45393  -0.45332  -0.45239  -0.45171  -0.44930
 Alpha  occ. eigenvalues --   -0.44862  -0.44671  -0.44551  -0.44398  -0.44317
 Alpha  occ. eigenvalues --   -0.44240  -0.44142  -0.43783  -0.43482  -0.43415
 Alpha  occ. eigenvalues --   -0.43138  -0.43108  -0.43053  -0.42938  -0.42572
 Alpha  occ. eigenvalues --   -0.42284  -0.41799  -0.41389  -0.41125  -0.41035
 Alpha  occ. eigenvalues --   -0.40134  -0.40077  -0.39820  -0.39633  -0.39560
 Alpha  occ. eigenvalues --   -0.39544  -0.39373  -0.39163  -0.38712  -0.38594
 Alpha  occ. eigenvalues --   -0.37899  -0.37862  -0.36412  -0.36044  -0.35936
 Alpha  occ. eigenvalues --   -0.35396  -0.35078  -0.34747  -0.34277  -0.34227
 Alpha  occ. eigenvalues --   -0.34137  -0.33731  -0.33644  -0.33232  -0.33125
 Alpha  occ. eigenvalues --   -0.33094  -0.32990  -0.32565  -0.32209  -0.32094
 Alpha  occ. eigenvalues --   -0.31791  -0.31717  -0.31060  -0.30663  -0.30347
 Alpha  occ. eigenvalues --   -0.27488
 Alpha virt. eigenvalues --   -0.10231  -0.09659  -0.07252  -0.07192  -0.06419
 Alpha virt. eigenvalues --   -0.06389  -0.06205  -0.05386  -0.05259  -0.04305
 Alpha virt. eigenvalues --   -0.04189  -0.03199  -0.02879  -0.02605  -0.02424

 Mulliken charges:
               1
     1  N   -0.779779
     2  H    0.435553
     3  H    0.395318
     4  H    0.397671
     5  C   -0.119570
     6  H    0.200697
     7  C    0.625156
     8  C   -0.035216
     9  H    0.158258
    10  H    0.173473
    11  O   -0.531058
    12  O   -0.642059
    13  H    0.442815
    14  N   -0.628281
    15  H    0.365015
    16  C   -0.023235
    17  H    0.185775
    18  C    0.623953
    19  C   -0.464188
    20  H    0.161044
    21  H    0.163902
    22  H    0.206485
    23  O   -0.552761
    24  N   -0.606389
    25  H    0.356340
    26  C   -0.080231
    27  H    0.181801
    28  C    0.638627
    29  C    0.114277
    30  H    0.148243
    31  O   -0.548394
    32  C   -0.449821
    33  H    0.148127
    34  H    0.147722
    35  H    0.177398
    36  O   -0.649534
    37  H    0.422036
    38  N   -0.616824
    39  H    0.372891
    40  C   -0.066010
    41  H    0.176264
    42  C    0.643659
    43  C   -0.065140
    44  H    0.137814
    45  O   -0.548299
    46  C   -0.495827
    47  H    0.135452
    48  H    0.186580
    49  H    0.155429
    50  C   -0.450829
    51  H    0.165611
    52  H    0.145347
    53  H    0.146911
    54  N   -0.620585
    55  H    0.344961
    56  C   -0.002082
    57  H    0.153933
    58  C    0.656615
    59  C   -0.122950
    60  H    0.150418
    61  O   -0.557596
    62  C   -0.263490
    63  H    0.154147
    64  H    0.131284
    65  C   -0.476127
    66  H    0.141315
    67  H    0.178224
    68  H    0.169444
    69  C   -0.458217
    70  H    0.163267
    71  H    0.154551
    72  H    0.151004
    73  N   -0.594916
    74  H    0.347220
    75  C   -0.069845
    76  H    0.225194
    77  C    0.669979
    78  C   -0.412664
    79  H    0.220584
    80  H    0.203371
    81  O   -0.552121
    82  C    0.656486
    83  O   -0.527630
    84  O   -0.546616
    85  N   -0.659169
    86  H    0.386431
    87  C   -0.050764
    88  H    0.205912
    89  C    0.596631
    90  C   -0.374815
    91  H    0.196177
    92  H    0.156787
    93  O   -0.514213
    94  C    0.339454
    95  C   -0.084685
    96  H    0.136088
    97  N   -0.613307
    98  H    0.335945
    99  C    0.209091
   100  H    0.162578
   101  N   -0.433714
   102  N   -0.587618
   103  H    0.348605
   104  C   -0.087946
   105  H    0.191226
   106  C    0.616281
   107  C   -0.260133
   108  H    0.135452
   109  H    0.140286
   110  O   -0.564262
   111  C   -0.063715
   112  H    0.136746
   113  C   -0.444598
   114  H    0.142269
   115  H    0.151540
   116  H    0.136112
   117  C   -0.470477
   118  H    0.132003
   119  H    0.149717
   120  H    0.179441
   121  N   -0.590282
   122  H    0.352312
   123  C   -0.057892
   124  H    0.178972
   125  C    0.609497
   126  C   -0.262457
   127  H    0.178307
   128  H    0.143526
   129  O   -0.595543
   130  C   -0.323443
   131  H    0.157073
   132  H    0.192096
   133  C   -0.136956
   134  H    0.171441
   135  H    0.178535
   136  N   -0.636295
   137  H    0.412945
   138  N   -0.763644
   139  H    0.377410
   140  H    0.386061
   141  N   -0.780940
   142  H    0.366193
   143  H    0.402549
   144  C    0.815910
   145  O   -0.623964
   146  H    0.423877
 Sum of Mulliken charges =   1.00000

 Dipole moment (field-independent basis, Debye):
    X=             11.3476    Y=             17.5812    Z=              8.9503  Tot=             22.7590
 Quadrupole moment (field-independent basis, Debye-Ang):
   XX=           -360.1548   YY=           -242.7160   ZZ=           -304.9446
   XY=             62.7007   XZ=             44.5049   YZ=             74.2701

 Normal termination of Gaussian 16 at Sun Jun 19 12:01:20 2022.
