 Gaussian 16, Revision C.01,
 Gaussian 16:  ES64L-G16RevC.01  3-Jul-2019

 -------------------------------------------------------------------
 # B3LYP/6-31G* guess=read geom=check nosymm integral(ultrafinegrid)
 -------------------------------------------------------------------

 ------------------------------------------------------
 Candidate Structure: Conf:883 Charge calc in gas phase
 ------------------------------------------------------
 Structure from the checkpoint file:  "conf-883.chk"
 Charge =  1 Multiplicity = 1

                          Input orientation:
 ---------------------------------------------------------------------
 Center     Atomic      Atomic             Coordinates (Angstroms)
 Number     Number       Type             X           Y           Z
 ---------------------------------------------------------------------
      1          7           0      -10.884070   -5.197715   -9.094981
      2          1           0      -10.989730   -4.807864  -10.035772
      3          1           0      -10.056171   -5.845868   -9.098277
      4          1           0      -11.765778   -5.654904   -8.808835
      5          6           0      -10.521125   -4.168683   -8.058980
      6          1           0      -10.888464   -3.194418   -8.389398
      7          6           0       -8.976401   -4.245617   -7.969448
      8          6           0      -11.200187   -4.616234   -6.738658
      9          1           0      -11.173523   -3.795598   -6.015264
     10          1           0      -10.646708   -5.462163   -6.318115
     11          8           0       -8.438998   -5.267837   -8.416141
     12          8           0      -12.514309   -5.078497   -7.008416
     13          1           0      -13.158996   -4.367265   -6.866729
     14          7           0       -8.373202   -3.226170   -7.372329
     15          1           0       -8.875116   -2.415946   -6.995531
     16          6           0       -6.939303   -3.145421   -7.085544
     17          1           0       -6.620240   -4.084212   -6.619123
     18          6           0       -6.825525   -1.983074   -6.069018
     19          6           0       -6.106961   -2.887949   -8.353003
     20          1           0       -5.043431   -2.808880   -8.107975
     21          1           0       -6.417037   -1.954260   -8.832968
     22          1           0       -6.234982   -3.714002   -9.057285
     23          8           0       -7.803641   -1.260311   -5.856992
     24          7           0       -5.624647   -1.850745   -5.478039
     25          1           0       -4.812273   -2.330849   -5.873218
     26          6           0       -5.206818   -0.642596   -4.768850
     27          1           0       -5.848020    0.189686   -5.079826
     28          6           0       -3.742265   -0.408490   -5.217648
     29          6           0       -5.283921   -0.793588   -3.223968
     30          1           0       -4.945148    0.152077   -2.787046
     31          8           0       -3.155693   -1.270254   -5.877102
     32          6           0       -6.692492   -1.097047   -2.717917
     33          1           0       -7.408291   -0.332970   -3.036940
     34          1           0       -7.045540   -2.063147   -3.098271
     35          1           0       -6.682399   -1.141359   -1.624971
     36          8           0       -4.337050   -1.751064   -2.766286
     37          1           0       -4.636204   -2.627922   -3.057885
     38          7           0       -3.205805    0.765990   -4.838750
     39          1           0       -3.702263    1.349524   -4.170180
     40          6           0       -1.764701    1.033346   -4.830645
     41          1           0       -1.261352    0.110646   -5.135164
     42          6           0       -1.460243    1.376441   -3.356224
     43          6           0       -1.377850    2.180641   -5.801753
     44          1           0       -1.884198    3.086910   -5.440051
     45          8           0       -2.289244    2.017600   -2.703752
     46          6           0        0.137009    2.434102   -5.795365
     47          1           0        0.685598    1.533959   -6.105752
     48          1           0        0.519273    2.748794   -4.821246
     49          1           0        0.387978    3.228016   -6.506426
     50          6           0       -1.871948    1.878381   -7.223551
     51          1           0       -1.407247    0.965507   -7.616161
     52          1           0       -2.957618    1.744962   -7.256684
     53          1           0       -1.612379    2.703547   -7.895787
     54          7           0       -0.303588    0.899694   -2.851263
     55          1           0        0.390510    0.487545   -3.464890
     56          6           0        0.153935    1.151649   -1.486860
     57          1           0       -0.509802    1.908439   -1.061565
     58          6           0        1.591159    1.681103   -1.616762
     59          6           0        0.124428   -0.145706   -0.623485
     60          1           0        0.822553   -0.841783   -1.110548
     61          8           0        2.374197    1.156685   -2.409643
     62          6           0       -1.260955   -0.830314   -0.614434
     63          1           0       -1.133055   -1.802769   -0.119062
     64          1           0       -1.559920   -1.056280   -1.644336
     65          6           0        0.645080    0.118236    0.799427
     66          1           0        0.068026    0.898934    1.308976
     67          1           0        1.694707    0.427934    0.802397
     68          1           0        0.568989   -0.793075    1.402863
     69          6           0       -2.398705   -0.064893    0.073942
     70          1           0       -3.324405   -0.647249    0.004711
     71          1           0       -2.196322    0.110441    1.136614
     72          1           0       -2.584077    0.900935   -0.407459
     73          7           0        1.917302    2.729486   -0.825611
     74          1           0        1.281114    3.072466   -0.111652
     75          6           0        3.261553    3.265558   -0.728708
     76          1           0        3.976807    2.460697   -0.927497
     77          6           0        3.419681    3.792916    0.713265
     78          6           0        3.510087    4.418125   -1.741565
     79          1           0        2.744578    5.186709   -1.612540
     80          1           0        4.494915    4.857600   -1.551131
     81          8           0        2.431605    4.002871    1.417367
     82          6           0        3.461072    3.931257   -3.175199
     83          8           0        2.542584    4.103212   -3.944845
     84          8           0        4.590873    3.263760   -3.501357
     85          7           0        4.687236    4.022572    1.113081
     86          1           0        5.487740    3.857537    0.508912
     87          6           0        5.017548    4.618019    2.397763
     88          1           0        4.300018    5.416626    2.613654
     89          6           0        6.436193    5.185853    2.237597
     90          6           0        4.927710    3.561372    3.547283
     91          1           0        5.710137    2.809502    3.384432
     92          1           0        3.963434    3.062912    3.413631
     93          8           0        7.175278    4.798747    1.332212
     94          6           0        4.977751    4.103743    4.941766
     95          6           0        3.969094    4.416348    5.829702
     96          1           0        2.902026    4.328018    5.667960
     97          7           0        6.148194    4.376073    5.633954
     98          1           0        7.100911    4.314379    5.258666
     99          6           0        5.785844    4.827655    6.868772
    100          1           0        6.517159    5.109096    7.615431
    101          7           0        4.476834    4.865939    7.024971
    102          7           0        6.815210    6.118483    3.146293
    103          1           0        6.219074    6.273336    3.949981
    104          6           0        8.198261    6.564066    3.226647
    105          1           0        8.499466    6.885761    2.225189
    106          6           0        9.124875    5.404661    3.654558
    107          6           0        8.330133    7.730031    4.226921
    108          1           0        8.018099    7.366131    5.216288
    109          1           0        9.395451    7.980225    4.314937
    110          8           0        8.750152    4.504433    4.418703
    111          6           0        7.540941    9.008119    3.873199
    112          1           0        6.479657    8.740128    3.767966
    113          6           0        7.656930   10.018643    5.024661
    114          1           0        8.699715   10.326349    5.173945
    115          1           0        7.071431   10.920382    4.813828
    116          1           0        7.293847    9.596202    5.968898
    117          6           0        8.003455    9.633291    2.548991
    118          1           0        9.069889    9.890851    2.587244
    119          1           0        7.447854   10.555111    2.343944
    120          1           0        7.847882    8.963882    1.695523
    121          7           0       10.377275    5.478162    3.169254
    122          1           0       10.675739    6.290640    2.636473
    123          6           0       11.479593    4.647408    3.630710
    124          1           0       11.260599    4.328669    4.653223
    125          6           0       12.736857    5.529807    3.659760
    126          6           0       11.719535    3.406127    2.733883
    127          1           0       12.747390    3.056709    2.878473
    128          1           0       11.640408    3.726675    1.688575
    129          8           0       13.773639    5.009597    4.304070
    130          6           0       10.753109    2.246116    3.002115
    131          1           0        9.716457    2.590759    2.920289
    132          1           0       10.895339    1.481446    2.225766
    133          6           0       10.927575    1.593599    4.382358
    134          1           0       10.813505    2.328500    5.181560
    135          1           0       10.137974    0.845294    4.525130
    136          7           0       12.209186    0.924156    4.587870
    137          1           0       12.370596    0.062241    4.085886
    138          7           0       13.359852    2.662260    5.647253
    139          1           0       14.099816    2.787802    6.337829
    140          1           0       13.533239    4.131192    4.741806
    141          7           0       14.215670    0.435261    5.589905
    142          1           0       15.012961    0.744035    6.129845
    143          1           0       13.864721   -0.470533    5.877079
    144          6           0       13.264404    1.409854    5.306786
    145          8           0       12.774469    6.610075    3.103191
    146          1           0        4.452744    2.904571   -4.397633
 ---------------------------------------------------------------------

 SCF Done:  E(RB3LYP) =  -3503.38406682     A.U. after    1 cycles

 Alpha  occ. eigenvalues --  -19.31657 -19.27094 -19.23474 -19.22737 -19.21762
 Alpha  occ. eigenvalues --  -19.19925 -19.19276 -19.17892 -19.17255 -19.17143
 Alpha  occ. eigenvalues --  -19.17111 -19.17063 -19.16470 -19.15787 -14.60568
 Alpha  occ. eigenvalues --  -14.49967 -14.45422 -14.42574 -14.41517 -14.41325
 Alpha  occ. eigenvalues --  -14.41141 -14.40950 -14.40543 -14.40520 -14.40503
 Alpha  occ. eigenvalues --  -14.40217 -14.34819 -14.33037 -10.44232 -10.41594
 Alpha  occ. eigenvalues --  -10.40406 -10.39523 -10.36273 -10.36249 -10.35280
 Alpha  occ. eigenvalues --  -10.34680 -10.34294 -10.34273 -10.34127 -10.34095
 Alpha  occ. eigenvalues --  -10.33782 -10.33655 -10.31614 -10.31316 -10.29426
 Alpha  occ. eigenvalues --  -10.28836 -10.28611 -10.28564 -10.28375 -10.27888
 Alpha  occ. eigenvalues --  -10.27158 -10.26353 -10.25760 -10.25279 -10.24752
 Alpha  occ. eigenvalues --  -10.24540 -10.24216 -10.24178 -10.23835 -10.23733
 Alpha  occ. eigenvalues --  -10.23311 -10.22864 -10.22480 -10.22146 -10.21776
 Alpha  occ. eigenvalues --  -10.21772 -10.21754 -10.21513 -10.21116 -10.20917
 Alpha  occ. eigenvalues --  -10.20450  -1.20115  -1.18584  -1.14683  -1.14364
 Alpha  occ. eigenvalues --   -1.14143  -1.11527  -1.11240  -1.09693  -1.09263
 Alpha  occ. eigenvalues --   -1.09135  -1.08905  -1.08218  -1.08029  -1.06515
 Alpha  occ. eigenvalues --   -1.05407  -1.03656  -1.03372  -1.02954  -1.02009
 Alpha  occ. eigenvalues --   -0.99280  -0.98040  -0.97852  -0.97693  -0.97491
 Alpha  occ. eigenvalues --   -0.97094  -0.94241  -0.93338  -0.89894  -0.88667
 Alpha  occ. eigenvalues --   -0.88662  -0.86433  -0.85881  -0.85301  -0.84327
 Alpha  occ. eigenvalues --   -0.84088  -0.83759  -0.82518  -0.81466  -0.79969
 Alpha  occ. eigenvalues --   -0.79566  -0.78473  -0.77616  -0.77400  -0.76588
 Alpha  occ. eigenvalues --   -0.76075  -0.75009  -0.74684  -0.74398  -0.72986
 Alpha  occ. eigenvalues --   -0.72634  -0.72230  -0.71933  -0.71610  -0.70492
 Alpha  occ. eigenvalues --   -0.69716  -0.68920  -0.68545  -0.67821  -0.67278
 Alpha  occ. eigenvalues --   -0.66521  -0.65919  -0.65604  -0.65265  -0.64883
 Alpha  occ. eigenvalues --   -0.64191  -0.63909  -0.63567  -0.63411  -0.63130
 Alpha  occ. eigenvalues --   -0.62949  -0.62888  -0.62782  -0.61986  -0.61773
 Alpha  occ. eigenvalues --   -0.61123  -0.60612  -0.60379  -0.60086  -0.59907
 Alpha  occ. eigenvalues --   -0.59261  -0.59164  -0.58714  -0.58309  -0.57630
 Alpha  occ. eigenvalues --   -0.57498  -0.56933  -0.56755  -0.56243  -0.55402
 Alpha  occ. eigenvalues --   -0.54863  -0.54506  -0.54212  -0.54001  -0.53476
 Alpha  occ. eigenvalues --   -0.53443  -0.52795  -0.52618  -0.52605  -0.52444
 Alpha  occ. eigenvalues --   -0.52228  -0.51868  -0.51677  -0.51486  -0.51405
 Alpha  occ. eigenvalues --   -0.51387  -0.50944  -0.50813  -0.50540  -0.50265
 Alpha  occ. eigenvalues --   -0.50057  -0.50015  -0.49700  -0.49243  -0.49216
 Alpha  occ. eigenvalues --   -0.49081  -0.48640  -0.48382  -0.48332  -0.48086
 Alpha  occ. eigenvalues --   -0.47834  -0.47484  -0.47351  -0.47178  -0.47110
 Alpha  occ. eigenvalues --   -0.46748  -0.46495  -0.46327  -0.45881  -0.45723
 Alpha  occ. eigenvalues --   -0.45550  -0.45215  -0.45141  -0.45042  -0.44874
 Alpha  occ. eigenvalues --   -0.44447  -0.44328  -0.44237  -0.44159  -0.43900
 Alpha  occ. eigenvalues --   -0.43805  -0.43770  -0.43568  -0.43274  -0.43069
 Alpha  occ. eigenvalues --   -0.42874  -0.42698  -0.42649  -0.42485  -0.42411
 Alpha  occ. eigenvalues --   -0.42361  -0.42194  -0.42148  -0.41964  -0.41911
 Alpha  occ. eigenvalues --   -0.41421  -0.41399  -0.41176  -0.40638  -0.40275
 Alpha  occ. eigenvalues --   -0.40115  -0.39990  -0.39731  -0.39630  -0.39280
 Alpha  occ. eigenvalues --   -0.39042  -0.38453  -0.38349  -0.38010  -0.37938
 Alpha  occ. eigenvalues --   -0.36983  -0.36810  -0.36647  -0.36566  -0.36564
 Alpha  occ. eigenvalues --   -0.36476  -0.36267  -0.36138  -0.35625  -0.34316
 Alpha  occ. eigenvalues --   -0.33322  -0.33225  -0.32903  -0.32647  -0.32612
 Alpha  occ. eigenvalues --   -0.32421  -0.31628  -0.31549  -0.31404  -0.31119
 Alpha  occ. eigenvalues --   -0.30741  -0.30562  -0.30394  -0.30330  -0.29737
 Alpha  occ. eigenvalues --   -0.29456  -0.29436  -0.29336  -0.28444  -0.28135
 Alpha  occ. eigenvalues --   -0.24601
 Alpha virt. eigenvalues --   -0.13119  -0.11379  -0.08357  -0.06802  -0.05953
 Alpha virt. eigenvalues --   -0.05071  -0.04669  -0.03513  -0.03493  -0.03291
 Alpha virt. eigenvalues --   -0.02487  -0.02332  -0.02068  -0.01432  -0.01125

 Mulliken charges:
               1
     1  N   -0.742344
     2  H    0.418375
     3  H    0.429139
     4  H    0.427774
     5  C   -0.143260
     6  H    0.213147
     7  C    0.653728
     8  C   -0.065509
     9  H    0.204447
    10  H    0.208519
    11  O   -0.533283
    12  O   -0.609324
    13  H    0.432780
    14  N   -0.613154
    15  H    0.371317
    16  C   -0.053900
    17  H    0.196538
    18  C    0.619730
    19  C   -0.463695
    20  H    0.193729
    21  H    0.171669
    22  H    0.189018
    23  O   -0.541112
    24  N   -0.623581
    25  H    0.368696
    26  C   -0.098109
    27  H    0.184833
    28  C    0.644695
    29  C    0.127973
    30  H    0.169746
    31  O   -0.547739
    32  C   -0.460436
    33  H    0.163293
    34  H    0.133229
    35  H    0.175558
    36  O   -0.608669
    37  H    0.391731
    38  N   -0.603420
    39  H    0.356082
    40  C   -0.064403
    41  H    0.173522
    42  C    0.633408
    43  C   -0.074426
    44  H    0.143365
    45  O   -0.550915
    46  C   -0.475237
    47  H    0.134167
    48  H    0.190048
    49  H    0.158874
    50  C   -0.444101
    51  H    0.150079
    52  H    0.141661
    53  H    0.151788
    54  N   -0.598350
    55  H    0.351443
    56  C   -0.062565
    57  H    0.180268
    58  C    0.634938
    59  C   -0.073208
    60  H    0.137038
    61  O   -0.557063
    62  C   -0.259508
    63  H    0.131518
    64  H    0.147660
    65  C   -0.470612
    66  H    0.154484
    67  H    0.153502
    68  H    0.153944
    69  C   -0.471300
    70  H    0.145809
    71  H    0.141730
    72  H    0.172031
    73  N   -0.606320
    74  H    0.359553
    75  C   -0.069809
    76  H    0.199023
    77  C    0.624501
    78  C   -0.330400
    79  H    0.185796
    80  H    0.179759
    81  O   -0.537150
    82  C    0.590953
    83  O   -0.461223
    84  O   -0.557499
    85  N   -0.624755
    86  H    0.359834
    87  C   -0.041745
    88  H    0.183945
    89  C    0.619643
    90  C   -0.351403
    91  H    0.161437
    92  H    0.192441
    93  O   -0.541766
    94  C    0.269604
    95  C   -0.077773
    96  H    0.134715
    97  N   -0.632740
    98  H    0.392305
    99  C    0.184427
   100  H    0.152671
   101  N   -0.423368
   102  N   -0.612821
   103  H    0.356142
   104  C   -0.056147
   105  H    0.178150
   106  C    0.655327
   107  C   -0.299052
   108  H    0.148851
   109  H    0.161474
   110  O   -0.570505
   111  C   -0.070182
   112  H    0.129600
   113  C   -0.445756
   114  H    0.149133
   115  H    0.151247
   116  H    0.147980
   117  C   -0.455168
   118  H    0.150316
   119  H    0.153317
   120  H    0.148525
   121  N   -0.593080
   122  H    0.355891
   123  C   -0.089065
   124  H    0.195329
   125  C    0.603041
   126  C   -0.264848
   127  H    0.158304
   128  H    0.157348
   129  O   -0.612549
   130  C   -0.267391
   131  H    0.172423
   132  H    0.130304
   133  C   -0.141760
   134  H    0.194198
   135  H    0.150507
   136  N   -0.592469
   137  H    0.329817
   138  N   -0.732772
   139  H    0.294217
   140  H    0.472396
   141  N   -0.757722
   142  H    0.337218
   143  H    0.334618
   144  C    0.659330
   145  O   -0.481589
   146  H    0.415419
 Sum of Mulliken charges =   1.00000

 Dipole moment (field-independent basis, Debye):
    X=            -32.9924    Y=            -19.6430    Z=            -31.2422  Tot=             49.5017
 Quadrupole moment (field-independent basis, Debye-Ang):
   XX=            194.6462   YY=           -346.5141   ZZ=           -121.0162
   XY=            154.2538   XZ=            439.2547   YZ=            125.2790

 Normal termination of Gaussian 16 at Sun Jun 19 12:03:42 2022.
