 Gaussian 16, Revision C.01,
 Gaussian 16:  ES64L-G16RevC.01  3-Jul-2019

 -------------------------------------------------------------------
 # B3LYP/6-31G* guess=read geom=check nosymm integral(ultrafinegrid)
 -------------------------------------------------------------------

 ------------------------------------------------------
 Candidate Structure: Conf:961 Charge calc in gas phase
 ------------------------------------------------------
 Structure from the checkpoint file:  "conf-961.chk"
 Charge =  1 Multiplicity = 1

                          Input orientation:
 ---------------------------------------------------------------------
 Center     Atomic      Atomic             Coordinates (Angstroms)
 Number     Number       Type             X           Y           Z
 ---------------------------------------------------------------------
      1          7           0      -11.170921   -2.663156   -3.044958
      2          1           0      -10.914382   -3.670704   -3.269476
      3          1           0      -11.216112   -2.520805   -2.030449
      4          1           0      -12.092324   -2.454407   -3.440758
      5          6           0      -10.045804   -1.899774   -3.705921
      6          1           0      -10.464758   -1.091738   -4.308700
      7          6           0       -9.340037   -2.975483   -4.558330
      8          6           0       -9.070393   -1.312524   -2.639597
      9          1           0       -8.750236   -2.123931   -1.969270
     10          1           0       -9.613209   -0.564218   -2.048811
     11          8           0       -9.638302   -4.158980   -4.358158
     12          8           0       -7.992571   -0.689740   -3.271457
     13          1           0       -7.271130   -1.359469   -3.358426
     14          7           0       -8.421169   -2.527961   -5.425128
     15          1           0       -8.183490   -1.543502   -5.332658
     16          6           0       -7.348246   -3.401038   -5.902216
     17          1           0       -7.796224   -4.376447   -6.110886
     18          6           0       -6.312350   -3.564079   -4.755997
     19          6           0       -6.722687   -2.821090   -7.176988
     20          1           0       -5.946400   -3.485544   -7.565427
     21          1           0       -6.260379   -1.846555   -6.983070
     22          1           0       -7.486238   -2.701013   -7.950526
     23          8           0       -6.363019   -2.865420   -3.728576
     24          7           0       -5.379803   -4.500791   -4.951626
     25          1           0       -5.329002   -5.047785   -5.808345
     26          6           0       -4.302218   -4.805772   -4.006716
     27          1           0       -4.684336   -4.651162   -2.993758
     28          6           0       -3.098500   -3.871396   -4.278320
     29          6           0       -3.887578   -6.280157   -4.238815
     30          1           0       -2.955862   -6.449469   -3.682498
     31          8           0       -2.187734   -4.217786   -5.037354
     32          6           0       -4.939761   -7.280799   -3.781398
     33          1           0       -5.107039   -7.205568   -2.701519
     34          1           0       -5.894344   -7.119847   -4.294017
     35          1           0       -4.599618   -8.294097   -4.011373
     36          8           0       -3.671006   -6.465530   -5.634719
     37          1           0       -2.896776   -5.899937   -5.837833
     38          7           0       -3.148726   -2.679329   -3.652415
     39          1           0       -3.910078   -2.465476   -3.015242
     40          6           0       -2.080019   -1.682760   -3.694136
     41          1           0       -1.168575   -2.197512   -4.014389
     42          6           0       -1.965870   -1.165860   -2.247824
     43          6           0       -2.389146   -0.517441   -4.677889
     44          1           0       -3.297389   -0.026689   -4.299954
     45          8           0       -2.989193   -0.936571   -1.599038
     46          6           0       -1.252146    0.516300   -4.696392
     47          1           0       -0.309580    0.061502   -5.027648
     48          1           0       -1.082450    0.968546   -3.714678
     49          1           0       -1.488241    1.324553   -5.396560
     50          6           0       -2.663619   -1.037164   -6.095972
     51          1           0       -1.792490   -1.562578   -6.502850
     52          1           0       -3.509128   -1.732092   -6.117660
     53          1           0       -2.896746   -0.200497   -6.764322
     54          7           0       -0.716807   -0.992345   -1.768701
     55          1           0        0.099977   -1.162940   -2.345130
     56          6           0       -0.439082   -0.436441   -0.448861
     57          1           0       -1.194455    0.329596   -0.249685
     58          6           0        0.949741    0.204726   -0.546753
     59          6           0       -0.536768   -1.530059    0.667276
     60          1           0       -1.532978   -1.965450    0.510675
     61          8           0        1.776903   -0.193859   -1.373323
     62          6           0       -0.499957   -0.962611    2.102150
     63          1           0        0.495505   -0.551014    2.311806
     64          1           0       -0.605284   -1.818334    2.781380
     65          6           0        0.517707   -2.632929    0.495385
     66          1           0        1.527129   -2.260975    0.699119
     67          1           0        0.504160   -3.054168   -0.515381
     68          1           0        0.318772   -3.451502    1.195743
     69          6           0       -1.598266    0.055034    2.442096
     70          1           0       -1.580978    0.299121    3.509731
     71          1           0       -1.496411    1.003553    1.897202
     72          1           0       -2.593204   -0.339800    2.204348
     73          7           0        1.210051    1.232030    0.300909
     74          1           0        0.577655    1.384301    1.075525
     75          6           0        2.569454    1.733052    0.419894
     76          1           0        2.910631    2.006866   -0.581625
     77          6           0        3.490290    0.621176    0.986775
     78          6           0        2.624079    2.998571    1.305792
     79          1           0        1.978264    3.767539    0.871090
     80          1           0        2.303010    2.775549    2.327265
     81          8           0        3.073073   -0.214314    1.779036
     82          6           0        4.069460    3.473435    1.282023
     83          8           0        4.615429    3.851741    0.264977
     84          8           0        4.691233    3.285202    2.452449
     85          7           0        4.765243    0.652807    0.505152
     86          1           0        5.073131    1.483615    0.008757
     87          6           0        5.818773   -0.209339    1.013285
     88          1           0        5.336851   -0.933226    1.676027
     89          6           0        6.835560    0.630826    1.817562
     90          6           0        6.508500   -0.956729   -0.161566
     91          1           0        7.417893   -1.442723    0.208310
     92          1           0        6.840765   -0.201042   -0.889023
     93          8           0        6.923442    1.856725    1.685748
     94          6           0        5.663997   -2.011227   -0.806537
     95          6           0        5.918122   -3.348228   -1.019922
     96          1           0        6.809385   -3.898253   -0.744396
     97          7           0        4.408883   -1.806564   -1.355917
     98          1           0        3.850265   -0.960885   -1.332289
     99          6           0        3.984140   -3.006884   -1.846040
    100          1           0        3.018252   -3.119063   -2.319680
    101          7           0        4.871775   -3.962258   -1.668152
    102          7           0        7.638011   -0.079115    2.634626
    103          1           0        7.543021   -1.084405    2.736513
    104          6           0        8.693463    0.519215    3.445486
    105          1           0        9.128298    1.341216    2.870630
    106          6           0        9.726628   -0.591917    3.677398
    107          6           0        8.119383    1.055333    4.784488
    108          1           0        7.252181    1.674563    4.522292
    109          1           0        7.735619    0.194440    5.347657
    110          8           0        9.362324   -1.775876    3.718270
    111          6           0        9.070218    1.880378    5.676266
    112          1           0        9.958354    1.279426    5.912113
    113          6           0        9.541474    3.174756    4.993874
    114          1           0        8.688297    3.813622    4.731768
    115          1           0       10.196835    3.743762    5.661485
    116          1           0       10.106442    2.990750    4.071684
    117          6           0        8.369318    2.202206    7.005688
    118          1           0        7.471600    2.812132    6.840790
    119          1           0        9.035716    2.761126    7.671535
    120          1           0        8.062204    1.288682    7.528300
    121          7           0       11.009391   -0.195244    3.828150
    122          1           0       11.216702    0.791317    3.950423
    123          6           0       12.047876   -1.097149    4.310195
    124          1           0       11.534697   -2.000403    4.616139
    125          6           0       12.713279   -0.469585    5.547375
    126          6           0       13.108767   -1.410773    3.225287
    127          1           0       14.018641   -1.775373    3.716509
    128          1           0       13.378605   -0.458103    2.753623
    129          8           0       12.678137    0.731629    5.735905
    130          6           0       12.671987   -2.415614    2.140369
    131          1           0       11.639038   -2.210477    1.830730
    132          1           0       13.297856   -2.252402    1.252954
    133          6           0       12.812184   -3.909222    2.503305
    134          1           0       12.678834   -4.510032    1.597699
    135          1           0       13.831175   -4.114233    2.850229
    136          7           0       11.866669   -4.427756    3.489465
    137          1           0       10.932749   -4.615231    3.147914
    138          7           0       13.038125   -3.926206    5.512893
    139          1           0       13.213004   -2.284143    6.112843
    140          1           0       13.873068   -4.149692    4.972026
    141          7           0       10.729333   -4.172735    5.480365
    142          1           0       10.806920   -4.005800    6.476368
    143          1           0        9.988642   -3.642722    5.027184
    144          6           0       11.951788   -4.169518    4.835933
    145          8           0       13.342690   -1.309351    6.360023
    146          1           0        5.658085    3.248333    2.265562
 ---------------------------------------------------------------------

 SCF Done:  E(RB3LYP) =  -3503.38471586     A.U. after    2 cycles

 Alpha  occ. eigenvalues --  -19.28508 -19.27311 -19.24612 -19.23970 -19.21797
 Alpha  occ. eigenvalues --  -19.20590 -19.20345 -19.20088 -19.18985 -19.18726
 Alpha  occ. eigenvalues --  -19.18428 -19.18148 -19.18064 -19.16442 -14.61780
 Alpha  occ. eigenvalues --  -14.50768 -14.47757 -14.44286 -14.44015 -14.43238
 Alpha  occ. eigenvalues --  -14.42343 -14.42125 -14.42086 -14.41589 -14.40574
 Alpha  occ. eigenvalues --  -14.39135 -14.34263 -14.33964 -10.44933 -10.41530
 Alpha  occ. eigenvalues --  -10.41251 -10.39157 -10.37563 -10.37443 -10.36734
 Alpha  occ. eigenvalues --  -10.36558 -10.35958 -10.35292 -10.35238 -10.35155
 Alpha  occ. eigenvalues --  -10.34892 -10.33983 -10.32623 -10.32286 -10.30982
 Alpha  occ. eigenvalues --  -10.30672 -10.30297 -10.30250 -10.29494 -10.29130
 Alpha  occ. eigenvalues --  -10.28071 -10.27819 -10.27158 -10.26826 -10.26707
 Alpha  occ. eigenvalues --  -10.25807 -10.25477 -10.25399 -10.25301 -10.24423
 Alpha  occ. eigenvalues --  -10.24379 -10.24275 -10.24106 -10.23774 -10.23714
 Alpha  occ. eigenvalues --  -10.23558 -10.23141 -10.22693 -10.22277 -10.21325
 Alpha  occ. eigenvalues --  -10.21015  -1.20945  -1.16184  -1.15786  -1.15355
 Alpha  occ. eigenvalues --   -1.14843  -1.12391  -1.12054  -1.11999  -1.10577
 Alpha  occ. eigenvalues --   -1.10304  -1.09872  -1.09340  -1.09262  -1.07682
 Alpha  occ. eigenvalues --   -1.06499  -1.04099  -1.03997  -1.03810  -1.03206
 Alpha  occ. eigenvalues --   -1.00597  -1.00426  -0.99614  -0.98931  -0.98627
 Alpha  occ. eigenvalues --   -0.98410  -0.93929  -0.93137  -0.89706  -0.89702
 Alpha  occ. eigenvalues --   -0.89340  -0.88234  -0.87262  -0.86372  -0.85760
 Alpha  occ. eigenvalues --   -0.85696  -0.84533  -0.83977  -0.81263  -0.81249
 Alpha  occ. eigenvalues --   -0.80693  -0.80280  -0.78745  -0.78185  -0.77453
 Alpha  occ. eigenvalues --   -0.77063  -0.76452  -0.75613  -0.75201  -0.74020
 Alpha  occ. eigenvalues --   -0.73803  -0.73232  -0.72777  -0.72070  -0.71270
 Alpha  occ. eigenvalues --   -0.71077  -0.69966  -0.69157  -0.68643  -0.67838
 Alpha  occ. eigenvalues --   -0.67436  -0.66637  -0.66369  -0.66229  -0.66021
 Alpha  occ. eigenvalues --   -0.65866  -0.65491  -0.64811  -0.64706  -0.64167
 Alpha  occ. eigenvalues --   -0.63875  -0.63694  -0.63491  -0.62967  -0.62638
 Alpha  occ. eigenvalues --   -0.62575  -0.61984  -0.61744  -0.61271  -0.60801
 Alpha  occ. eigenvalues --   -0.60330  -0.60007  -0.59574  -0.59378  -0.58895
 Alpha  occ. eigenvalues --   -0.58115  -0.57252  -0.57165  -0.56829  -0.56703
 Alpha  occ. eigenvalues --   -0.56304  -0.55929  -0.55599  -0.55416  -0.54906
 Alpha  occ. eigenvalues --   -0.54603  -0.54445  -0.54172  -0.54096  -0.53823
 Alpha  occ. eigenvalues --   -0.53732  -0.53096  -0.52993  -0.52802  -0.52533
 Alpha  occ. eigenvalues --   -0.52055  -0.51825  -0.51678  -0.51631  -0.51372
 Alpha  occ. eigenvalues --   -0.50968  -0.50728  -0.50498  -0.50227  -0.50082
 Alpha  occ. eigenvalues --   -0.49684  -0.49612  -0.49504  -0.49047  -0.48838
 Alpha  occ. eigenvalues --   -0.48586  -0.48440  -0.48354  -0.48184  -0.47918
 Alpha  occ. eigenvalues --   -0.47688  -0.47522  -0.47325  -0.47206  -0.47091
 Alpha  occ. eigenvalues --   -0.46648  -0.46441  -0.46378  -0.46203  -0.45994
 Alpha  occ. eigenvalues --   -0.45955  -0.45689  -0.45621  -0.45435  -0.45336
 Alpha  occ. eigenvalues --   -0.45151  -0.45093  -0.44739  -0.44501  -0.44497
 Alpha  occ. eigenvalues --   -0.44275  -0.44048  -0.43819  -0.43637  -0.43274
 Alpha  occ. eigenvalues --   -0.43150  -0.43038  -0.42754  -0.42399  -0.42326
 Alpha  occ. eigenvalues --   -0.42204  -0.42053  -0.41876  -0.41781  -0.41635
 Alpha  occ. eigenvalues --   -0.41284  -0.41062  -0.40978  -0.40779  -0.40621
 Alpha  occ. eigenvalues --   -0.40364  -0.40205  -0.40035  -0.39628  -0.39087
 Alpha  occ. eigenvalues --   -0.38867  -0.38700  -0.38271  -0.38115  -0.38004
 Alpha  occ. eigenvalues --   -0.37705  -0.36878  -0.36649  -0.36601  -0.35326
 Alpha  occ. eigenvalues --   -0.34706  -0.34293  -0.33774  -0.33668  -0.33219
 Alpha  occ. eigenvalues --   -0.33172  -0.33065  -0.32796  -0.32509  -0.32221
 Alpha  occ. eigenvalues --   -0.32000  -0.31947  -0.31658  -0.31135  -0.30926
 Alpha  occ. eigenvalues --   -0.30871  -0.30701  -0.29836  -0.29540  -0.27985
 Alpha  occ. eigenvalues --   -0.25427
 Alpha virt. eigenvalues --   -0.14032  -0.12700  -0.10185  -0.07610  -0.06846
 Alpha virt. eigenvalues --   -0.06281  -0.05455  -0.04791  -0.04746  -0.04531
 Alpha virt. eigenvalues --   -0.03973  -0.03608  -0.03167  -0.02131  -0.02092

 Mulliken charges:
               1
     1  N   -0.760480
     2  H    0.435761
     3  H    0.418360
     4  H    0.423228
     5  C   -0.134173
     6  H    0.228334
     7  C    0.639960
     8  C   -0.040006
     9  H    0.172251
    10  H    0.181301
    11  O   -0.526768
    12  O   -0.625554
    13  H    0.456782
    14  N   -0.567368
    15  H    0.360603
    16  C   -0.096052
    17  H    0.214431
    18  C    0.660840
    19  C   -0.470492
    20  H    0.189378
    21  H    0.177965
    22  H    0.191491
    23  O   -0.580112
    24  N   -0.589575
    25  H    0.363049
    26  C   -0.084172
    27  H    0.178295
    28  C    0.642459
    29  C    0.108676
    30  H    0.158912
    31  O   -0.543732
    32  C   -0.451420
    33  H    0.150679
    34  H    0.143797
    35  H    0.185127
    36  O   -0.648011
    37  H    0.427536
    38  N   -0.610745
    39  H    0.360190
    40  C   -0.045731
    41  H    0.174880
    42  C    0.623727
    43  C   -0.071781
    44  H    0.137781
    45  O   -0.556289
    46  C   -0.463694
    47  H    0.153046
    48  H    0.157626
    49  H    0.158808
    50  C   -0.449702
    51  H    0.168634
    52  H    0.129943
    53  H    0.148666
    54  N   -0.614495
    55  H    0.357186
    56  C   -0.064345
    57  H    0.178878
    58  C    0.651089
    59  C   -0.073387
    60  H    0.150228
    61  O   -0.562096
    62  C   -0.290657
    63  H    0.168722
    64  H    0.148865
    65  C   -0.474317
    66  H    0.186836
    67  H    0.140453
    68  H    0.151314
    69  C   -0.463702
    70  H    0.159504
    71  H    0.126807
    72  H    0.158151
    73  N   -0.611013
    74  H    0.353117
    75  C   -0.057000
    76  H    0.198921
    77  C    0.609397
    78  C   -0.352733
    79  H    0.191535
    80  H    0.183964
    81  O   -0.516427
    82  C    0.563825
    83  O   -0.464149
    84  O   -0.565832
    85  N   -0.602049
    86  H    0.361032
    87  C   -0.084662
    88  H    0.200750
    89  C    0.643263
    90  C   -0.359421
    91  H    0.164496
    92  H    0.167065
    93  O   -0.567797
    94  C    0.336041
    95  C   -0.084604
    96  H    0.123617
    97  N   -0.619702
    98  H    0.369690
    99  C    0.205280
   100  H    0.142353
   101  N   -0.426549
   102  N   -0.607812
   103  H    0.355059
   104  C   -0.055295
   105  H    0.182070
   106  C    0.623230
   107  C   -0.253987
   108  H    0.156315
   109  H    0.144144
   110  O   -0.572278
   111  C   -0.101034
   112  H    0.150548
   113  C   -0.447691
   114  H    0.145412
   115  H    0.164602
   116  H    0.132223
   117  C   -0.444604
   118  H    0.141580
   119  H    0.156934
   120  H    0.143249
   121  N   -0.597090
   122  H    0.360318
   123  C   -0.097957
   124  H    0.179663
   125  C    0.608321
   126  C   -0.264189
   127  H    0.154855
   128  H    0.158746
   129  O   -0.479529
   130  C   -0.263218
   131  H    0.152063
   132  H    0.150352
   133  C   -0.157386
   134  H    0.163803
   135  H    0.159150
   136  N   -0.562507
   137  H    0.334257
   138  N   -0.719035
   139  H    0.460870
   140  H    0.295039
   141  N   -0.745076
   142  H    0.345791
   143  H    0.356713
   144  C    0.597379
   145  O   -0.597906
   146  H    0.449812
 Sum of Mulliken charges =   1.00000

 Dipole moment (field-independent basis, Debye):
    X=            -38.6564    Y=             -9.7579    Z=            -14.9428  Tot=             42.5772
 Quadrupole moment (field-independent basis, Debye-Ang):
   XX=             72.2078   YY=           -409.5775   ZZ=           -368.5262
   XY=             78.6798   XZ=            126.6601   YZ=             26.5282

 Normal termination of Gaussian 16 at Sun Jun 19 12:04:23 2022.
