 Gaussian 16, Revision C.01,
 Gaussian 16:  ES64L-G16RevC.01  3-Jul-2019

 -------------------------------------------------------------------
 # B3LYP/6-31G* guess=read geom=check nosymm integral(ultrafinegrid)
 -------------------------------------------------------------------

 ------------------------------------------------------
 Candidate Structure: Conf:474 Charge calc in gas phase
 ------------------------------------------------------
 Structure from the checkpoint file:  "conf-474.chk"
 Charge =  1 Multiplicity = 1

                          Input orientation:
 ---------------------------------------------------------------------
 Center     Atomic      Atomic             Coordinates (Angstroms)
 Number     Number       Type             X           Y           Z
 ---------------------------------------------------------------------
      1          7           0       -6.325734    1.836836  -11.463787
      2          1           0       -6.624823    1.785630  -12.441764
      3          1           0       -7.183425    1.823956  -10.831142
      4          1           0       -5.793588    2.703324  -11.332854
      5          6           0       -5.584669    0.605625  -10.994580
      6          1           0       -5.302698    0.002571  -11.859773
      7          6           0       -6.613781   -0.098855  -10.085196
      8          6           0       -4.309652    1.000446  -10.186663
      9          1           0       -4.602412    1.699177   -9.388814
     10          1           0       -3.616834    1.513491  -10.865667
     11          8           0       -7.625134    0.536777   -9.759557
     12          8           0       -3.685954   -0.142700   -9.687377
     13          1           0       -4.054005   -0.305580   -8.782760
     14          7           0       -6.298794   -1.338821   -9.691485
     15          1           0       -5.353443   -1.636281   -9.920277
     16          6           0       -6.852083   -1.902448   -8.458425
     17          1           0       -7.920771   -1.669530   -8.445046
     18          6           0       -6.156732   -1.204239   -7.258468
     19          6           0       -6.631026   -3.420402   -8.430207
     20          1           0       -7.097053   -3.858998   -7.544821
     21          1           0       -5.563034   -3.659873   -8.387104
     22          1           0       -7.070500   -3.884050   -9.318022
     23          8           0       -5.182532   -0.453646   -7.421560
     24          7           0       -6.666895   -1.489865   -6.056915
     25          1           0       -7.525191   -2.023382   -5.959332
     26          6           0       -6.019433   -1.150593   -4.798092
     27          1           0       -6.093883   -0.069059   -4.621491
     28          6           0       -4.536772   -1.597551   -4.837641
     29          6           0       -6.762132   -1.937185   -3.671424
     30          1           0       -6.413089   -2.973591   -3.724546
     31          8           0       -4.217684   -2.641302   -5.395547
     32          6           0       -6.512896   -1.360756   -2.283037
     33          1           0       -5.447480   -1.309467   -2.038677
     34          1           0       -6.916065   -0.341028   -2.209757
     35          1           0       -7.010645   -1.980083   -1.531440
     36          8           0       -8.160742   -2.022212   -3.965333
     37          1           0       -8.581519   -1.194710   -3.677664
     38          7           0       -3.684131   -0.775675   -4.182009
     39          1           0       -4.055882   -0.044239   -3.582505
     40          6           0       -2.325543   -1.162867   -3.826492
     41          1           0       -2.246898   -2.247089   -3.961896
     42          6           0       -2.154802   -0.807071   -2.334500
     43          6           0       -1.243600   -0.474976   -4.712265
     44          1           0       -0.272405   -0.847303   -4.356963
     45          8           0       -2.985480   -0.101066   -1.756558
     46          6           0       -1.400320   -0.891638   -6.181202
     47          1           0       -2.346931   -0.523787   -6.592734
     48          1           0       -1.389548   -1.980591   -6.296851
     49          1           0       -0.584346   -0.473587   -6.781708
     50          6           0       -1.241674    1.052555   -4.557777
     51          1           0       -2.203668    1.479422   -4.866907
     52          1           0       -1.038672    1.366493   -3.529120
     53          1           0       -0.461542    1.494757   -5.186157
     54          7           0       -1.048694   -1.311600   -1.741445
     55          1           0       -0.323273   -1.714613   -2.328252
     56          6           0       -0.527365   -0.793672   -0.480391
     57          1           0       -1.099076    0.109654   -0.243603
     58          6           0        0.940122   -0.415319   -0.752704
     59          6           0       -0.666317   -1.787072    0.711362
     60          1           0       -0.192435   -1.292523    1.572546
     61          8           0        1.556337   -0.883992   -1.712582
     62          6           0        0.083057   -3.112424    0.461744
     63          1           0        1.091194   -2.894937    0.086541
     64          1           0       -0.428949   -3.661148   -0.341470
     65          6           0       -2.149564   -2.001283    1.046376
     66          1           0       -2.663569   -2.518265    0.227779
     67          1           0       -2.663364   -1.048088    1.211164
     68          1           0       -2.262598   -2.605655    1.951206
     69          6           0        0.205707   -4.005291    1.703242
     70          1           0        0.768173   -4.914710    1.461967
     71          1           0        0.734730   -3.493907    2.516450
     72          1           0       -0.773124   -4.321201    2.080639
     73          7           0        1.488815    0.443918    0.134102
     74          1           0        0.980893    0.755557    0.956313
     75          6           0        2.891093    0.815087    0.123240
     76          1           0        3.460920    0.001361   -0.334338
     77          6           0        3.292533    1.010191    1.597437
     78          6           0        3.143914    2.124513   -0.674728
     79          1           0        2.516055    2.921438   -0.269710
     80          1           0        4.197156    2.408945   -0.575524
     81          8           0        2.446499    1.343766    2.427118
     82          6           0        2.809868    1.945296   -2.141764
     83          8           0        1.788493    2.306239   -2.682660
     84          8           0        3.805845    1.298997   -2.791003
     85          7           0        4.592829    0.777711    1.881127
     86          1           0        5.272902    0.690301    1.131841
     87          6           0        5.181138    1.020271    3.188008
     88          1           0        4.425638    1.519541    3.799879
     89          6           0        6.415607    1.918910    2.964063
     90          6           0        5.643797   -0.291402    3.872949
     91          1           0        6.090581   -0.019792    4.840423
     92          1           0        6.461054   -0.708751    3.267904
     93          8           0        7.032050    1.855676    1.897845
     94          6           0        4.570500   -1.324317    4.048180
     95          6           0        3.200524   -1.278089    4.173187
     96          1           0        2.564332   -0.405774    4.129571
     97          7           0        4.877161   -2.673117    4.140562
     98          1           0        5.802969   -3.075081    4.095818
     99          6           0        3.705526   -3.355157    4.310318
    100          1           0        3.671267   -4.431961    4.409612
    101          7           0        2.671984   -2.543235    4.330372
    102          7           0        6.770242    2.696262    4.002852
    103          1           0        6.234983    2.728626    4.866578
    104          6           0        7.962210    3.537981    4.018245
    105          1           0        8.775366    2.987065    3.536506
    106          6           0        8.272404    3.774085    5.507518
    107          6           0        7.705665    4.865439    3.257233
    108          1           0        7.275342    4.586954    2.287050
    109          1           0        6.930418    5.416651    3.806257
    110          8           0        7.368799    3.697332    6.350724
    111          6           0        8.922208    5.782475    3.012261
    112          1           0        9.387239    6.032085    3.974985
    113          6           0        9.990743    5.117427    2.129731
    114          1           0        9.570705    4.825187    1.158662
    115          1           0       10.822018    5.806936    1.947414
    116          1           0       10.417854    4.218146    2.588238
    117          6           0        8.446852    7.098437    2.376199
    118          1           0        7.977095    6.917262    1.400463
    119          1           0        9.288245    7.782666    2.219091
    120          1           0        7.712429    7.608648    3.011002
    121          7           0        9.547956    4.066977    5.811685
    122          1           0       10.246762    4.275815    5.097682
    123          6           0        9.954270    4.553175    7.121481
    124          1           0        9.205367    5.284000    7.456519
    125          6           0       11.289798    5.341543    6.906355
    126          6           0       10.024439    3.410469    8.184924
    127          1           0       11.062760    3.252061    8.503956
    128          1           0        9.713725    2.489606    7.684850
    129          8           0       11.810208    5.831655    7.975636
    130          6           0        9.106975    3.613024    9.412492
    131          1           0        8.179976    4.092635    9.078651
    132          1           0        8.821233    2.635838    9.820754
    133          6           0        9.727822    4.405844   10.578753
    134          1           0        8.945053    4.666706   11.302343
    135          1           0       10.460349    3.780161   11.105560
    136          7           0       10.408480    5.604206   10.104378
    137          1           0       11.030030    5.527552    9.210547
    138          7           0        9.756420    7.187077   11.729460
    139          1           0        9.373467    8.118167   11.815162
    140          1           0        9.299042    6.474248   12.277980
    141          7           0       10.855187    7.827083    9.778778
    142          1           0       11.239115    8.637316   10.245721
    143          1           0       11.349118    7.500156    8.940183
    144          6           0       10.329752    6.838257   10.546216
    145          8           0       11.716457    5.453385    5.753464
    146          1           0        3.485796    1.137077   -3.697917
 ---------------------------------------------------------------------

 SCF Done:  E(RB3LYP) =  -3503.37693989     A.U. after    2 cycles

 Alpha  occ. eigenvalues --  -19.27254 -19.25850 -19.23647 -19.23637 -19.22720
 Alpha  occ. eigenvalues --  -19.18041 -19.17936 -19.17555 -19.17133 -19.16854
 Alpha  occ. eigenvalues --  -19.15758 -19.14990 -19.12763 -19.11652 -14.60588
 Alpha  occ. eigenvalues --  -14.49355 -14.45637 -14.44632 -14.42445 -14.42180
 Alpha  occ. eigenvalues --  -14.42046 -14.41552 -14.41247 -14.41026 -14.41004
 Alpha  occ. eigenvalues --  -14.39908 -14.38192 -14.34261 -10.43622 -10.40284
 Alpha  occ. eigenvalues --  -10.39393 -10.39319 -10.37857 -10.36380 -10.35453
 Alpha  occ. eigenvalues --  -10.34899 -10.34381 -10.34310 -10.33851 -10.32976
 Alpha  occ. eigenvalues --  -10.32491 -10.31811 -10.31500 -10.30078 -10.29403
 Alpha  occ. eigenvalues --  -10.28812 -10.28739 -10.28450 -10.28373 -10.27787
 Alpha  occ. eigenvalues --  -10.27019 -10.26698 -10.25377 -10.25294 -10.25183
 Alpha  occ. eigenvalues --  -10.25112 -10.25091 -10.24913 -10.23557 -10.23390
 Alpha  occ. eigenvalues --  -10.22388 -10.22299 -10.22257 -10.21974 -10.21552
 Alpha  occ. eigenvalues --  -10.21494 -10.21438 -10.20985 -10.19834 -10.19830
 Alpha  occ. eigenvalues --  -10.19567  -1.19680  -1.14584  -1.14508  -1.14489
 Alpha  occ. eigenvalues --   -1.13373  -1.10992  -1.10025  -1.09473  -1.09088
 Alpha  occ. eigenvalues --   -1.08348  -1.08111  -1.07685  -1.06594  -1.06275
 Alpha  occ. eigenvalues --   -1.05531  -1.05304  -1.04365  -1.02028  -0.98707
 Alpha  occ. eigenvalues --   -0.98111  -0.97966  -0.97798  -0.97552  -0.96687
 Alpha  occ. eigenvalues --   -0.96336  -0.96056  -0.94648  -0.91760  -0.90082
 Alpha  occ. eigenvalues --   -0.88242  -0.86477  -0.85536  -0.84829  -0.84365
 Alpha  occ. eigenvalues --   -0.83964  -0.83478  -0.82833  -0.79937  -0.79377
 Alpha  occ. eigenvalues --   -0.79211  -0.78392  -0.77729  -0.76380  -0.76075
 Alpha  occ. eigenvalues --   -0.75100  -0.74855  -0.74456  -0.73167  -0.72985
 Alpha  occ. eigenvalues --   -0.72565  -0.71928  -0.71769  -0.70563  -0.70448
 Alpha  occ. eigenvalues --   -0.70034  -0.69641  -0.68912  -0.68059  -0.66769
 Alpha  occ. eigenvalues --   -0.65974  -0.65584  -0.65169  -0.65086  -0.64900
 Alpha  occ. eigenvalues --   -0.64817  -0.64677  -0.64519  -0.63975  -0.63325
 Alpha  occ. eigenvalues --   -0.62537  -0.62302  -0.61758  -0.61484  -0.61457
 Alpha  occ. eigenvalues --   -0.61222  -0.60905  -0.60549  -0.60092  -0.59502
 Alpha  occ. eigenvalues --   -0.59325  -0.58979  -0.58033  -0.57649  -0.57383
 Alpha  occ. eigenvalues --   -0.57372  -0.56944  -0.56091  -0.55733  -0.55513
 Alpha  occ. eigenvalues --   -0.54528  -0.54288  -0.54074  -0.53845  -0.53408
 Alpha  occ. eigenvalues --   -0.53310  -0.53113  -0.52766  -0.52692  -0.52597
 Alpha  occ. eigenvalues --   -0.52444  -0.51728  -0.51553  -0.51408  -0.51327
 Alpha  occ. eigenvalues --   -0.51128  -0.50592  -0.50503  -0.50297  -0.50171
 Alpha  occ. eigenvalues --   -0.50012  -0.49443  -0.49153  -0.48998  -0.48779
 Alpha  occ. eigenvalues --   -0.48531  -0.48428  -0.48295  -0.48069  -0.47856
 Alpha  occ. eigenvalues --   -0.47646  -0.47111  -0.47039  -0.46714  -0.46568
 Alpha  occ. eigenvalues --   -0.46548  -0.46382  -0.46144  -0.46106  -0.45739
 Alpha  occ. eigenvalues --   -0.45350  -0.45073  -0.44972  -0.44919  -0.44634
 Alpha  occ. eigenvalues --   -0.44337  -0.44286  -0.44079  -0.43948  -0.43704
 Alpha  occ. eigenvalues --   -0.43639  -0.43479  -0.43445  -0.43377  -0.43165
 Alpha  occ. eigenvalues --   -0.42648  -0.42599  -0.42528  -0.42452  -0.42201
 Alpha  occ. eigenvalues --   -0.41813  -0.41621  -0.41280  -0.41192  -0.40793
 Alpha  occ. eigenvalues --   -0.40718  -0.40460  -0.40426  -0.40339  -0.39948
 Alpha  occ. eigenvalues --   -0.39358  -0.39262  -0.39260  -0.39169  -0.38920
 Alpha  occ. eigenvalues --   -0.38638  -0.38579  -0.38357  -0.38320  -0.37051
 Alpha  occ. eigenvalues --   -0.37048  -0.36915  -0.36234  -0.36184  -0.35867
 Alpha  occ. eigenvalues --   -0.35813  -0.35523  -0.35374  -0.35159  -0.35141
 Alpha  occ. eigenvalues --   -0.34944  -0.32457  -0.32236  -0.32013  -0.31925
 Alpha  occ. eigenvalues --   -0.31752  -0.31545  -0.31395  -0.31006  -0.30814
 Alpha  occ. eigenvalues --   -0.30146  -0.30025  -0.29695  -0.29605  -0.29223
 Alpha  occ. eigenvalues --   -0.28747  -0.28665  -0.27974  -0.27024  -0.25763
 Alpha  occ. eigenvalues --   -0.25396
 Alpha virt. eigenvalues --   -0.12733  -0.11637  -0.08278  -0.06533  -0.04683
 Alpha virt. eigenvalues --   -0.04640  -0.04412  -0.03498  -0.03456  -0.02600
 Alpha virt. eigenvalues --   -0.02205  -0.01817  -0.01680  -0.01184  -0.00871

 Mulliken charges:
               1
     1  N   -0.761239
     2  H    0.420610
     3  H    0.434365
     4  H    0.416353
     5  C   -0.134826
     6  H    0.225845
     7  C    0.641711
     8  C   -0.038889
     9  H    0.171187
    10  H    0.176482
    11  O   -0.532149
    12  O   -0.629880
    13  H    0.465113
    14  N   -0.567360
    15  H    0.361362
    16  C   -0.103577
    17  H    0.204830
    18  C    0.683062
    19  C   -0.463630
    20  H    0.187357
    21  H    0.189909
    22  H    0.181011
    23  O   -0.576418
    24  N   -0.611433
    25  H    0.362969
    26  C   -0.040175
    27  H    0.155371
    28  C    0.634620
    29  C    0.101354
    30  H    0.181398
    31  O   -0.541130
    32  C   -0.495927
    33  H    0.194157
    34  H    0.144189
    35  H    0.182567
    36  O   -0.628686
    37  H    0.400561
    38  N   -0.599616
    39  H    0.351351
    40  C   -0.076219
    41  H    0.183923
    42  C    0.625788
    43  C   -0.080927
    44  H    0.145939
    45  O   -0.551715
    46  C   -0.453438
    47  H    0.151891
    48  H    0.155386
    49  H    0.142617
    50  C   -0.459211
    51  H    0.134871
    52  H    0.177165
    53  H    0.153654
    54  N   -0.595928
    55  H    0.357625
    56  C   -0.085456
    57  H    0.180643
    58  C    0.644923
    59  C   -0.073390
    60  H    0.140458
    61  O   -0.560554
    62  C   -0.268632
    63  H    0.146994
    64  H    0.130034
    65  C   -0.452697
    66  H    0.145442
    67  H    0.151640
    68  H    0.157871
    69  C   -0.469058
    70  H    0.138694
    71  H    0.186398
    72  H    0.142047
    73  N   -0.608000
    74  H    0.359326
    75  C   -0.068607
    76  H    0.199124
    77  C    0.632994
    78  C   -0.329186
    79  H    0.185700
    80  H    0.183564
    81  O   -0.537795
    82  C    0.587822
    83  O   -0.466296
    84  O   -0.557326
    85  N   -0.588964
    86  H    0.352417
    87  C   -0.078700
    88  H    0.190029
    89  C    0.630465
    90  C   -0.357652
    91  H    0.172683
    92  H    0.157128
    93  O   -0.550517
    94  C    0.335459
    95  C   -0.097715
    96  H    0.164051
    97  N   -0.610058
    98  H    0.332076
    99  C    0.208506
   100  H    0.157656
   101  N   -0.431424
   102  N   -0.618432
   103  H    0.353877
   104  C   -0.050754
   105  H    0.175910
   106  C    0.607626
   107  C   -0.254599
   108  H    0.157671
   109  H    0.138425
   110  O   -0.562466
   111  C   -0.093597
   112  H    0.146627
   113  C   -0.446310
   114  H    0.143838
   115  H    0.156125
   116  H    0.142427
   117  C   -0.444121
   118  H    0.137793
   119  H    0.149209
   120  H    0.138491
   121  N   -0.624949
   122  H    0.369630
   123  C   -0.050743
   124  H    0.157108
   125  C    0.605662
   126  C   -0.292211
   127  H    0.158429
   128  H    0.166796
   129  O   -0.644993
   130  C   -0.276044
   131  H    0.175662
   132  H    0.147766
   133  C   -0.154921
   134  H    0.136091
   135  H    0.174546
   136  N   -0.615115
   137  H    0.445919
   138  N   -0.755748
   139  H    0.361469
   140  H    0.363374
   141  N   -0.775296
   142  H    0.348825
   143  H    0.402311
   144  C    0.744537
   145  O   -0.534566
   146  H    0.412380
 Sum of Mulliken charges =   1.00000

 Dipole moment (field-independent basis, Debye):
    X=            -16.7966    Y=              9.6871    Z=            -25.0949  Tot=             31.7131
 Quadrupole moment (field-independent basis, Debye-Ang):
   XX=           -212.7536   YY=           -325.2317   ZZ=            266.1443
   XY=             20.6542   XZ=            408.3702   YZ=             59.7136

 Normal termination of Gaussian 16 at Sun Jun 19 12:04:36 2022.
