 Gaussian 16, Revision C.01,
 Gaussian 16:  ES64L-G16RevC.01  3-Jul-2019

 -------------------------------------------------------------------
 # B3LYP/6-31G* guess=read geom=check nosymm integral(ultrafinegrid)
 -------------------------------------------------------------------

 ------------------------------------------------------
 Candidate Structure: Conf:334 Charge calc in gas phase
 ------------------------------------------------------
 Structure from the checkpoint file:  "conf-334.chk"
 Charge =  1 Multiplicity = 1

                          Input orientation:
 ---------------------------------------------------------------------
 Center     Atomic      Atomic             Coordinates (Angstroms)
 Number     Number       Type             X           Y           Z
 ---------------------------------------------------------------------
      1          7           0      -10.187678    0.040825   -1.241121
      2          1           0      -11.005569    0.651793   -1.158117
      3          1           0      -10.410915   -0.753572   -1.912611
      4          1           0       -9.964025   -0.326823   -0.310356
      5          6           0       -9.009994    0.701488   -1.920974
      6          1           0       -9.181961    1.778360   -1.971976
      7          6           0       -8.985435    0.035995   -3.313445
      8          6           0       -7.687453    0.414133   -1.145632
      9          1           0       -7.591103   -0.672251   -1.002182
     10          1           0       -7.752733    0.892904   -0.160664
     11          8           0       -9.690084   -0.965455   -3.487822
     12          8           0       -6.602667    0.956074   -1.837270
     13          1           0       -6.243461    0.248701   -2.426033
     14          7           0       -8.160335    0.588697   -4.213216
     15          1           0       -7.532469    1.298243   -3.843521
     16          6           0       -7.649829   -0.186818   -5.344058
     17          1           0       -8.481204   -0.788358   -5.721922
     18          6           0       -6.546878   -1.144337   -4.813026
     19          6           0       -7.135140    0.754130   -6.440589
     20          1           0       -6.791149    0.187748   -7.310006
     21          1           0       -6.293391    1.357507   -6.082286
     22          1           0       -7.934945    1.424542   -6.767098
     23          8           0       -6.128217   -1.069187   -3.644810
     24          7           0       -6.095588   -2.047155   -5.688922
     25          1           0       -6.418916   -2.078835   -6.653207
     26          6           0       -5.046278   -3.028259   -5.398654
     27          1           0       -5.139433   -3.326048   -4.350488
     28          6           0       -3.659437   -2.390269   -5.657914
     29          6           0       -5.260356   -4.229881   -6.351848
     30          1           0       -4.369613   -4.868342   -6.277467
     31          8           0       -3.108190   -2.502092   -6.758207
     32          6           0       -6.499769   -5.049421   -6.020362
     33          1           0       -6.417949   -5.495678   -5.023393
     34          1           0       -7.406016   -4.435048   -6.053596
     35          1           0       -6.609517   -5.852798   -6.753838
     36          8           0       -5.398407   -3.726041   -7.677322
     37          1           0       -4.525614   -3.325930   -7.875888
     38          7           0       -3.146541   -1.704932   -4.619150
     39          1           0       -3.629215   -1.687863   -3.725211
     40          6           0       -1.819252   -1.094106   -4.603419
     41          1           0       -1.223855   -1.579065   -5.383663
     42          6           0       -1.266954   -1.396685   -3.196147
     43          6           0       -1.865747    0.440542   -4.867716
     44          1           0       -2.431234    0.881622   -4.034198
     45          8           0       -2.026025   -1.365914   -2.223643
     46          6           0       -0.456538    1.053968   -4.877672
     47          1           0        0.158594    0.616691   -5.674757
     48          1           0        0.070663    0.912070   -3.929982
     49          1           0       -0.516192    2.131255   -5.065413
     50          6           0       -2.594856    0.763853   -6.179676
     51          1           0       -2.087260    0.311712   -7.038784
     52          1           0       -3.625930    0.396330   -6.173355
     53          1           0       -2.623693    1.848356   -6.335125
     54          7           0        0.047135   -1.684382   -3.115074
     55          1           0        0.657991   -1.620334   -3.924405
     56          6           0        0.746886   -1.863905   -1.847675
     57          1           0        0.273106   -1.206444   -1.112347
     58          6           0        2.193246   -1.407209   -2.111775
     59          6           0        0.632172   -3.337360   -1.340606
     60          1           0       -0.445112   -3.546753   -1.387821
     61          8           0        2.642915   -1.363040   -3.258967
     62          6           0        1.066808   -3.532994    0.126949
     63          1           0        2.142908   -3.342166    0.231545
     64          1           0        0.935351   -4.598187    0.357977
     65          6           0        1.358655   -4.322279   -2.267411
     66          1           0        2.445636   -4.183586   -2.233639
     67          1           0        1.040677   -4.207620   -3.308695
     68          1           0        1.146631   -5.353616   -1.964897
     69          6           0        0.286230   -2.711296    1.161538
     70          1           0        0.560985   -3.012392    2.177872
     71          1           0        0.481346   -1.634499    1.086548
     72          1           0       -0.794860   -2.854051    1.046762
     73          7           0        2.921688   -1.071907   -1.024241
     74          1           0        2.533442   -1.079026   -0.085974
     75          6           0        4.309757   -0.660090   -1.097705
     76          1           0        4.848878   -1.312229   -1.790850
     77          6           0        4.877398   -0.797329    0.330480
     78          6           0        4.434767    0.803901   -1.624482
     79          1           0        4.089465    0.799432   -2.662510
     80          1           0        3.801162    1.468222   -1.032865
     81          8           0        4.130074   -0.803016    1.307353
     82          6           0        5.879517    1.256346   -1.566625
     83          8           0        6.797666    0.634895   -2.071969
     84          8           0        6.042421    2.347853   -0.808125
     85          7           0        6.231697   -0.893519    0.412768
     86          1           0        6.765452   -0.729553   -0.436744
     87          6           0        6.937347   -0.666246    1.675929
     88          1           0        6.323995   -1.108928    2.464847
     89          6           0        7.095792    0.861187    1.879714
     90          6           0        8.316525   -1.342313    1.600559
     91          1           0        8.884283   -0.826016    0.816034
     92          1           0        8.162889   -2.374243    1.263538
     93          8           0        7.879167    1.500412    1.173887
     94          6           0        9.133984   -1.354685    2.867386
     95          6           0       10.352477   -1.952004    3.108786
     96          1           0       10.947450   -2.545635    2.428030
     97          7           0        8.804832   -0.733376    4.055961
     98          1           0        8.079176   -0.030604    4.275544
     99          6           0        9.808099   -0.961032    4.934510
    100          1           0        9.778324   -0.576051    5.944081
    101          7           0       10.770135   -1.700759    4.399281
    102          7           0        6.310196    1.408519    2.834750
    103          1           0        5.766032    0.779085    3.411281
    104          6           0        6.577852    2.726770    3.412193
    105          1           0        6.989801    3.343454    2.611937
    106          6           0        7.634229    2.529690    4.523826
    107          6           0        5.272071    3.336328    3.961832
    108          1           0        4.506551    3.242126    3.179072
    109          1           0        4.940389    2.716755    4.807746
    110          8           0        7.662077    1.445177    5.152264
    111          6           0        5.354859    4.811129    4.412390
    112          1           0        6.178654    4.920866    5.129111
    113          6           0        5.629664    5.764974    3.239471
    114          1           0        4.838815    5.693879    2.480243
    115          1           0        5.670057    6.800806    3.591666
    116          1           0        6.588050    5.562291    2.749103
    117          6           0        4.054601    5.201553    5.131440
    118          1           0        3.189652    5.116143    4.459664
    119          1           0        4.101793    6.237647    5.483939
    120          1           0        3.868477    4.560069    6.001182
    121          7           0        8.460715    3.541110    4.740815
    122          1           0        8.331418    4.498186    4.363166
    123          6           0        9.453648    3.631645    5.804239
    124          1           0        9.023134    3.248806    6.737681
    125          6           0        9.766440    5.180828    5.961021
    126          6           0       10.719072    2.821438    5.458512
    127          1           0       11.265394    3.339711    4.658337
    128          1           0       10.401970    1.849119    5.053634
    129          8           0        9.075235    5.921880    5.210934
    130          6           0       11.630564    2.643732    6.679036
    131          1           0       11.786912    3.642859    7.102469
    132          1           0       11.125494    2.038674    7.445106
    133          6           0       12.988744    2.018648    6.364297
    134          1           0       13.541667    2.645244    5.652216
    135          1           0       13.576403    1.942214    7.286786
    136          7           0       12.842212    0.658738    5.804202
    137          1           0       11.988523    0.463013    5.291040
    138          7           0       14.981886   -0.094464    6.326751
    139          1           0       15.536370   -0.859142    6.682187
    140          1           0       15.246264    0.833369    6.621156
    141          7           0       13.390288   -1.570062    5.497115
    142          1           0       14.121649   -2.237907    5.298841
    143          1           0       12.433149   -1.754194    5.111174
    144          6           0       13.729642   -0.330972    5.871346
    145          8           0       10.658518    5.464234    6.783314
    146          1           0        6.994113    2.421001   -0.577183
 ---------------------------------------------------------------------

 SCF Done:  E(RB3LYP) =  -3503.36603727     A.U. after    2 cycles

 Alpha  occ. eigenvalues --  -19.28272 -19.27066 -19.24353 -19.24167 -19.21593
 Alpha  occ. eigenvalues --  -19.20049 -19.18906 -19.18836 -19.18332 -19.18298
 Alpha  occ. eigenvalues --  -19.17116 -19.14650 -19.06110 -19.05238 -14.61543
 Alpha  occ. eigenvalues --  -14.50524 -14.47519 -14.46522 -14.45494 -14.43993
 Alpha  occ. eigenvalues --  -14.43881 -14.43255 -14.42616 -14.42590 -14.42534
 Alpha  occ. eigenvalues --  -14.41385 -14.38658 -14.36840 -10.44700 -10.41915
 Alpha  occ. eigenvalues --  -10.41288 -10.41012 -10.38899 -10.37450 -10.37136
 Alpha  occ. eigenvalues --  -10.36330 -10.35764 -10.35514 -10.35402 -10.34248
 Alpha  occ. eigenvalues --  -10.32381 -10.32104 -10.31240 -10.30601 -10.30318
 Alpha  occ. eigenvalues --  -10.30077 -10.29950 -10.29529 -10.29447 -10.29291
 Alpha  occ. eigenvalues --  -10.27823 -10.26870 -10.26552 -10.26141 -10.25957
 Alpha  occ. eigenvalues --  -10.25333 -10.25310 -10.25249 -10.24215 -10.24095
 Alpha  occ. eigenvalues --  -10.23892 -10.23836 -10.23028 -10.22764 -10.22256
 Alpha  occ. eigenvalues --  -10.21831 -10.21638 -10.21400 -10.21023 -10.19753
 Alpha  occ. eigenvalues --  -10.19354  -1.20707  -1.15945  -1.15547  -1.15352
 Alpha  occ. eigenvalues --   -1.14601  -1.12079  -1.10984  -1.10439  -1.10403
 Alpha  occ. eigenvalues --   -1.09762  -1.09099  -1.08875  -1.07443  -1.06836
 Alpha  occ. eigenvalues --   -1.06420  -1.05684  -1.03565  -1.00248  -0.99758
 Alpha  occ. eigenvalues --   -0.99383  -0.99269  -0.99196  -0.98870  -0.98232
 Alpha  occ. eigenvalues --   -0.97499  -0.93705  -0.92895  -0.92499  -0.90429
 Alpha  occ. eigenvalues --   -0.89457  -0.87877  -0.86839  -0.85933  -0.85481
 Alpha  occ. eigenvalues --   -0.84255  -0.84034  -0.83582  -0.81021  -0.80904
 Alpha  occ. eigenvalues --   -0.79991  -0.79891  -0.78262  -0.77972  -0.77047
 Alpha  occ. eigenvalues --   -0.76758  -0.76366  -0.75387  -0.74881  -0.74274
 Alpha  occ. eigenvalues --   -0.73618  -0.72993  -0.72839  -0.71454  -0.70829
 Alpha  occ. eigenvalues --   -0.70545  -0.70257  -0.68960  -0.68441  -0.68009
 Alpha  occ. eigenvalues --   -0.67449  -0.67278  -0.66799  -0.66360  -0.66069
 Alpha  occ. eigenvalues --   -0.65999  -0.65811  -0.65698  -0.64884  -0.64506
 Alpha  occ. eigenvalues --   -0.64321  -0.63618  -0.63541  -0.63328  -0.62756
 Alpha  occ. eigenvalues --   -0.62436  -0.61917  -0.61410  -0.60556  -0.59851
 Alpha  occ. eigenvalues --   -0.59578  -0.59364  -0.59199  -0.58992  -0.58776
 Alpha  occ. eigenvalues --   -0.58518  -0.57927  -0.57158  -0.56956  -0.56528
 Alpha  occ. eigenvalues --   -0.56018  -0.55762  -0.55314  -0.55219  -0.55091
 Alpha  occ. eigenvalues --   -0.54624  -0.54338  -0.54126  -0.53916  -0.53861
 Alpha  occ. eigenvalues --   -0.53419  -0.52982  -0.52614  -0.52472  -0.52072
 Alpha  occ. eigenvalues --   -0.51896  -0.51730  -0.51551  -0.51394  -0.50537
 Alpha  occ. eigenvalues --   -0.50493  -0.50376  -0.50214  -0.50097  -0.49851
 Alpha  occ. eigenvalues --   -0.49716  -0.49384  -0.49159  -0.48529  -0.48502
 Alpha  occ. eigenvalues --   -0.48224  -0.48096  -0.47993  -0.47826  -0.47586
 Alpha  occ. eigenvalues --   -0.47218  -0.47062  -0.46924  -0.46905  -0.46747
 Alpha  occ. eigenvalues --   -0.46540  -0.46194  -0.46131  -0.46021  -0.45758
 Alpha  occ. eigenvalues --   -0.45696  -0.45294  -0.45245  -0.45106  -0.44862
 Alpha  occ. eigenvalues --   -0.44485  -0.44444  -0.44382  -0.44288  -0.44240
 Alpha  occ. eigenvalues --   -0.43396  -0.43037  -0.42908  -0.42807  -0.42542
 Alpha  occ. eigenvalues --   -0.42491  -0.42358  -0.41927  -0.41612  -0.41539
 Alpha  occ. eigenvalues --   -0.41330  -0.41091  -0.40890  -0.40624  -0.40440
 Alpha  occ. eigenvalues --   -0.40357  -0.39901  -0.39739  -0.39154  -0.38921
 Alpha  occ. eigenvalues --   -0.38618  -0.38594  -0.38463  -0.38460  -0.37927
 Alpha  occ. eigenvalues --   -0.37853  -0.37267  -0.37017  -0.36785  -0.36749
 Alpha  occ. eigenvalues --   -0.35645  -0.35489  -0.35325  -0.35116  -0.35102
 Alpha  occ. eigenvalues --   -0.34792  -0.34199  -0.33986  -0.33869  -0.33829
 Alpha  occ. eigenvalues --   -0.33552  -0.33313  -0.32911  -0.32804  -0.32419
 Alpha  occ. eigenvalues --   -0.31875  -0.31591  -0.31222  -0.31049  -0.29986
 Alpha  occ. eigenvalues --   -0.28758  -0.27812  -0.27543  -0.21305  -0.20979
 Alpha  occ. eigenvalues --   -0.19493
 Alpha virt. eigenvalues --   -0.13779  -0.12479  -0.09954  -0.07385  -0.06472
 Alpha virt. eigenvalues --   -0.06154  -0.06028  -0.05000  -0.04564  -0.04477
 Alpha virt. eigenvalues --   -0.03900  -0.03096  -0.02944  -0.02885  -0.02224

 Mulliken charges:
               1
     1  N   -0.760659
     2  H    0.422934
     3  H    0.435573
     4  H    0.418209
     5  C   -0.134359
     6  H    0.228301
     7  C    0.640114
     8  C   -0.039681
     9  H    0.172569
    10  H    0.181306
    11  O   -0.527116
    12  O   -0.625058
    13  H    0.457035
    14  N   -0.566856
    15  H    0.360527
    16  C   -0.097022
    17  H    0.215226
    18  C    0.661090
    19  C   -0.470786
    20  H    0.188513
    21  H    0.178654
    22  H    0.191118
    23  O   -0.579108
    24  N   -0.590515
    25  H    0.362594
    26  C   -0.083664
    27  H    0.178308
    28  C    0.642168
    29  C    0.109165
    30  H    0.156717
    31  O   -0.546167
    32  C   -0.451172
    33  H    0.150514
    34  H    0.144023
    35  H    0.183924
    36  O   -0.648775
    37  H    0.427164
    38  N   -0.610316
    39  H    0.361251
    40  C   -0.047622
    41  H    0.176348
    42  C    0.620094
    43  C   -0.071814
    44  H    0.135880
    45  O   -0.557256
    46  C   -0.464926
    47  H    0.155452
    48  H    0.158134
    49  H    0.157731
    50  C   -0.449656
    51  H    0.169452
    52  H    0.128919
    53  H    0.148069
    54  N   -0.612446
    55  H    0.361274
    56  C   -0.063557
    57  H    0.177709
    58  C    0.629816
    59  C   -0.070908
    60  H    0.150341
    61  O   -0.546780
    62  C   -0.272720
    63  H    0.143190
    64  H    0.144964
    65  C   -0.461942
    66  H    0.157068
    67  H    0.150643
    68  H    0.150897
    69  C   -0.456602
    70  H    0.158626
    71  H    0.141624
    72  H    0.153336
    73  N   -0.634895
    74  H    0.368385
    75  C   -0.041591
    76  H    0.200926
    77  C    0.606049
    78  C   -0.338571
    79  H    0.212895
    80  H    0.179270
    81  O   -0.538101
    82  C    0.567953
    83  O   -0.478208
    84  O   -0.554991
    85  N   -0.620880
    86  H    0.372354
    87  C   -0.060566
    88  H    0.173599
    89  C    0.624978
    90  C   -0.364020
    91  H    0.198346
    92  H    0.177754
    93  O   -0.560056
    94  C    0.332942
    95  C   -0.064465
    96  H    0.141721
    97  N   -0.628786
    98  H    0.396764
    99  C    0.203526
   100  H    0.185242
   101  N   -0.507378
   102  N   -0.577160
   103  H    0.343293
   104  C   -0.067397
   105  H    0.184240
   106  C    0.634142
   107  C   -0.273297
   108  H    0.143904
   109  H    0.139477
   110  O   -0.614520
   111  C   -0.091533
   112  H    0.167197
   113  C   -0.447018
   114  H    0.127752
   115  H    0.164426
   116  H    0.152019
   117  C   -0.445017
   118  H    0.129836
   119  H    0.155135
   120  H    0.140688
   121  N   -0.597703
   122  H    0.373703
   123  C   -0.064476
   124  H    0.148618
   125  C    0.584969
   126  C   -0.278672
   127  H    0.148172
   128  H    0.119571
   129  O   -0.605072
   130  C   -0.303962
   131  H    0.233312
   132  H    0.135282
   133  C   -0.160749
   134  H    0.183430
   135  H    0.156048
   136  N   -0.612943
   137  H    0.379318
   138  N   -0.762739
   139  H    0.367424
   140  H    0.380044
   141  N   -0.796974
   142  H    0.350366
   143  H    0.421612
   144  C    0.795421
   145  O   -0.581128
   146  H    0.441685
 Sum of Mulliken charges =   1.00000

 Dipole moment (field-independent basis, Debye):
    X=            -24.2517    Y=            -13.6671    Z=             -6.3342  Tot=             28.5492
 Quadrupole moment (field-independent basis, Debye-Ang):
   XX=            246.5019   YY=           -483.6655   ZZ=           -383.0580
   XY=           -166.6435   XZ=            160.1614   YZ=            -93.2362

 Normal termination of Gaussian 16 at Sun Jun 19 12:01:36 2022.
