 Gaussian 16, Revision C.01,
 Gaussian 16:  ES64L-G16RevC.01  3-Jul-2019

 -------------------------------------------------------------------
 # B3LYP/6-31G* guess=read geom=check nosymm integral(ultrafinegrid)
 -------------------------------------------------------------------

 ------------------------------------------------------
 Candidate Structure: Conf:497 Charge calc in gas phase
 ------------------------------------------------------
 Structure from the checkpoint file:  "conf-497.chk"
 Charge =  1 Multiplicity = 1

                          Input orientation:
 ---------------------------------------------------------------------
 Center     Atomic      Atomic             Coordinates (Angstroms)
 Number     Number       Type             X           Y           Z
 ---------------------------------------------------------------------
      1          7           0       -9.648641   -3.830831   -2.364873
      2          1           0      -10.245143   -4.651812   -2.232118
      3          1           0       -8.651071   -4.113950   -2.214641
      4          1           0       -9.961100   -3.069152   -1.736553
      5          6           0       -9.678405   -3.294612   -3.770204
      6          1           0      -10.597878   -3.637386   -4.249196
      7          6           0       -8.392785   -3.844808   -4.428915
      8          6           0       -9.637002   -1.751529   -3.679501
      9          1           0      -10.001678   -1.338207   -4.628217
     10          1           0       -8.609539   -1.396153   -3.523036
     11          8           0       -7.538249   -4.337959   -3.689757
     12          8           0      -10.495002   -1.413172   -2.593287
     13          1           0      -10.349948   -0.485166   -2.348538
     14          7           0       -8.287443   -3.699872   -5.758780
     15          1           0       -8.982180   -3.138249   -6.240648
     16          6           0       -6.974445   -3.760140   -6.437443
     17          1           0       -6.377347   -4.495055   -5.894531
     18          6           0       -6.394517   -2.339377   -6.295829
     19          6           0       -7.145905   -4.161304   -7.900183
     20          1           0       -6.165975   -4.240381   -8.380396
     21          1           0       -7.723916   -3.404897   -8.440341
     22          1           0       -7.648164   -5.129714   -7.978639
     23          8           0       -7.022065   -1.384993   -6.775005
     24          7           0       -5.263774   -2.225938   -5.584458
     25          1           0       -4.805439   -3.028310   -5.159153
     26          6           0       -4.628576   -0.950939   -5.276068
     27          1           0       -4.670252   -0.317814   -6.169864
     28          6           0       -3.173467   -1.307883   -4.906575
     29          6           0       -5.348783   -0.216519   -4.097167
     30          1           0       -5.115360   -0.759332   -3.173390
     31          8           0       -2.935879   -2.401260   -4.392981
     32          6           0       -4.920269    1.245138   -3.969568
     33          1           0       -3.852272    1.357684   -3.758577
     34          1           0       -5.149320    1.796360   -4.890339
     35          1           0       -5.479326    1.712447   -3.153759
     36          8           0       -6.769971   -0.308587   -4.238487
     37          1           0       -6.980167   -0.217865   -5.188941
     38          7           0       -2.237798   -0.375331   -5.184154
     39          1           0       -2.520434    0.563327   -5.451485
     40          6           0       -0.870633   -0.450546   -4.679530
     41          1           0       -0.859420   -1.200159   -3.881231
     42          6           0       -0.551404    0.941299   -4.098106
     43          6           0        0.162418   -0.872873   -5.766298
     44          1           0        1.143090   -0.853410   -5.269079
     45          8           0       -1.238887    1.924065   -4.389046
     46          6           0       -0.093687   -2.308677   -6.243788
     47          1           0       -1.051618   -2.383644   -6.770017
     48          1           0       -0.115927   -3.017023   -5.409262
     49          1           0        0.693457   -2.621064   -6.938627
     50          6           0        0.206104    0.109686   -6.945306
     51          1           0       -0.748925    0.118249   -7.483582
     52          1           0        0.420803    1.134995   -6.625497
     53          1           0        0.982173   -0.189370   -7.657514
     54          7           0        0.525305    1.002817   -3.286392
     55          1           0        1.082599    0.180862   -3.081682
     56          6           0        1.021322    2.250430   -2.717644
     57          1           0        0.919874    3.026011   -3.482698
     58          6           0        2.501138    2.013330   -2.402066
     59          6           0        0.189997    2.683930   -1.462235
     60          1           0       -0.845824    2.654582   -1.824356
     61          8           0        2.939206    0.874296   -2.208472
     62          6           0        0.468336    4.126599   -0.988306
     63          1           0        1.475954    4.192342   -0.557201
     64          1           0       -0.211849    4.316095   -0.148239
     65          6           0        0.334746    1.693251   -0.298253
     66          1           0        1.333718    1.739493    0.149205
     67          1           0        0.149462    0.661073   -0.613437
     68          1           0       -0.387555    1.933680    0.489153
     69          6           0        0.250147    5.225181   -2.038583
     70          1           0        0.323134    6.216472   -1.579324
     71          1           0        0.984528    5.198783   -2.855506
     72          1           0       -0.739944    5.141667   -2.501566
     73          7           0        3.296930    3.111051   -2.350201
     74          1           0        2.854891    4.021288   -2.337301
     75          6           0        4.659914    3.010771   -1.840173
     76          1           0        5.156766    2.207429   -2.387855
     77          6           0        4.612096    2.677713   -0.331289
     78          6           0        5.391043    4.340070   -2.083882
     79          1           0        5.318416    4.592163   -3.150153
     80          1           0        4.923886    5.149946   -1.515978
     81          8           0        3.845381    3.277615    0.422864
     82          6           0        6.866740    4.339766   -1.726564
     83          8           0        7.475826    5.300193   -1.325715
     84          8           0        7.454018    3.131979   -1.949046
     85          7           0        5.444864    1.693232    0.080918
     86          1           0        6.150877    1.354674   -0.562182
     87          6           0        5.476108    1.194875    1.460787
     88          1           0        4.470912    1.361077    1.862228
     89          6           0        6.465085    2.020278    2.325264
     90          6           0        5.791681   -0.309997    1.458480
     91          1           0        6.106469   -0.599580    2.464042
     92          1           0        6.674421   -0.481826    0.822941
     93          8           0        7.460266    1.484355    2.847286
     94          6           0        4.638159   -1.180305    1.062822
     95          6           0        4.113104   -2.295587    1.677078
     96          1           0        4.448862   -2.756243    2.597624
     97          7           0        3.865070   -1.016169   -0.076092
     98          1           0        3.900686   -0.263275   -0.755349
     99          6           0        2.933710   -2.014169   -0.075175
    100          1           0        2.194621   -2.105645   -0.859913
    101          7           0        3.054894   -2.810776    0.964611
    102          7           0        6.143827    3.313780    2.430917
    103          1           0        5.237382    3.593100    2.062560
    104          6           0        6.910313    4.340343    3.141252
    105          1           0        7.967505    4.076695    3.048729
    106          6           0        6.511554    4.363916    4.642279
    107          6           0        6.630630    5.694791    2.433717
    108          1           0        6.557122    5.480359    1.358104
    109          1           0        5.638494    6.043620    2.753744
    110          8           0        5.444412    3.838641    5.005165
    111          6           0        7.659172    6.830734    2.612657
    112          1           0        7.773769    7.073142    3.675350
    113          6           0        9.044425    6.447941    2.069685
    114          1           0        8.994630    6.173854    1.006976
    115          1           0        9.735049    7.291240    2.172785
    116          1           0        9.491464    5.610406    2.619378
    117          6           0        7.134598    8.085820    1.897340
    118          1           0        7.025061    7.912698    0.817790
    119          1           0        7.826247    8.923592    2.035524
    120          1           0        6.159150    8.393648    2.293137
    121          7           0        7.393026    4.968945    5.454944
    122          1           0        8.182937    5.521715    5.057216
    123          6           0        7.051172    5.696561    6.692916
    124          1           0        5.992659    5.976552    6.653042
    125          6           0        7.950047    7.012080    6.667259
    126          6           0        7.318603    4.959598    8.012062
    127          1           0        7.121019    5.700274    8.791050
    128          1           0        8.396269    4.748901    8.080471
    129          8           0        7.761675    7.790763    7.609008
    130          6           0        6.490543    3.673867    8.242660
    131          1           0        5.897705    3.751270    9.163088
    132          1           0        5.767692    3.556857    7.428156
    133          6           0        7.341526    2.402328    8.387667
    134          1           0        7.908693    2.429175    9.322834
    135          1           0        6.720633    1.500952    8.407709
    136          7           0        8.349433    2.215613    7.327079
    137          1           0        9.223895    2.709169    7.446834
    138          7           0        6.838665    1.403651    5.747749
    139          1           0        6.776564    1.077868    4.786742
    140          1           0        6.106100    2.084519    5.957922
    141          7           0        9.088672    1.539684    5.225509
    142          1           0        8.841123    1.536201    4.235828
    143          1           0       10.048783    1.710759    5.486854
    144          6           0        8.092825    1.757416    6.101233
    145          8           0        8.767222    7.061193    5.696791
    146          1           0        8.401271    3.245774   -1.737461
 ---------------------------------------------------------------------

 SCF Done:  E(RB3LYP) =  -3503.34700309     A.U. after    3 cycles

 Alpha  occ. eigenvalues --  -19.30942 -19.28222 -19.27758 -19.23746 -19.22451
 Alpha  occ. eigenvalues --  -19.22141 -19.22014 -19.21089 -19.20842 -19.20229
 Alpha  occ. eigenvalues --  -19.19896 -19.14805 -19.06491 -19.05180 -14.60178
 Alpha  occ. eigenvalues --  -14.50961 -14.46816 -14.46000 -14.45469 -14.45153
 Alpha  occ. eigenvalues --  -14.45003 -14.44425 -14.44413 -14.42856 -14.42847
 Alpha  occ. eigenvalues --  -14.42645 -14.36635 -14.35175 -10.44792 -10.41549
 Alpha  occ. eigenvalues --  -10.40640 -10.40603 -10.39757 -10.39148 -10.38623
 Alpha  occ. eigenvalues --  -10.38385 -10.37815 -10.37251 -10.36449 -10.35555
 Alpha  occ. eigenvalues --  -10.33707 -10.33334 -10.33334 -10.31708 -10.31647
 Alpha  occ. eigenvalues --  -10.31491 -10.31372 -10.29693 -10.28904 -10.28713
 Alpha  occ. eigenvalues --  -10.27979 -10.27932 -10.27450 -10.26794 -10.26752
 Alpha  occ. eigenvalues --  -10.26517 -10.26014 -10.24925 -10.24552 -10.24462
 Alpha  occ. eigenvalues --  -10.24264 -10.24193 -10.23807 -10.23802 -10.22436
 Alpha  occ. eigenvalues --  -10.22244 -10.21732 -10.20331 -10.20173 -10.19169
 Alpha  occ. eigenvalues --  -10.18952  -1.20384  -1.18781  -1.18219  -1.14776
 Alpha  occ. eigenvalues --   -1.13987  -1.13957  -1.13088  -1.12574  -1.11841
 Alpha  occ. eigenvalues --   -1.10923  -1.10831  -1.09839  -1.09319  -1.07239
 Alpha  occ. eigenvalues --   -1.05940  -1.05252  -1.02958  -1.02459  -1.01675
 Alpha  occ. eigenvalues --   -1.01563  -1.00898  -0.99417  -0.99136  -0.98804
 Alpha  occ. eigenvalues --   -0.96880  -0.93425  -0.93313  -0.90988  -0.90529
 Alpha  occ. eigenvalues --   -0.89758  -0.89144  -0.88352  -0.87465  -0.86188
 Alpha  occ. eigenvalues --   -0.86011  -0.84007  -0.83036  -0.82065  -0.80993
 Alpha  occ. eigenvalues --   -0.80598  -0.80199  -0.79118  -0.78737  -0.77905
 Alpha  occ. eigenvalues --   -0.76505  -0.76106  -0.75531  -0.75430  -0.74855
 Alpha  occ. eigenvalues --   -0.74152  -0.73330  -0.72300  -0.71908  -0.70732
 Alpha  occ. eigenvalues --   -0.70604  -0.70359  -0.70079  -0.69540  -0.69368
 Alpha  occ. eigenvalues --   -0.68533  -0.68216  -0.67779  -0.67554  -0.67413
 Alpha  occ. eigenvalues --   -0.67340  -0.66508  -0.65648  -0.65541  -0.65202
 Alpha  occ. eigenvalues --   -0.64675  -0.64395  -0.63875  -0.63681  -0.63292
 Alpha  occ. eigenvalues --   -0.63115  -0.62233  -0.61639  -0.61254  -0.60617
 Alpha  occ. eigenvalues --   -0.60001  -0.59516  -0.59374  -0.58848  -0.58455
 Alpha  occ. eigenvalues --   -0.58310  -0.58111  -0.57674  -0.57369  -0.57068
 Alpha  occ. eigenvalues --   -0.56955  -0.56882  -0.56622  -0.56288  -0.55797
 Alpha  occ. eigenvalues --   -0.55491  -0.55317  -0.55023  -0.54861  -0.54513
 Alpha  occ. eigenvalues --   -0.54197  -0.54085  -0.54063  -0.53520  -0.53225
 Alpha  occ. eigenvalues --   -0.52724  -0.52598  -0.52205  -0.51911  -0.51402
 Alpha  occ. eigenvalues --   -0.51238  -0.50894  -0.50652  -0.50488  -0.50155
 Alpha  occ. eigenvalues --   -0.50041  -0.49843  -0.49555  -0.49426  -0.49298
 Alpha  occ. eigenvalues --   -0.49204  -0.49119  -0.48838  -0.48597  -0.48505
 Alpha  occ. eigenvalues --   -0.48318  -0.47828  -0.47734  -0.47705  -0.47659
 Alpha  occ. eigenvalues --   -0.47394  -0.47203  -0.47115  -0.46769  -0.46586
 Alpha  occ. eigenvalues --   -0.46469  -0.46389  -0.45882  -0.45749  -0.45628
 Alpha  occ. eigenvalues --   -0.45598  -0.45453  -0.45217  -0.44923  -0.44866
 Alpha  occ. eigenvalues --   -0.44795  -0.44602  -0.44158  -0.43830  -0.43618
 Alpha  occ. eigenvalues --   -0.43535  -0.43511  -0.42871  -0.42737  -0.42392
 Alpha  occ. eigenvalues --   -0.42136  -0.41835  -0.41292  -0.41130  -0.40945
 Alpha  occ. eigenvalues --   -0.40845  -0.40741  -0.40355  -0.40191  -0.40146
 Alpha  occ. eigenvalues --   -0.40004  -0.39523  -0.39208  -0.38677  -0.38311
 Alpha  occ. eigenvalues --   -0.37216  -0.37110  -0.36978  -0.36763  -0.36335
 Alpha  occ. eigenvalues --   -0.36271  -0.36059  -0.35872  -0.35761  -0.35354
 Alpha  occ. eigenvalues --   -0.35337  -0.35245  -0.35092  -0.34679  -0.34393
 Alpha  occ. eigenvalues --   -0.34354  -0.34010  -0.33777  -0.33735  -0.33099
 Alpha  occ. eigenvalues --   -0.33039  -0.32936  -0.32104  -0.31829  -0.30742
 Alpha  occ. eigenvalues --   -0.28794  -0.27937  -0.26671  -0.21461  -0.21401
 Alpha  occ. eigenvalues --   -0.19305
 Alpha virt. eigenvalues --   -0.13578  -0.11027  -0.09130  -0.08703  -0.07491
 Alpha virt. eigenvalues --   -0.07376  -0.07140  -0.07012  -0.06120  -0.05783
 Alpha virt. eigenvalues --   -0.05357  -0.05055  -0.03440  -0.02321  -0.02106

 Mulliken charges:
               1
     1  N   -0.744540
     2  H    0.418594
     3  H    0.428475
     4  H    0.430790
     5  C   -0.134316
     6  H    0.225034
     7  C    0.651213
     8  C   -0.080295
     9  H    0.186194
    10  H    0.232581
    11  O   -0.518203
    12  O   -0.635936
    13  H    0.442610
    14  N   -0.576254
    15  H    0.356009
    16  C   -0.076448
    17  H    0.196393
    18  C    0.644781
    19  C   -0.467472
    20  H    0.187667
    21  H    0.183532
    22  H    0.178435
    23  O   -0.571877
    24  N   -0.594720
    25  H    0.368845
    26  C   -0.097766
    27  H    0.179649
    28  C    0.615512
    29  C    0.160971
    30  H    0.149842
    31  O   -0.534615
    32  C   -0.479936
    33  H    0.174659
    34  H    0.153432
    35  H    0.168550
    36  O   -0.663759
    37  H    0.419689
    38  N   -0.600074
    39  H    0.360357
    40  C   -0.075198
    41  H    0.184043
    42  C    0.638002
    43  C   -0.076296
    44  H    0.135531
    45  O   -0.552785
    46  C   -0.444417
    47  H    0.148633
    48  H    0.160391
    49  H    0.155683
    50  C   -0.462656
    51  H    0.149357
    52  H    0.159229
    53  H    0.160981
    54  N   -0.621687
    55  H    0.357541
    56  C   -0.059879
    57  H    0.184723
    58  C    0.648539
    59  C   -0.077536
    60  H    0.158377
    61  O   -0.561674
    62  C   -0.292413
    63  H    0.161987
    64  H    0.155203
    65  C   -0.470217
    66  H    0.170012
    67  H    0.144432
    68  H    0.157476
    69  C   -0.466210
    70  H    0.166853
    71  H    0.126515
    72  H    0.165596
    73  N   -0.614221
    74  H    0.359961
    75  C   -0.034371
    76  H    0.190753
    77  C    0.629943
    78  C   -0.399986
    79  H    0.208933
    80  H    0.211128
    81  O   -0.536941
    82  C    0.592328
    83  O   -0.427456
    84  O   -0.577695
    85  N   -0.595815
    86  H    0.350298
    87  C   -0.086658
    88  H    0.211094
    89  C    0.630719
    90  C   -0.368918
    91  H    0.182375
    92  H    0.158847
    93  O   -0.584637
    94  C    0.324982
    95  C   -0.082482
    96  H    0.132153
    97  N   -0.629536
    98  H    0.370090
    99  C    0.202675
   100  H    0.138250
   101  N   -0.423655
   102  N   -0.582173
   103  H    0.377178
   104  C   -0.060256
   105  H    0.160851
   106  C    0.593253
   107  C   -0.297480
   108  H    0.137781
   109  H    0.150662
   110  O   -0.579978
   111  C   -0.100797
   112  H    0.200701
   113  C   -0.454939
   114  H    0.137457
   115  H    0.163372
   116  H    0.125971
   117  C   -0.450116
   118  H    0.132089
   119  H    0.157910
   120  H    0.139290
   121  N   -0.612439
   122  H    0.363887
   123  C   -0.081089
   124  H    0.152941
   125  C    0.585180
   126  C   -0.268341
   127  H    0.191429
   128  H    0.105899
   129  O   -0.567188
   130  C   -0.291663
   131  H    0.154185
   132  H    0.176090
   133  C   -0.174119
   134  H    0.175679
   135  H    0.180320
   136  N   -0.573089
   137  H    0.357229
   138  N   -0.763126
   139  H    0.371576
   140  H    0.401404
   141  N   -0.773779
   142  H    0.409829
   143  H    0.357796
   144  C    0.755947
   145  O   -0.610386
   146  H    0.427161
 Sum of Mulliken charges =   1.00000

 Dipole moment (field-independent basis, Debye):
    X=            -32.7678    Y=            -20.3046    Z=            -23.9563  Tot=             45.3862
 Quadrupole moment (field-independent basis, Debye-Ang):
   XX=             -7.5930   YY=           -508.9954   ZZ=           -348.3369
   XY=             31.1188   XZ=             87.1170   YZ=            -59.1183

 Normal termination of Gaussian 16 at Sun Jun 19 12:05:38 2022.
