 Gaussian 16, Revision C.01,
 Gaussian 16:  ES64L-G16RevC.01  3-Jul-2019

 -------------------------------------------------------------------
 # B3LYP/6-31G* guess=read geom=check nosymm integral(ultrafinegrid)
 -------------------------------------------------------------------

 ------------------------------------------------------
 Candidate Structure: Conf:549 Charge calc in gas phase
 ------------------------------------------------------
 Structure from the checkpoint file:  "conf-549.chk"
 Charge =  1 Multiplicity = 1

                          Input orientation:
 ---------------------------------------------------------------------
 Center     Atomic      Atomic             Coordinates (Angstroms)
 Number     Number       Type             X           Y           Z
 ---------------------------------------------------------------------
      1          7           0      -11.640974   -3.712839   -3.492272
      2          1           0      -12.491301   -3.969828   -2.982376
      3          1           0      -11.134899   -2.941382   -2.961660
      4          1           0      -11.910256   -3.390647   -4.427690
      5          6           0      -10.598948   -4.807698   -3.513863
      6          1           0      -11.058434   -5.749826   -3.209058
      7          6           0       -9.537657   -4.305156   -2.513239
      8          6           0       -9.979085   -4.955413   -4.938369
      9          1           0       -9.631149   -3.966609   -5.273213
     10          1           0      -10.764146   -5.300770   -5.622676
     11          8           0       -9.606241   -3.126463   -2.143426
     12          8           0       -8.952958   -5.900331   -4.918837
     13          1           0       -8.107559   -5.418378   -4.733430
     14          7           0       -8.590565   -5.186740   -2.166262
     15          1           0       -8.589178   -6.052722   -2.699034
     16          6           0       -7.283131   -4.730160   -1.690786
     17          1           0       -7.461610   -3.938992   -0.957659
     18          6           0       -6.509412   -4.132138   -2.896803
     19          6           0       -6.519020   -5.893050   -1.045785
     20          1           0       -5.541886   -5.557440   -0.688162
     21          1           0       -6.349472   -6.699826   -1.768285
     22          1           0       -7.080141   -6.293144   -0.196629
     23          8           0       -6.862788   -4.347803   -4.068356
     24          7           0       -5.448289   -3.392817   -2.566136
     25          1           0       -5.155144   -3.309241   -1.596512
     26          6           0       -4.469716   -2.864460   -3.502595
     27          1           0       -4.541841   -3.430149   -4.437095
     28          6           0       -3.100448   -3.056693   -2.827176
     29          6           0       -4.692987   -1.339077   -3.785207
     30          1           0       -3.954583   -1.049935   -4.551014
     31          8           0       -3.019263   -3.349996   -1.636420
     32          6           0       -6.089431   -1.049686   -4.324303
     33          1           0       -6.305595   -1.643587   -5.218257
     34          1           0       -6.842236   -1.272868   -3.561708
     35          1           0       -6.164015    0.012988   -4.571679
     36          8           0       -4.510020   -0.591088   -2.604995
     37          1           0       -3.551557   -0.420583   -2.491810
     38          7           0       -2.011624   -2.828263   -3.608427
     39          1           0       -2.170508   -2.421113   -4.520955
     40          6           0       -0.723880   -2.536534   -2.987254
     41          1           0       -0.508600   -3.356569   -2.295271
     42          6           0       -0.856928   -1.223853   -2.174618
     43          6           0        0.391614   -2.488210   -4.069783
     44          1           0        0.231858   -3.392422   -4.673364
     45          8           0       -1.678541   -0.356114   -2.489741
     46          6           0        0.287397   -1.265523   -4.996800
     47          1           0        0.455410   -0.331352   -4.450354
     48          1           0       -0.689526   -1.181298   -5.488067
     49          1           0        1.040460   -1.333712   -5.788625
     50          6           0        1.795129   -2.592508   -3.453440
     51          1           0        2.047739   -1.714603   -2.848696
     52          1           0        1.891730   -3.483531   -2.821432
     53          1           0        2.546749   -2.670649   -4.245760
     54          7           0       -0.019389   -1.099304   -1.126111
     55          1           0        0.667412   -1.818149   -0.931741
     56          6           0        0.061391    0.083816   -0.273679
     57          1           0       -0.480046    0.884723   -0.785722
     58          6           0        1.553779    0.412774   -0.150427
     59          6           0       -0.574965   -0.160966    1.131966
     60          1           0       -0.022298   -1.001179    1.578586
     61          8           0        2.380461   -0.500180   -0.023951
     62          6           0       -2.055162   -0.574949    0.990647
     63          1           0       -2.140070   -1.380433    0.253476
     64          1           0       -2.626580    0.273866    0.589131
     65          6           0       -0.403542    1.067556    2.040808
     66          1           0       -0.899148    1.947120    1.607679
     67          1           0        0.646149    1.317969    2.217774
     68          1           0       -0.860456    0.884666    3.017159
     69          6           0       -2.694940   -1.054637    2.299535
     70          1           0       -3.716147   -1.406697    2.115991
     71          1           0       -2.130379   -1.888547    2.734672
     72          1           0       -2.754367   -0.262572    3.052934
     73          7           0        1.892988    1.715483   -0.162711
     74          1           0        1.214546    2.425658   -0.424464
     75          6           0        3.269161    2.162257   -0.002136
     76          1           0        3.866061    1.827806   -0.862199
     77          6           0        3.866179    1.598292    1.309339
     78          6           0        3.324612    3.701557    0.111994
     79          1           0        2.841252    3.984206    1.055395
     80          1           0        4.366214    4.026627    0.161128
     81          8           0        3.303426    1.788581    2.385622
     82          6           0        2.605845    4.435364   -1.001992
     83          8           0        1.467845    4.195981   -1.364491
     84          8           0        3.351100    5.415544   -1.533863
     85          7           0        5.053460    0.958940    1.190566
     86          1           0        5.487045    0.880943    0.279415
     87          6           0        5.784859    0.407837    2.340773
     88          1           0        5.027238    0.113475    3.073778
     89          6           0        6.675307    1.506218    2.977286
     90          6           0        6.597345   -0.819694    1.905716
     91          1           0        7.342108   -1.022970    2.679821
     92          1           0        7.181216   -0.550018    1.011344
     93          8           0        7.910082    1.474232    2.890045
     94          6           0        5.790515   -2.065063    1.695885
     95          6           0        6.051932   -3.367778    2.059024
     96          1           0        6.913137   -3.738578    2.600681
     97          7           0        4.581350   -2.127710    1.023439
     98          1           0        4.022460   -1.357780    0.666181
     99          6           0        4.186377   -3.434056    1.032606
    100          1           0        3.253730   -3.751662    0.585462
    101          7           0        5.052218   -4.215552    1.641769
    102          7           0        5.985027    2.492332    3.566710
    103          1           0        4.977685    2.380289    3.637327
    104          6           0        6.594644    3.635138    4.240665
    105          1           0        7.347524    4.058813    3.568121
    106          6           0        7.303769    3.185305    5.544928
    107          6           0        5.467287    4.667603    4.512082
    108          1           0        4.797311    4.643524    3.638810
    109          1           0        4.874790    4.305268    5.363932
    110          8           0        7.079482    2.044625    6.014669
    111          6           0        5.868201    6.138176    4.753970
    112          1           0        6.557012    6.205731    5.603222
    113          6           0        6.577049    6.757657    3.540687
    114          1           0        5.940106    6.723254    2.644779
    115          1           0        6.822276    7.805418    3.741255
    116          1           0        7.521954    6.254731    3.306493
    117          6           0        4.610079    6.944907    5.111855
    118          1           0        3.881753    6.938725    4.288515
    119          1           0        4.868648    7.988238    5.321335
    120          1           0        4.113212    6.540160    6.001674
    121          7           0        8.101309    4.100569    6.077892
    122          1           0        8.233452    5.043647    5.649559
    123          6           0        8.528649    4.284668    7.471646
    124          1           0        7.640331    4.224259    8.116120
    125          6           0        9.030599    5.805349    7.525898
    126          6           0        9.594336    3.328921    8.017591
    127          1           0       10.125944    3.915823    8.772482
    128          1           0       10.314625    3.108381    7.218010
    129          8           0        9.580381    6.141564    8.581201
    130          6           0        9.059258    2.020073    8.652232
    131          1           0        9.242150    2.013354    9.733122
    132          1           0        7.974303    1.941771    8.519858
    133          6           0        9.700237    0.754819    8.079600
    134          1           0       10.791753    0.819665    8.179370
    135          1           0        9.359180   -0.137976    8.620848
    136          7           0        9.357113    0.629480    6.655768
    137          1           0        8.484773    1.122950    6.362832
    138          7           0       11.162082   -0.738544    6.083640
    139          1           0       11.939269   -0.810678    5.442287
    140          1           0       11.396324   -0.833096    7.060499
    141          7           0        9.854348    0.206785    4.429706
    142          1           0       10.264018   -0.433135    3.765774
    143          1           0        9.113817    0.819599    4.071152
    144          6           0       10.110264    0.053252    5.736690
    145          8           0        8.778093    6.465655    6.473083
    146          1           0        2.801444    5.868939   -2.202927
 ---------------------------------------------------------------------

 SCF Done:  E(RB3LYP) =  -3503.35540185     A.U. after    2 cycles

 Alpha  occ. eigenvalues --  -19.28159 -19.28098 -19.26798 -19.23733 -19.22747
 Alpha  occ. eigenvalues --  -19.21206 -19.20857 -19.20285 -19.20187 -19.20097
 Alpha  occ. eigenvalues --  -19.18188 -19.14962 -19.06151 -19.04936 -14.61410
 Alpha  occ. eigenvalues --  -14.50298 -14.46663 -14.45182 -14.45017 -14.44992
 Alpha  occ. eigenvalues --  -14.44622 -14.44524 -14.43358 -14.43112 -14.42163
 Alpha  occ. eigenvalues --  -14.41437 -14.36348 -14.34669 -10.44473 -10.41140
 Alpha  occ. eigenvalues --  -10.41070 -10.40434 -10.40405 -10.38778 -10.37977
 Alpha  occ. eigenvalues --  -10.37486 -10.37378 -10.37286 -10.35854 -10.35044
 Alpha  occ. eigenvalues --  -10.33368 -10.32358 -10.32319 -10.31837 -10.31511
 Alpha  occ. eigenvalues --  -10.30992 -10.30593 -10.29641 -10.29269 -10.28469
 Alpha  occ. eigenvalues --  -10.28335 -10.27410 -10.27357 -10.26345 -10.26119
 Alpha  occ. eigenvalues --  -10.26008 -10.25576 -10.25392 -10.25051 -10.23922
 Alpha  occ. eigenvalues --  -10.23744 -10.23321 -10.23089 -10.22927 -10.22624
 Alpha  occ. eigenvalues --  -10.21902 -10.21573 -10.20789 -10.19458 -10.19365
 Alpha  occ. eigenvalues --  -10.19273  -1.20532  -1.19235  -1.15497  -1.15345
 Alpha  occ. eigenvalues --   -1.14307  -1.13331  -1.12903  -1.11897  -1.11464
 Alpha  occ. eigenvalues --   -1.10182  -1.09670  -1.08964  -1.08436  -1.07190
 Alpha  occ. eigenvalues --   -1.05722  -1.04702  -1.03154  -1.01619  -1.01411
 Alpha  occ. eigenvalues --   -1.01001  -1.00841  -0.99150  -0.98185  -0.97933
 Alpha  occ. eigenvalues --   -0.97163  -0.93402  -0.92672  -0.90438  -0.90298
 Alpha  occ. eigenvalues --   -0.89598  -0.88966  -0.88440  -0.86975  -0.85527
 Alpha  occ. eigenvalues --   -0.85370  -0.83905  -0.82853  -0.81736  -0.80835
 Alpha  occ. eigenvalues --   -0.80588  -0.79862  -0.78639  -0.78206  -0.77101
 Alpha  occ. eigenvalues --   -0.76586  -0.76296  -0.75944  -0.75440  -0.75229
 Alpha  occ. eigenvalues --   -0.73465  -0.72796  -0.71935  -0.71533  -0.70400
 Alpha  occ. eigenvalues --   -0.70333  -0.70120  -0.69680  -0.69284  -0.69139
 Alpha  occ. eigenvalues --   -0.67966  -0.67618  -0.67452  -0.67023  -0.66794
 Alpha  occ. eigenvalues --   -0.66467  -0.66192  -0.65966  -0.65394  -0.64816
 Alpha  occ. eigenvalues --   -0.64557  -0.63898  -0.63443  -0.62824  -0.62761
 Alpha  occ. eigenvalues --   -0.62404  -0.61823  -0.61605  -0.60848  -0.60507
 Alpha  occ. eigenvalues --   -0.59660  -0.59589  -0.58968  -0.58770  -0.58378
 Alpha  occ. eigenvalues --   -0.58188  -0.57817  -0.57666  -0.57262  -0.57187
 Alpha  occ. eigenvalues --   -0.57027  -0.56808  -0.56443  -0.56330  -0.55921
 Alpha  occ. eigenvalues --   -0.55748  -0.55380  -0.54925  -0.54737  -0.54302
 Alpha  occ. eigenvalues --   -0.53996  -0.53859  -0.53645  -0.53536  -0.53233
 Alpha  occ. eigenvalues --   -0.52611  -0.52389  -0.52133  -0.51579  -0.51157
 Alpha  occ. eigenvalues --   -0.51014  -0.50860  -0.50202  -0.50090  -0.50063
 Alpha  occ. eigenvalues --   -0.49643  -0.49542  -0.49501  -0.49189  -0.49092
 Alpha  occ. eigenvalues --   -0.49011  -0.48176  -0.47862  -0.47804  -0.47694
 Alpha  occ. eigenvalues --   -0.47553  -0.47476  -0.47468  -0.47194  -0.47122
 Alpha  occ. eigenvalues --   -0.46801  -0.46518  -0.46250  -0.46202  -0.46038
 Alpha  occ. eigenvalues --   -0.45909  -0.45789  -0.45778  -0.45636  -0.45592
 Alpha  occ. eigenvalues --   -0.45146  -0.44561  -0.44507  -0.44407  -0.44268
 Alpha  occ. eigenvalues --   -0.44125  -0.43845  -0.43635  -0.43448  -0.43388
 Alpha  occ. eigenvalues --   -0.43045  -0.42610  -0.42200  -0.42197  -0.41853
 Alpha  occ. eigenvalues --   -0.41777  -0.41425  -0.41367  -0.41047  -0.40808
 Alpha  occ. eigenvalues --   -0.40401  -0.40326  -0.40150  -0.39884  -0.39569
 Alpha  occ. eigenvalues --   -0.39436  -0.38601  -0.38495  -0.38304  -0.37487
 Alpha  occ. eigenvalues --   -0.37390  -0.37113  -0.36660  -0.36649  -0.36142
 Alpha  occ. eigenvalues --   -0.35898  -0.35802  -0.35681  -0.35357  -0.35286
 Alpha  occ. eigenvalues --   -0.35036  -0.35008  -0.34854  -0.34742  -0.34348
 Alpha  occ. eigenvalues --   -0.33602  -0.33386  -0.33292  -0.33170  -0.32944
 Alpha  occ. eigenvalues --   -0.32801  -0.31880  -0.31589  -0.30955  -0.30233
 Alpha  occ. eigenvalues --   -0.28948  -0.27344  -0.26114  -0.21148  -0.21031
 Alpha  occ. eigenvalues --   -0.19252
 Alpha virt. eigenvalues --   -0.13658  -0.12351  -0.09120  -0.08563  -0.07544
 Alpha virt. eigenvalues --   -0.07259  -0.07014  -0.06222  -0.05636  -0.04964
 Alpha virt. eigenvalues --   -0.04341  -0.04322  -0.02679  -0.02108  -0.01528

 Mulliken charges:
               1
     1  N   -0.760294
     2  H    0.422422
     3  H    0.435679
     4  H    0.417519
     5  C   -0.134110
     6  H    0.226866
     7  C    0.640802
     8  C   -0.039637
     9  H    0.170603
    10  H    0.179314
    11  O   -0.527106
    12  O   -0.628275
    13  H    0.455531
    14  N   -0.568811
    15  H    0.359797
    16  C   -0.095060
    17  H    0.212052
    18  C    0.655944
    19  C   -0.471489
    20  H    0.197263
    21  H    0.172470
    22  H    0.188647
    23  O   -0.581287
    24  N   -0.569666
    25  H    0.369410
    26  C   -0.092323
    27  H    0.182575
    28  C    0.624010
    29  C    0.137388
    30  H    0.120182
    31  O   -0.532150
    32  C   -0.449587
    33  H    0.143941
    34  H    0.154731
    35  H    0.170791
    36  O   -0.658213
    37  H    0.452365
    38  N   -0.604732
    39  H    0.341216
    40  C   -0.052054
    41  H    0.179586
    42  C    0.659405
    43  C   -0.103015
    44  H    0.155765
    45  O   -0.576674
    46  C   -0.460314
    47  H    0.167884
    48  H    0.138708
    49  H    0.164917
    50  C   -0.471328
    51  H    0.158630
    52  H    0.154304
    53  H    0.166676
    54  N   -0.596930
    55  H    0.353013
    56  C   -0.072882
    57  H    0.183281
    58  C    0.649300
    59  C   -0.070477
    60  H    0.138370
    61  O   -0.571291
    62  C   -0.268289
    63  H    0.158700
    64  H    0.140303
    65  C   -0.491056
    66  H    0.140165
    67  H    0.187093
    68  H    0.165371
    69  C   -0.449740
    70  H    0.142383
    71  H    0.147265
    72  H    0.154025
    73  N   -0.610310
    74  H    0.379812
    75  C   -0.028052
    76  H    0.160869
    77  C    0.649371
    78  C   -0.401881
    79  H    0.229108
    80  H    0.202268
    81  O   -0.533293
    82  C    0.596338
    83  O   -0.469874
    84  O   -0.541950
    85  N   -0.605474
    86  H    0.340691
    87  C   -0.080109
    88  H    0.206928
    89  C    0.656079
    90  C   -0.371801
    91  H    0.172722
    92  H    0.157918
    93  O   -0.576563
    94  C    0.326724
    95  C   -0.084258
    96  H    0.124307
    97  N   -0.637567
    98  H    0.384042
    99  C    0.199217
   100  H    0.136872
   101  N   -0.423857
   102  N   -0.611634
   103  H    0.372541
   104  C   -0.035917
   105  H    0.177460
   106  C    0.608995
   107  C   -0.296274
   108  H    0.123579
   109  H    0.152659
   110  O   -0.606638
   111  C   -0.097910
   112  H    0.191022
   113  C   -0.444331
   114  H    0.112101
   115  H    0.167918
   116  H    0.147782
   117  C   -0.445037
   118  H    0.119822
   119  H    0.159606
   120  H    0.142602
   121  N   -0.603163
   122  H    0.379144
   123  C   -0.066792
   124  H    0.148519
   125  C    0.582706
   126  C   -0.278273
   127  H    0.196985
   128  H    0.120780
   129  O   -0.566690
   130  C   -0.300467
   131  H    0.156292
   132  H    0.172421
   133  C   -0.163411
   134  H    0.152833
   135  H    0.165631
   136  N   -0.616264
   137  H    0.435152
   138  N   -0.761022
   139  H    0.361573
   140  H    0.371215
   141  N   -0.801667
   142  H    0.351603
   143  H    0.435008
   144  C    0.777563
   145  O   -0.612057
   146  H    0.425886
 Sum of Mulliken charges =   1.00000

 Dipole moment (field-independent basis, Debye):
    X=            -36.6560    Y=            -26.1446    Z=            -23.2933  Tot=             50.6930
 Quadrupole moment (field-independent basis, Debye-Ang):
   XX=            107.0381   YY=           -444.1807   ZZ=           -412.2916
   XY=             51.4291   XZ=             97.1874   YZ=            -67.3419

 Normal termination of Gaussian 16 at Sun Jun 19 12:04:51 2022.
