 Gaussian 16, Revision C.01,
 Gaussian 16:  ES64L-G16RevC.01  3-Jul-2019

 -------------------------------------------------------------------
 # B3LYP/6-31G* guess=read geom=check nosymm integral(ultrafinegrid)
 -------------------------------------------------------------------

 ------------------------------------------------------
 Candidate Structure: Conf:669 Charge calc in gas phase
 ------------------------------------------------------
 Structure from the checkpoint file:  "conf-669.chk"
 Charge =  1 Multiplicity = 1

                          Input orientation:
 ---------------------------------------------------------------------
 Center     Atomic      Atomic             Coordinates (Angstroms)
 Number     Number       Type             X           Y           Z
 ---------------------------------------------------------------------
      1          7           0      -10.022601   -7.304701   -7.917569
      2          1           0       -9.875159   -7.402297   -8.926039
      3          1           0       -9.333520   -7.921494   -7.419495
      4          1           0      -11.008040   -7.518370   -7.694857
      5          6           0       -9.704060   -5.924206   -7.405554
      6          1           0       -9.805225   -5.217563   -8.231525
      7          6           0       -8.257249   -6.040131   -6.862345
      8          6           0      -10.715815   -5.603853   -6.291751
      9          1           0      -10.673581   -4.529893   -6.074177
     10          1           0      -10.454669   -6.156917   -5.378036
     11          8           0       -7.819598   -7.179914   -6.659994
     12          8           0      -11.977330   -6.006178   -6.805668
     13          1           0      -12.663977   -5.889451   -6.129563
     14          7           0       -7.629929   -4.895781   -6.619224
     15          1           0       -8.054912   -3.978782   -6.780460
     16          6           0       -6.309033   -4.783726   -5.995318
     17          1           0       -6.273699   -5.459369   -5.133265
     18          6           0       -6.236121   -3.315530   -5.516274
     19          6           0       -5.174839   -5.135433   -6.971385
     20          1           0       -4.204542   -5.048524   -6.473839
     21          1           0       -5.183481   -4.460665   -7.833103
     22          1           0       -5.289369   -6.165414   -7.319303
     23          8           0       -7.086583   -2.506350   -5.927448
     24          7           0       -5.227960   -3.022968   -4.696813
     25          1           0       -4.615596   -3.749963   -4.322251
     26          6           0       -4.882068   -1.699878   -4.161003
     27          1           0       -4.823495   -0.976915   -4.982243
     28          6           0       -3.484120   -1.920017   -3.542864
     29          6           0       -5.974456   -1.175236   -3.162252
     30          1           0       -6.332392   -2.063081   -2.613096
     31          8           0       -3.154496   -3.047656   -3.163879
     32          6           0       -5.481895   -0.146336   -2.150558
     33          1           0       -4.748522   -0.572094   -1.459601
     34          1           0       -5.043103    0.730010   -2.637534
     35          1           0       -6.344439    0.195664   -1.571483
     36          8           0       -7.026200   -0.559541   -3.881131
     37          1           0       -7.260065   -1.130427   -4.637682
     38          7           0       -2.686808   -0.836158   -3.495087
     39          1           0       -3.073218    0.087365   -3.677489
     40          6           0       -1.437550   -0.785674   -2.741308
     41          1           0       -1.452206   -1.604565   -2.014386
     42          6           0       -1.443373    0.574353   -2.011220
     43          6           0       -0.169469   -0.938720   -3.634020
     44          1           0        0.687755   -0.818213   -2.956018
     45          8           0       -2.175803    1.488186   -2.398457
     46          6           0       -0.086812   -2.342243   -4.249200
     47          1           0       -0.907576   -2.512972   -4.954498
     48          1           0       -0.138077   -3.124472   -3.484924
     49          1           0        0.854992   -2.458105   -4.797030
     50          6           0       -0.078912    0.149897   -4.713052
     51          1           0       -0.909057    0.065513   -5.424256
     52          1           0       -0.102936    1.158879   -4.288767
     53          1           0        0.853205    0.043752   -5.278070
     54          7           0       -0.595699    0.669092   -0.964858
     55          1           0        0.061543   -0.080917   -0.774960
     56          6           0       -0.285009    1.915238   -0.265400
     57          1           0       -0.728637    2.732563   -0.839549
     58          6           0        1.249880    2.009089   -0.269525
     59          6           0       -0.841220    1.914063    1.189981
     60          1           0       -0.390905    1.038701    1.680154
     61          8           0        1.927445    0.985197   -0.102250
     62          6           0       -2.373269    1.716386    1.233140
     63          1           0       -2.646806    1.570180    2.286690
     64          1           0       -2.624605    0.777790    0.723664
     65          6           0       -0.399534    3.163968    1.970529
     66          1           0       -0.679501    4.092288    1.458525
     67          1           0        0.682401    3.184872    2.131227
     68          1           0       -0.877752    3.177528    2.955947
     69          6           0       -3.220866    2.852582    0.645830
     70          1           0       -4.286176    2.630618    0.776255
     71          1           0       -3.026481    3.808815    1.143751
     72          1           0       -3.043814    2.976104   -0.427345
     73          7           0        1.783935    3.229772   -0.469569
     74          1           0        1.208033    4.068655   -0.446798
     75          6           0        3.228090    3.472628   -0.430995
     76          1           0        3.707828    2.586281   -0.858988
     77          6           0        3.752301    3.645459    1.016334
     78          6           0        3.600351    4.698725   -1.271972
     79          1           0        4.679554    4.853797   -1.239121
     80          1           0        3.315378    4.519089   -2.316582
     81          8           0        4.231953    4.707804    1.401758
     82          6           0        2.897874    5.964137   -0.823162
     83          8           0        1.745545    6.016870   -0.426714
     84          8           0        3.655432    7.058595   -0.985975
     85          7           0        3.617928    2.546297    1.800248
     86          1           0        3.362847    1.672844    1.347665
     87          6           0        4.209467    2.506160    3.129398
     88          1           0        3.868602    3.392409    3.672959
     89          6           0        5.749127    2.521431    2.997680
     90          6           0        3.733969    1.223815    3.870149
     91          1           0        4.366776    0.384447    3.549327
     92          1           0        2.719520    1.001200    3.519922
     93          8           0        6.309420    1.936352    2.076486
     94          6           0        3.657144    1.329615    5.361135
     95          6           0        2.554922    1.294996    6.188351
     96          1           0        1.518722    1.180238    5.893668
     97          7           0        4.732967    1.483011    6.218997
     98          1           0        5.729259    1.576822    5.992874
     99          6           0        4.227014    1.532328    7.484514
    100          1           0        4.867468    1.652988    8.348239
    101          7           0        2.913559    1.419971    7.508932
    102          7           0        6.405111    3.187085    3.983857
    103          1           0        5.868604    3.627421    4.719582
    104          6           0        7.852132    3.249922    4.071778
    105          1           0        8.222455    2.721684    3.188736
    106          6           0        8.332839    2.477101    5.322069
    107          6           0        8.348038    4.714610    4.057625
    108          1           0        7.969483    5.216610    4.960207
    109          1           0        9.442363    4.723025    4.145943
    110          8           0        7.535183    1.977696    6.129391
    111          6           0        7.939193    5.527453    2.812271
    112          1           0        6.843953    5.505608    2.734241
    113          6           0        8.375471    6.990383    2.984646
    114          1           0        9.468055    7.072444    3.055857
    115          1           0        8.051517    7.597748    2.131727
    116          1           0        7.948638    7.433751    3.892440
    117          6           0        8.509896    4.934754    1.514312
    118          1           0        9.605805    4.869066    1.557683
    119          1           0        8.251122    5.570223    0.659277
    120          1           0        8.111727    3.935228    1.310653
    121          7           0        9.663879    2.380586    5.463882
    122          1           0       10.318602    2.859728    4.846831
    123          6           0       10.335583    1.812902    6.627297
    124          1           0        9.860645    2.189057    7.539244
    125          6           0       11.810811    2.283239    6.556216
    126          6           0       10.271025    0.261701    6.643527
    127          1           0        9.245836   -0.026227    6.395191
    128          1           0       10.451332   -0.077338    7.670045
    129          8           0       12.532747    1.924651    7.551242
    130          6           0       11.279523   -0.414228    5.681388
    131          1           0       10.819789   -1.285709    5.200014
    132          1           0       11.537105    0.286324    4.878431
    133          6           0       12.577722   -0.855942    6.401940
    134          1           0       12.744776   -0.234398    7.279571
    135          1           0       12.495414   -1.895610    6.739047
    136          7           0       13.781555   -0.766359    5.560780
    137          1           0       13.764473   -1.289717    4.694887
    138          7           0       14.750554    1.129241    6.542623
    139          1           0       15.563720    1.730706    6.569692
    140          1           0       13.824424    1.541796    7.006324
    141          7           0       15.786809    0.028489    4.756058
    142          1           0       16.549881    0.687434    4.812064
    143          1           0       16.051413   -0.901438    4.461254
    144          6           0       14.757372    0.157882    5.652247
    145          8           0       12.196991    2.854859    5.520952
    146          1           0        3.116036    7.819732   -0.697071
 ---------------------------------------------------------------------

 SCF Done:  E(RB3LYP) =  -3503.38101086     A.U. after    3 cycles

 Alpha  occ. eigenvalues --  -19.31447 -19.27329 -19.24301 -19.23488 -19.19867
 Alpha  occ. eigenvalues --  -19.19408 -19.18897 -19.18258 -19.17707 -19.15940
 Alpha  occ. eigenvalues --  -19.14627 -19.14196 -19.11895 -19.11438 -14.60532
 Alpha  occ. eigenvalues --  -14.50239 -14.46347 -14.43963 -14.43635 -14.43334
 Alpha  occ. eigenvalues --  -14.42244 -14.41685 -14.40416 -14.39459 -14.39125
 Alpha  occ. eigenvalues --  -14.38495 -14.37543 -14.31489 -10.44475 -10.41762
 Alpha  occ. eigenvalues --  -10.40443 -10.40267 -10.39188 -10.37326 -10.36968
 Alpha  occ. eigenvalues --  -10.35739 -10.35280 -10.34576 -10.32705 -10.31815
 Alpha  occ. eigenvalues --  -10.31505 -10.31380 -10.31177 -10.29840 -10.29355
 Alpha  occ. eigenvalues --  -10.28990 -10.28978 -10.28722 -10.26852 -10.26818
 Alpha  occ. eigenvalues --  -10.25927 -10.25857 -10.25432 -10.24335 -10.24060
 Alpha  occ. eigenvalues --  -10.24036 -10.23485 -10.23430 -10.23018 -10.22973
 Alpha  occ. eigenvalues --  -10.22854 -10.22382 -10.22330 -10.21739 -10.21497
 Alpha  occ. eigenvalues --  -10.21189 -10.20875 -10.20858 -10.20348 -10.19279
 Alpha  occ. eigenvalues --  -10.18986  -1.20227  -1.18577  -1.15448  -1.15207
 Alpha  occ. eigenvalues --   -1.14215  -1.11819  -1.10173  -1.09320  -1.07711
 Alpha  occ. eigenvalues --   -1.07658  -1.07575  -1.06732  -1.06477  -1.06280
 Alpha  occ. eigenvalues --   -1.05754  -1.05024  -1.02724  -1.01308  -0.99962
 Alpha  occ. eigenvalues --   -0.98744  -0.98210  -0.97413  -0.96768  -0.96033
 Alpha  occ. eigenvalues --   -0.95490  -0.94794  -0.93983  -0.93684  -0.89011
 Alpha  occ. eigenvalues --   -0.87270  -0.87063  -0.85744  -0.84216  -0.84124
 Alpha  occ. eigenvalues --   -0.83522  -0.82625  -0.81804  -0.81205  -0.79697
 Alpha  occ. eigenvalues --   -0.79081  -0.78506  -0.77568  -0.76713  -0.76437
 Alpha  occ. eigenvalues --   -0.75591  -0.75246  -0.74455  -0.74342  -0.74007
 Alpha  occ. eigenvalues --   -0.72745  -0.71798  -0.71168  -0.70048  -0.69563
 Alpha  occ. eigenvalues --   -0.68912  -0.68452  -0.68388  -0.68284  -0.67523
 Alpha  occ. eigenvalues --   -0.67047  -0.65970  -0.65683  -0.65378  -0.65315
 Alpha  occ. eigenvalues --   -0.64881  -0.64783  -0.64259  -0.63588  -0.62964
 Alpha  occ. eigenvalues --   -0.62582  -0.61888  -0.61652  -0.61501  -0.61102
 Alpha  occ. eigenvalues --   -0.60819  -0.60504  -0.59664  -0.59520  -0.59352
 Alpha  occ. eigenvalues --   -0.59125  -0.58793  -0.58579  -0.58431  -0.57282
 Alpha  occ. eigenvalues --   -0.57153  -0.56947  -0.56500  -0.55684  -0.55461
 Alpha  occ. eigenvalues --   -0.55262  -0.54784  -0.54739  -0.54110  -0.54096
 Alpha  occ. eigenvalues --   -0.53597  -0.53481  -0.53421  -0.52823  -0.52676
 Alpha  occ. eigenvalues --   -0.52327  -0.51958  -0.51643  -0.51440  -0.51251
 Alpha  occ. eigenvalues --   -0.51041  -0.50778  -0.50455  -0.50311  -0.49759
 Alpha  occ. eigenvalues --   -0.49674  -0.49574  -0.49528  -0.49369  -0.49148
 Alpha  occ. eigenvalues --   -0.48646  -0.48269  -0.48142  -0.48062  -0.47653
 Alpha  occ. eigenvalues --   -0.47455  -0.47266  -0.46899  -0.46721  -0.46264
 Alpha  occ. eigenvalues --   -0.45838  -0.45829  -0.45482  -0.45316  -0.45182
 Alpha  occ. eigenvalues --   -0.44889  -0.44578  -0.44379  -0.44230  -0.44054
 Alpha  occ. eigenvalues --   -0.44015  -0.43909  -0.43823  -0.43667  -0.43483
 Alpha  occ. eigenvalues --   -0.43310  -0.43229  -0.43174  -0.42930  -0.42704
 Alpha  occ. eigenvalues --   -0.42404  -0.42318  -0.42242  -0.42129  -0.41920
 Alpha  occ. eigenvalues --   -0.41660  -0.41280  -0.41179  -0.40983  -0.40901
 Alpha  occ. eigenvalues --   -0.40655  -0.40615  -0.40399  -0.40241  -0.40030
 Alpha  occ. eigenvalues --   -0.39929  -0.39767  -0.39616  -0.39426  -0.39223
 Alpha  occ. eigenvalues --   -0.39154  -0.38685  -0.38033  -0.37526  -0.37267
 Alpha  occ. eigenvalues --   -0.37081  -0.36731  -0.36686  -0.36437  -0.36095
 Alpha  occ. eigenvalues --   -0.35288  -0.35079  -0.34536  -0.34520  -0.34451
 Alpha  occ. eigenvalues --   -0.34350  -0.33573  -0.33496  -0.32517  -0.32405
 Alpha  occ. eigenvalues --   -0.32110  -0.31599  -0.31577  -0.30657  -0.30175
 Alpha  occ. eigenvalues --   -0.29067  -0.28748  -0.28540  -0.28327  -0.27993
 Alpha  occ. eigenvalues --   -0.27797  -0.27034  -0.26951  -0.26471  -0.25585
 Alpha  occ. eigenvalues --   -0.23042
 Alpha virt. eigenvalues --   -0.13184  -0.11132  -0.08952  -0.07195  -0.05806
 Alpha virt. eigenvalues --   -0.04886  -0.04688  -0.03833  -0.03799  -0.03662
 Alpha virt. eigenvalues --   -0.03376  -0.02311  -0.01718  -0.01349  -0.01203

 Mulliken charges:
               1
     1  N   -0.743951
     2  H    0.420107
     3  H    0.427623
     4  H    0.430809
     5  C   -0.129519
     6  H    0.228355
     7  C    0.648670
     8  C   -0.049397
     9  H    0.201683
    10  H    0.184423
    11  O   -0.532431
    12  O   -0.629968
    13  H    0.442175
    14  N   -0.610680
    15  H    0.375942
    16  C   -0.055228
    17  H    0.199259
    18  C    0.638963
    19  C   -0.453006
    20  H    0.184550
    21  H    0.173891
    22  H    0.188812
    23  O   -0.571491
    24  N   -0.627455
    25  H    0.370519
    26  C   -0.077967
    27  H    0.185509
    28  C    0.608399
    29  C    0.167550
    30  H    0.119161
    31  O   -0.547479
    32  C   -0.472591
    33  H    0.154002
    34  H    0.172883
    35  H    0.177388
    36  O   -0.650580
    37  H    0.423082
    38  N   -0.601852
    39  H    0.366058
    40  C   -0.070750
    41  H    0.179671
    42  C    0.629549
    43  C   -0.079904
    44  H    0.144165
    45  O   -0.546452
    46  C   -0.441144
    47  H    0.143061
    48  H    0.157763
    49  H    0.151375
    50  C   -0.461316
    51  H    0.145654
    52  H    0.163896
    53  H    0.155838
    54  N   -0.604306
    55  H    0.353849
    56  C   -0.063920
    57  H    0.182525
    58  C    0.633084
    59  C   -0.070262
    60  H    0.135616
    61  O   -0.572420
    62  C   -0.257430
    63  H    0.141302
    64  H    0.131790
    65  C   -0.486161
    66  H    0.156877
    67  H    0.166826
    68  H    0.160999
    69  C   -0.468851
    70  H    0.144113
    71  H    0.149629
    72  H    0.173630
    73  N   -0.611225
    74  H    0.379377
    75  C   -0.092915
    76  H    0.196668
    77  C    0.658675
    78  C   -0.369079
    79  H    0.207319
    80  H    0.186143
    81  O   -0.525999
    82  C    0.624322
    83  O   -0.492067
    84  O   -0.549827
    85  N   -0.629681
    86  H    0.371490
    87  C   -0.019795
    88  H    0.170066
    89  C    0.629624
    90  C   -0.397994
    91  H    0.175222
    92  H    0.164750
    93  O   -0.541918
    94  C    0.314035
    95  C   -0.082976
    96  H    0.114162
    97  N   -0.639853
    98  H    0.391297
    99  C    0.190508
   100  H    0.154080
   101  N   -0.429661
   102  N   -0.590756
   103  H    0.337529
   104  C   -0.085548
   105  H    0.200438
   106  C    0.634215
   107  C   -0.274901
   108  H    0.136562
   109  H    0.150147
   110  O   -0.563995
   111  C   -0.072485
   112  H    0.154671
   113  C   -0.444945
   114  H    0.141172
   115  H    0.143685
   116  H    0.139995
   117  C   -0.464326
   118  H    0.132899
   119  H    0.141056
   120  H    0.169050
   121  N   -0.610189
   122  H    0.359689
   123  C   -0.040782
   124  H    0.171039
   125  C    0.594754
   126  C   -0.267796
   127  H    0.169188
   128  H    0.152881
   129  O   -0.633909
   130  C   -0.294532
   131  H    0.138947
   132  H    0.166907
   133  C   -0.171269
   134  H    0.221813
   135  H    0.160956
   136  N   -0.601732
   137  H    0.341131
   138  N   -0.767654
   139  H    0.338027
   140  H    0.454027
   141  N   -0.763349
   142  H    0.356285
   143  H    0.352782
   144  C    0.777714
   145  O   -0.567127
   146  H    0.418474
 Sum of Mulliken charges =   1.00000

 Dipole moment (field-independent basis, Debye):
    X=            -21.7112    Y=            -28.8593    Z=            -33.1716  Tot=             49.0367
 Quadrupole moment (field-independent basis, Debye-Ang):
   XX=            311.3796   YY=           -239.5902   ZZ=           -231.9477
   XY=            225.1657   XZ=            343.7799   YZ=            168.9403

 Normal termination of Gaussian 16 at Sun Jun 19 12:04:47 2022.
