 Gaussian 16, Revision C.01,
 Gaussian 16:  ES64L-G16RevC.01  3-Jul-2019

 -------------------------------------------------------------------
 # B3LYP/6-31G* guess=read geom=check nosymm integral(ultrafinegrid)
 -------------------------------------------------------------------

 ------------------------------------------------------
 Candidate Structure: Conf:234 Charge calc in gas phase
 ------------------------------------------------------
 Structure from the checkpoint file:  "conf-234.chk"
 Charge =  1 Multiplicity = 1

                          Input orientation:
 ---------------------------------------------------------------------
 Center     Atomic      Atomic             Coordinates (Angstroms)
 Number     Number       Type             X           Y           Z
 ---------------------------------------------------------------------
      1          7           0       -1.949398   -6.426880   -5.662256
      2          1           0       -1.428331   -5.768284   -6.274394
      3          1           0       -1.972762   -5.959763   -4.711660
      4          1           0       -1.488764   -7.339388   -5.619098
      5          6           0       -3.337551   -6.469119   -6.248274
      6          1           0       -3.302584   -7.091286   -7.148296
      7          6           0       -3.568740   -4.985598   -6.644159
      8          6           0       -4.325451   -7.069562   -5.242996
      9          1           0       -4.367534   -6.432887   -4.347746
     10          1           0       -3.985017   -8.072381   -4.945758
     11          8           0       -2.556090   -4.326041   -6.923370
     12          8           0       -5.571074   -7.125107   -5.917207
     13          1           0       -6.228960   -7.555164   -5.347687
     14          7           0       -4.812317   -4.506472   -6.585845
     15          1           0       -5.557532   -5.156104   -6.341254
     16          6           0       -5.094356   -3.053807   -6.551258
     17          1           0       -4.390137   -2.578139   -7.240033
     18          6           0       -4.798487   -2.587306   -5.097185
     19          6           0       -6.531273   -2.773023   -6.965310
     20          1           0       -6.712813   -1.695500   -6.956204
     21          1           0       -7.237540   -3.225929   -6.263230
     22          1           0       -6.720539   -3.150954   -7.974048
     23          8           0       -5.685733   -2.292620   -4.304997
     24          7           0       -3.479432   -2.636932   -4.765887
     25          1           0       -2.796548   -2.795727   -5.498442
     26          6           0       -3.006675   -2.511350   -3.392238
     27          1           0       -3.864449   -2.722266   -2.745269
     28          6           0       -2.507590   -1.070394   -3.161361
     29          6           0       -1.882065   -3.529367   -3.114486
     30          1           0       -1.066076   -3.352016   -3.819865
     31          8           0       -1.317389   -0.787827   -3.307808
     32          6           0       -1.353188   -3.495615   -1.688469
     33          1           0       -0.888991   -2.534964   -1.450444
     34          1           0       -2.163795   -3.667615   -0.966346
     35          1           0       -0.595217   -4.274600   -1.554605
     36          8           0       -2.374048   -4.882810   -3.420253
     37          1           0       -2.685125   -5.263081   -2.582632
     38          7           0       -3.465535   -0.176231   -2.835020
     39          1           0       -4.424890   -0.493408   -2.756292
     40          6           0       -3.178051    1.258733   -2.671179
     41          1           0       -2.275540    1.444001   -3.264993
     42          6           0       -2.836873    1.533477   -1.175943
     43          6           0       -4.326962    2.146915   -3.190220
     44          1           0       -5.151491    2.075254   -2.468768
     45          8           0       -3.507895    2.282596   -0.472505
     46          6           0       -3.875420    3.616032   -3.242079
     47          1           0       -3.046305    3.745492   -3.950240
     48          1           0       -3.558476    3.968762   -2.258979
     49          1           0       -4.701003    4.251552   -3.580214
     50          6           0       -4.825408    1.697447   -4.573608
     51          1           0       -4.010722    1.709231   -5.309371
     52          1           0       -5.259195    0.691471   -4.566092
     53          1           0       -5.600690    2.384938   -4.928627
     54          7           0       -1.751197    0.851109   -0.733053
     55          1           0       -1.234022    0.250990   -1.370025
     56          6           0       -1.260942    0.916026    0.640563
     57          1           0       -1.107558    1.969509    0.899076
     58          6           0        0.083868    0.173499    0.641452
     59          6           0       -2.273596    0.316983    1.672088
     60          1           0       -3.199145    0.875625    1.492707
     61          8           0        0.265118   -0.825970   -0.064492
     62          6           0       -1.863253    0.563274    3.139196
     63          1           0       -0.909118    0.062257    3.352711
     64          1           0       -2.609463    0.061765    3.769711
     65          6           0       -2.555968   -1.171152    1.423137
     66          1           0       -1.675281   -1.792558    1.620525
     67          1           0       -2.864011   -1.345920    0.386630
     68          1           0       -3.366023   -1.512919    2.077598
     69          6           0       -1.785235    2.036052    3.563474
     70          1           0       -1.624193    2.116775    4.643758
     71          1           0       -0.962560    2.576517    3.080907
     72          1           0       -2.713019    2.567021    3.320591
     73          7           0        1.032236    0.669616    1.461119
     74          1           0        0.889207    1.516266    2.004563
     75          6           0        2.342186    0.063021    1.637239
     76          1           0        2.228342   -1.012052    1.809646
     77          6           0        2.956491    0.745972    2.876013
     78          6           0        3.224617    0.268825    0.383365
     79          1           0        2.625541    0.002141   -0.494332
     80          1           0        3.506933    1.320860    0.275744
     81          8           0        2.514503    1.815941    3.287967
     82          6           0        4.486198   -0.574056    0.339978
     83          8           0        4.759819   -1.463711    1.139258
     84          8           0        5.241295   -0.244836   -0.696242
     85          7           0        3.995332    0.074329    3.439760
     86          1           0        4.363891   -0.686324    2.866124
     87          6           0        4.952061    0.768445    4.288832
     88          1           0        4.478495    1.717057    4.565240
     89          6           0        6.195539    1.084247    3.411130
     90          6           0        5.219927   -0.061156    5.566379
     91          1           0        5.824014   -0.942256    5.304906
     92          1           0        4.244363   -0.445815    5.890768
     93          8           0        6.081441    1.144017    2.183789
     94          6           0        5.865641    0.694498    6.692380
     95          6           0        6.003025    2.035265    6.987712
     96          1           0        5.684125    2.882310    6.394517
     97          7           0        6.428179    0.049565    7.782542
     98          1           0        6.488681   -0.950539    7.914039
     99          6           0        6.860217    1.009999    8.655641
    100          1           0        7.342754    0.764847    9.592483
    101          7           0        6.624445    2.219787    8.203699
    102          7           0        7.384879    1.260494    4.030125
    103          1           0        7.429763    1.254922    5.043413
    104          6           0        8.618336    1.520684    3.271702
    105          1           0        8.316129    2.079951    2.381892
    106          6           0        9.212572    0.159612    2.821263
    107          6           0        9.600902    2.329759    4.123076
    108          1           0        9.050388    3.171332    4.565308
    109          1           0        9.945341    1.692713    4.946623
    110          8           0       10.213747   -0.322448    3.359031
    111          6           0       10.831243    2.873172    3.366894
    112          1           0       11.321939    2.023415    2.875237
    113          6           0       10.455383    3.909412    2.296168
    114          1           0        9.946415    4.772023    2.745784
    115          1           0       11.352359    4.282752    1.789016
    116          1           0        9.795319    3.497830    1.524074
    117          6           0       11.828913    3.473131    4.369168
    118          1           0       11.384779    4.318731    4.910351
    119          1           0       12.725628    3.841560    3.857951
    120          1           0       12.145620    2.730199    5.110396
    121          7           0        8.517126   -0.453702    1.830005
    122          1           0        7.672388   -0.008406    1.477949
    123          6           0        8.884340   -1.766093    1.328579
    124          1           0        9.956925   -1.857153    1.475689
    125          6           0        8.601624   -1.900897   -0.165995
    126          6           0        8.159659   -2.936001    2.054543
    127          1           0        8.175597   -3.818835    1.403682
    128          1           0        7.106709   -2.650388    2.163294
    129          8           0        9.289224   -2.850072   -0.778964
    130          6           0        8.768571   -3.322966    3.407984
    131          1           0        8.857105   -2.443827    4.057004
    132          1           0        8.077294   -4.014087    3.910005
    133          6           0       10.127548   -4.043056    3.327166
    134          1           0       10.350683   -4.463422    4.317274
    135          1           0       10.074340   -4.876830    2.622314
    136          7           0       11.271533   -3.223023    2.933283
    137          1           0       11.362188   -2.328081    3.405404
    138          7           0       11.347079   -3.899417    0.688763
    139          1           0       12.033537   -4.046868   -0.051834
    140          1           0        9.975417   -3.284609   -0.165399
    141          7           0       13.119858   -2.670818    1.696075
    142          1           0       13.647065   -2.692865    0.834923
    143          1           0       13.673425   -2.686919    2.542124
    144          6           0       11.896983   -3.310423    1.715690
    145          8           0        7.765172   -1.235305   -0.758326
    146          1           0        6.109332   -0.726033   -0.666950
 ---------------------------------------------------------------------

 SCF Done:  E(RB3LYP) =  -3503.38910626     A.U. after    2 cycles

 Alpha  occ. eigenvalues --  -19.30957 -19.29989 -19.26911 -19.22390 -19.21998
 Alpha  occ. eigenvalues --  -19.21684 -19.19957 -19.18198 -19.18094 -19.17578
 Alpha  occ. eigenvalues --  -19.17516 -19.17425 -19.16744 -19.16560 -14.59563
 Alpha  occ. eigenvalues --  -14.50074 -14.46400 -14.44495 -14.44324 -14.41913
 Alpha  occ. eigenvalues --  -14.41566 -14.40853 -14.40665 -14.40519 -14.40382
 Alpha  occ. eigenvalues --  -14.39835 -14.36092 -14.35298 -10.44101 -10.41383
 Alpha  occ. eigenvalues --  -10.40266 -10.39388 -10.37272 -10.36550 -10.36306
 Alpha  occ. eigenvalues --  -10.35928 -10.35075 -10.34869 -10.34692 -10.34447
 Alpha  occ. eigenvalues --  -10.34385 -10.33757 -10.33657 -10.33476 -10.29609
 Alpha  occ. eigenvalues --  -10.29303 -10.29211 -10.29021 -10.28389 -10.28100
 Alpha  occ. eigenvalues --  -10.28018 -10.27882 -10.27780 -10.27143 -10.26744
 Alpha  occ. eigenvalues --  -10.26708 -10.25016 -10.24983 -10.24745 -10.24028
 Alpha  occ. eigenvalues --  -10.23801 -10.23659 -10.23312 -10.22809 -10.22723
 Alpha  occ. eigenvalues --  -10.22613 -10.22489 -10.21850 -10.21702 -10.20867
 Alpha  occ. eigenvalues --  -10.20672  -1.19644  -1.18117  -1.15935  -1.14305
 Alpha  occ. eigenvalues --   -1.13942  -1.13580  -1.13391  -1.11905  -1.10021
 Alpha  occ. eigenvalues --   -1.09452  -1.08865  -1.08193  -1.08079  -1.06554
 Alpha  occ. eigenvalues --   -1.06505  -1.05451  -1.04915  -1.03539  -1.02873
 Alpha  occ. eigenvalues --   -1.00381  -0.98230  -0.98095  -0.97860  -0.97032
 Alpha  occ. eigenvalues --   -0.96899  -0.94244  -0.92987  -0.92188  -0.90140
 Alpha  occ. eigenvalues --   -0.89248  -0.87475  -0.86501  -0.86181  -0.85587
 Alpha  occ. eigenvalues --   -0.84765  -0.84262  -0.83316  -0.81404  -0.81243
 Alpha  occ. eigenvalues --   -0.80182  -0.79066  -0.78721  -0.77578  -0.77091
 Alpha  occ. eigenvalues --   -0.76111  -0.75567  -0.74670  -0.73898  -0.73527
 Alpha  occ. eigenvalues --   -0.73059  -0.72506  -0.72373  -0.71684  -0.71522
 Alpha  occ. eigenvalues --   -0.71344  -0.69362  -0.69084  -0.68478  -0.67945
 Alpha  occ. eigenvalues --   -0.66883  -0.66714  -0.66423  -0.65830  -0.65705
 Alpha  occ. eigenvalues --   -0.65447  -0.64631  -0.64445  -0.64120  -0.63992
 Alpha  occ. eigenvalues --   -0.63637  -0.63293  -0.63200  -0.62969  -0.62724
 Alpha  occ. eigenvalues --   -0.62113  -0.61609  -0.60698  -0.60605  -0.60286
 Alpha  occ. eigenvalues --   -0.59969  -0.59672  -0.59567  -0.59531  -0.59079
 Alpha  occ. eigenvalues --   -0.58660  -0.58285  -0.57873  -0.57423  -0.56984
 Alpha  occ. eigenvalues --   -0.55999  -0.55593  -0.55472  -0.54987  -0.54801
 Alpha  occ. eigenvalues --   -0.54284  -0.53858  -0.53489  -0.53334  -0.53258
 Alpha  occ. eigenvalues --   -0.52729  -0.52529  -0.52241  -0.52135  -0.51677
 Alpha  occ. eigenvalues --   -0.51535  -0.51323  -0.51042  -0.50809  -0.50522
 Alpha  occ. eigenvalues --   -0.50400  -0.50120  -0.50024  -0.49614  -0.49563
 Alpha  occ. eigenvalues --   -0.49373  -0.49275  -0.49265  -0.48847  -0.48552
 Alpha  occ. eigenvalues --   -0.48499  -0.48287  -0.48074  -0.47956  -0.47834
 Alpha  occ. eigenvalues --   -0.47625  -0.47442  -0.47231  -0.47024  -0.46890
 Alpha  occ. eigenvalues --   -0.46723  -0.46521  -0.46408  -0.46309  -0.45980
 Alpha  occ. eigenvalues --   -0.45954  -0.45735  -0.45674  -0.45561  -0.45304
 Alpha  occ. eigenvalues --   -0.45051  -0.44810  -0.44356  -0.44196  -0.43981
 Alpha  occ. eigenvalues --   -0.43829  -0.43706  -0.43541  -0.43420  -0.43055
 Alpha  occ. eigenvalues --   -0.42881  -0.42566  -0.42300  -0.41922  -0.41753
 Alpha  occ. eigenvalues --   -0.41591  -0.41505  -0.41341  -0.41248  -0.41182
 Alpha  occ. eigenvalues --   -0.40861  -0.40679  -0.40538  -0.40194  -0.40080
 Alpha  occ. eigenvalues --   -0.39816  -0.39801  -0.39185  -0.38898  -0.38868
 Alpha  occ. eigenvalues --   -0.38464  -0.37840  -0.37640  -0.37187  -0.36966
 Alpha  occ. eigenvalues --   -0.36794  -0.36226  -0.35989  -0.35529  -0.35475
 Alpha  occ. eigenvalues --   -0.35103  -0.34608  -0.33572  -0.33211  -0.33000
 Alpha  occ. eigenvalues --   -0.32983  -0.32477  -0.32139  -0.31928  -0.31581
 Alpha  occ. eigenvalues --   -0.31487  -0.31378  -0.30973  -0.30882  -0.30599
 Alpha  occ. eigenvalues --   -0.29801  -0.29603  -0.29424  -0.29403  -0.28420
 Alpha  occ. eigenvalues --   -0.27748
 Alpha virt. eigenvalues --   -0.14085  -0.10283  -0.08690  -0.07665  -0.06949
 Alpha virt. eigenvalues --   -0.05732  -0.04967  -0.04160  -0.03456  -0.03113
 Alpha virt. eigenvalues --   -0.02946  -0.02689  -0.02665  -0.02191  -0.02103

 Mulliken charges:
               1
     1  N   -0.775125
     2  H    0.427151
     3  H    0.445045
     4  H    0.406183
     5  C   -0.121113
     6  H    0.243349
     7  C    0.665804
     8  C   -0.053677
     9  H    0.169014
    10  H    0.167514
    11  O   -0.554343
    12  O   -0.611338
    13  H    0.436831
    14  N   -0.595417
    15  H    0.381940
    16  C   -0.080263
    17  H    0.204542
    18  C    0.622212
    19  C   -0.463674
    20  H    0.194833
    21  H    0.176607
    22  H    0.172504
    23  O   -0.515020
    24  N   -0.611883
    25  H    0.367528
    26  C   -0.066783
    27  H    0.173729
    28  C    0.648441
    29  C    0.110725
    30  H    0.177165
    31  O   -0.538038
    32  C   -0.523268
    33  H    0.260131
    34  H    0.149613
    35  H    0.164028
    36  O   -0.679697
    37  H    0.418918
    38  N   -0.610746
    39  H    0.354569
    40  C   -0.059523
    41  H    0.186355
    42  C    0.630877
    43  C   -0.092058
    44  H    0.152258
    45  O   -0.525711
    46  C   -0.461534
    47  H    0.138221
    48  H    0.186468
    49  H    0.151151
    50  C   -0.459316
    51  H    0.141760
    52  H    0.136046
    53  H    0.158157
    54  N   -0.655495
    55  H    0.378929
    56  C   -0.009991
    57  H    0.167673
    58  C    0.616268
    59  C   -0.090128
    60  H    0.173116
    61  O   -0.561687
    62  C   -0.265927
    63  H    0.134867
    64  H    0.139300
    65  C   -0.458340
    66  H    0.151353
    67  H    0.127627
    68  H    0.142990
    69  C   -0.457070
    70  H    0.155020
    71  H    0.144778
    72  H    0.160604
    73  N   -0.636400
    74  H    0.370393
    75  C   -0.040468
    76  H    0.184922
    77  C    0.600531
    78  C   -0.369726
    79  H    0.213184
    80  H    0.201494
    81  O   -0.527709
    82  C    0.631690
    83  O   -0.525862
    84  O   -0.587417
    85  N   -0.611090
    86  H    0.375976
    87  C   -0.085164
    88  H    0.217657
    89  C    0.620790
    90  C   -0.351635
    91  H    0.152232
    92  H    0.189303
    93  O   -0.539844
    94  C    0.290716
    95  C   -0.088919
    96  H    0.150729
    97  N   -0.608080
    98  H    0.336251
    99  C    0.214191
   100  H    0.169030
   101  N   -0.414818
   102  N   -0.629903
   103  H    0.358438
   104  C   -0.058516
   105  H    0.187506
   106  C    0.635068
   107  C   -0.275461
   108  H    0.143196
   109  H    0.150685
   110  O   -0.557832
   111  C   -0.080067
   112  H    0.146178
   113  C   -0.452399
   114  H    0.144235
   115  H    0.149206
   116  H    0.145337
   117  C   -0.445884
   118  H    0.143831
   119  H    0.145203
   120  H    0.144705
   121  N   -0.617954
   122  H    0.377379
   123  C   -0.074661
   124  H    0.192627
   125  C    0.615492
   126  C   -0.281076
   127  H    0.157202
   128  H    0.169491
   129  O   -0.598591
   130  C   -0.280982
   131  H    0.153703
   132  H    0.135775
   133  C   -0.126149
   134  H    0.147093
   135  H    0.181155
   136  N   -0.604061
   137  H    0.361814
   138  N   -0.731808
   139  H    0.289734
   140  H    0.468778
   141  N   -0.747824
   142  H    0.336632
   143  H    0.341912
   144  C    0.638492
   145  O   -0.508393
   146  H    0.463711
 Sum of Mulliken charges =   1.00000

 Dipole moment (field-independent basis, Debye):
    X=             -3.3177    Y=            -32.7286    Z=            -15.1153  Tot=             36.2028
 Quadrupole moment (field-independent basis, Debye-Ang):
   XX=           -196.0463   YY=           -224.5848   ZZ=           -259.5200
   XY=             52.2483   XZ=            143.8709   YZ=            106.7147

 Normal termination of Gaussian 16 at Sun Jun 19 12:00:03 2022.
