 Gaussian 16, Revision C.01,
 Gaussian 16:  ES64L-G16RevC.01  3-Jul-2019

 -------------------------------------------------------------------
 # B3LYP/6-31G* guess=read geom=check nosymm integral(ultrafinegrid)
 -------------------------------------------------------------------

 ------------------------------------------------------
 Candidate Structure: Conf:432 Charge calc in gas phase
 ------------------------------------------------------
 Structure from the checkpoint file:  "conf-432.chk"
 Charge =  1 Multiplicity = 1

                          Input orientation:
 ---------------------------------------------------------------------
 Center     Atomic      Atomic             Coordinates (Angstroms)
 Number     Number       Type             X           Y           Z
 ---------------------------------------------------------------------
      1          7           0        2.806215   -8.511543   -0.812410
      2          1           0        3.375357   -8.198634   -1.600555
      3          1           0        3.300734   -7.568222    0.408507
      4          1           0        3.022072   -9.481322   -0.592606
      5          6           0        1.384416   -8.393942   -1.180385
      6          1           0        1.070976   -9.243487   -1.809069
      7          6           0        1.226891   -7.131358   -2.046485
      8          6           0        0.526951   -8.437831    0.085718
      9          1           0       -0.540565   -8.330958   -0.164019
     10          1           0        0.811590   -7.607120    0.747421
     11          8           0        2.211717   -6.602986   -2.553672
     12          8           0        0.785765   -9.700410    0.678990
     13          1           0        0.379224   -9.723471    1.558294
     14          7           0       -0.037472   -6.668344   -2.258902
     15          1           0       -0.853194   -7.156542   -1.911271
     16          6           0       -0.275055   -5.593467   -3.215292
     17          1           0        0.630781   -4.981516   -3.212767
     18          6           0       -1.491541   -4.781335   -2.756550
     19          6           0       -0.517375   -6.126829   -4.639891
     20          1           0       -0.666227   -5.302514   -5.345973
     21          1           0       -1.404492   -6.767173   -4.663117
     22          1           0        0.352752   -6.704766   -4.962893
     23          8           0       -2.506436   -5.357041   -2.355307
     24          7           0       -1.338854   -3.439683   -2.885291
     25          1           0       -0.403312   -3.118093   -3.098797
     26          6           0       -2.318491   -2.351846   -2.731826
     27          1           0       -3.036008   -2.375583   -3.561977
     28          6           0       -1.465879   -1.075974   -2.810854
     29          6           0       -3.183398   -2.440563   -1.418934
     30          1           0       -2.489687   -2.719530   -0.604551
     31          8           0       -0.313511   -1.073272   -2.330031
     32          6           0       -3.870367   -1.122457   -1.067005
     33          1           0       -3.167342   -0.314091   -0.844982
     34          1           0       -4.531483   -0.802649   -1.880488
     35          1           0       -4.500359   -1.290775   -0.189636
     36          8           0       -4.202914   -3.388723   -1.571627
     37          1           0       -3.782730   -4.250846   -1.787261
     38          7           0       -1.979407   -0.009696   -3.434974
     39          1           0       -2.939428   -0.040540   -3.754234
     40          6           0       -1.221831    1.232932   -3.643950
     41          1           0       -0.191377    0.929667   -3.857270
     42          6           0       -1.264956    2.116728   -2.371481
     43          6           0       -1.789452    2.006116   -4.856487
     44          1           0       -2.828331    2.261909   -4.605895
     45          8           0       -2.307700    2.655539   -2.015316
     46          6           0       -1.022113    3.320534   -5.068033
     47          1           0        0.042092    3.133345   -5.260219
     48          1           0       -1.109061    3.986405   -4.204616
     49          1           0       -1.425180    3.851793   -5.935929
     50          6           0       -1.764234    1.156743   -6.136668
     51          1           0       -0.735601    0.895352   -6.415224
     52          1           0       -2.330481    0.223725   -6.042281
     53          1           0       -2.199529    1.719326   -6.968752
     54          7           0       -0.068023    2.256147   -1.749851
     55          1           0        0.728990    1.711634   -2.056773
     56          6           0        0.225079    3.193300   -0.667242
     57          1           0       -0.063606    4.197775   -0.998363
     58          6           0        1.759187    3.146331   -0.508924
     59          6           0       -0.563839    2.883149    0.645916
     60          1           0       -1.605843    2.822163    0.312364
     61          8           0        2.410526    2.169014   -0.913111
     62          6           0       -0.485726    4.006644    1.700647
     63          1           0        0.545761    4.112916    2.063350
     64          1           0       -1.066228    3.663718    2.566879
     65          6           0       -0.168957    1.530861    1.248592
     66          1           0        0.862319    1.536039    1.622342
     67          1           0       -0.259632    0.729761    0.508235
     68          1           0       -0.825634    1.289566    2.091988
     69          6           0       -1.038005    5.369282    1.258428
     70          1           0       -1.092305    6.052511    2.112508
     71          1           0       -0.419734    5.861478    0.498512
     72          1           0       -2.049196    5.269678    0.847137
     73          7           0        2.341971    4.217340    0.071737
     74          1           0        1.771709    5.055720    0.163500
     75          6           0        3.783048    4.488364   -0.069676
     76          1           0        4.086547    4.118571   -1.058436
     77          6           0        4.681308    3.762658    0.975923
     78          6           0        4.064601    6.000197    0.036256
     79          1           0        3.951809    6.308022    1.082162
     80          1           0        5.105256    6.186055   -0.228611
     81          8           0        5.430657    4.393511    1.713192
     82          6           0        3.147142    6.868744   -0.796561
     83          8           0        1.927890    6.830021   -0.756897
     84          8           0        3.817105    7.732988   -1.572577
     85          7           0        4.626363    2.406600    0.957581
     86          1           0        3.989367    1.941177    0.314336
     87          6           0        5.569272    1.617542    1.737886
     88          1           0        6.564757    2.062770    1.632845
     89          6           0        5.548027    0.196190    1.187519
     90          6           0        5.232348    1.609047    3.269613
     91          1           0        4.321393    1.015378    3.425564
     92          1           0        4.992157    2.644613    3.521493
     93          8           0        4.499728   -0.303144    0.734271
     94          6           0        6.352154    1.172167    4.159844
     95          6           0        7.235762    1.922583    4.907257
     96          1           0        7.271955    3.001666    4.988345
     97          7           0        6.719874   -0.144556    4.404789
     98          1           0        6.315286   -0.989192    3.996662
     99          6           0        7.776181   -0.108032    5.268650
    100          1           0        8.252869   -1.009802    5.630589
    101          7           0        8.116429    1.122641    5.592787
    102          7           0        6.684659   -0.513557    1.258727
    103          1           0        7.488005   -0.098251    1.715496
    104          6           0        6.753606   -1.932442    0.896297
    105          1           0        6.424409   -2.024371   -0.143177
    106          6           0        5.816853   -2.755643    1.809027
    107          6           0        8.214526   -2.403433    1.048333
    108          1           0        8.850516   -1.704118    0.487386
    109          1           0        8.484030   -2.306057    2.108476
    110          8           0        5.786372   -2.555371    3.029643
    111          6           0        8.518085   -3.839523    0.574320
    112          1           0        7.844743   -4.529455    1.102387
    113          6           0        8.300078   -4.022066   -0.935953
    114          1           0        8.925348   -3.325445   -1.509106
    115          1           0        8.569248   -5.038577   -1.241001
    116          1           0        7.257978   -3.867878   -1.238799
    117          6           0        9.958828   -4.208141    0.961052
    118          1           0       10.681659   -3.551131    0.461037
    119          1           0       10.188367   -5.237850    0.667327
    120          1           0       10.119643   -4.123060    2.041820
    121          7           0        5.079230   -3.691992    1.182368
    122          1           0        5.246081   -3.877948    0.195695
    123          6           0        4.291147   -4.750521    1.816615
    124          1           0        4.806812   -5.093776    2.721331
    125          6           0        4.235315   -5.899318    0.786775
    126          6           0        2.844590   -4.330313    2.165676
    127          1           0        2.311242   -5.235244    2.468001
    128          1           0        2.377437   -3.994623    1.231423
    129          8           0        3.494778   -6.909990    1.196373
    130          6           0        2.705355   -3.244586    3.253900
    131          1           0        2.421833   -3.697685    4.211471
    132          1           0        3.661548   -2.745450    3.428681
    133          6           0        1.649419   -2.190413    2.902466
    134          1           0        0.676233   -2.662999    2.744310
    135          1           0        1.527462   -1.476807    3.724274
    136          7           0        2.019608   -1.438620    1.696779
    137          1           0        2.938420   -0.993620    1.691736
    138          7           0        0.255801   -2.129412    0.306017
    139          1           0       -0.165855   -2.000421   -0.613201
    140          1           0       -0.376390   -2.232708    1.085021
    141          7           0        2.056939   -0.990545   -0.572224
    142          1           0        1.504217   -0.794670   -1.398518
    143          1           0        2.940807   -0.507264   -0.442754
    144          6           0        1.440409   -1.507957    0.495470
    145          8           0        4.787194   -5.814356   -0.299315
    146          1           0        3.154294    8.286605   -2.030398
 ---------------------------------------------------------------------

 SCF Done:  E(RB3LYP) =  -3503.44493414     A.U. after    1 cycles

 Alpha  occ. eigenvalues --  -19.28651 -19.25193 -19.24382 -19.23568 -19.23323
 Alpha  occ. eigenvalues --  -19.23293 -19.22998 -19.22965 -19.21664 -19.21075
 Alpha  occ. eigenvalues --  -19.21009 -19.20652 -19.20108 -19.20023 -14.48708
 Alpha  occ. eigenvalues --  -14.48127 -14.47786 -14.47439 -14.47369 -14.46668
 Alpha  occ. eigenvalues --  -14.45999 -14.45390 -14.45303 -14.44896 -14.44069
 Alpha  occ. eigenvalues --  -14.43471 -14.42451 -14.35816 -10.44228 -10.41738
 Alpha  occ. eigenvalues --  -10.41530 -10.40161 -10.39862 -10.39371 -10.39229
 Alpha  occ. eigenvalues --  -10.38643 -10.38080 -10.37577 -10.37282 -10.34733
 Alpha  occ. eigenvalues --  -10.33967 -10.33748 -10.33653 -10.33373 -10.33347
 Alpha  occ. eigenvalues --  -10.33084 -10.32764 -10.32691 -10.32636 -10.32461
 Alpha  occ. eigenvalues --  -10.32012 -10.29094 -10.28801 -10.28664 -10.27950
 Alpha  occ. eigenvalues --  -10.27885 -10.27809 -10.27725 -10.27572 -10.27294
 Alpha  occ. eigenvalues --  -10.26981 -10.26930 -10.26395 -10.26291 -10.26056
 Alpha  occ. eigenvalues --  -10.25837 -10.25779 -10.24645 -10.24575 -10.24316
 Alpha  occ. eigenvalues --  -10.24117  -1.19753  -1.16689  -1.16486  -1.15236
 Alpha  occ. eigenvalues --   -1.14629  -1.14469  -1.13074  -1.12886  -1.12782
 Alpha  occ. eigenvalues --   -1.12037  -1.11897  -1.10713  -1.10651  -1.09490
 Alpha  occ. eigenvalues --   -1.07996  -1.05947  -1.04724  -1.03555  -1.03497
 Alpha  occ. eigenvalues --   -1.02669  -1.02567  -1.01716  -1.01635  -1.01333
 Alpha  occ. eigenvalues --   -1.00710  -1.00566  -0.98580  -0.91714  -0.90818
 Alpha  occ. eigenvalues --   -0.90255  -0.89553  -0.89001  -0.88195  -0.87973
 Alpha  occ. eigenvalues --   -0.86823  -0.85973  -0.85179  -0.83168  -0.82856
 Alpha  occ. eigenvalues --   -0.82463  -0.81418  -0.80508  -0.80071  -0.78955
 Alpha  occ. eigenvalues --   -0.78115  -0.77157  -0.76867  -0.75442  -0.74882
 Alpha  occ. eigenvalues --   -0.74709  -0.74110  -0.73350  -0.72321  -0.71789
 Alpha  occ. eigenvalues --   -0.71220  -0.70987  -0.70683  -0.70361  -0.69526
 Alpha  occ. eigenvalues --   -0.69005  -0.68923  -0.68482  -0.68144  -0.67828
 Alpha  occ. eigenvalues --   -0.67658  -0.66927  -0.66662  -0.66463  -0.65862
 Alpha  occ. eigenvalues --   -0.65658  -0.64721  -0.64205  -0.63834  -0.63738
 Alpha  occ. eigenvalues --   -0.63244  -0.63073  -0.62210  -0.62045  -0.61621
 Alpha  occ. eigenvalues --   -0.61110  -0.60915  -0.60068  -0.59927  -0.59684
 Alpha  occ. eigenvalues --   -0.59571  -0.59145  -0.58709  -0.58624  -0.58034
 Alpha  occ. eigenvalues --   -0.58004  -0.57842  -0.57609  -0.57196  -0.57045
 Alpha  occ. eigenvalues --   -0.56522  -0.56315  -0.56133  -0.55735  -0.55584
 Alpha  occ. eigenvalues --   -0.55335  -0.54938  -0.54553  -0.54454  -0.54178
 Alpha  occ. eigenvalues --   -0.53962  -0.53759  -0.53683  -0.53532  -0.52928
 Alpha  occ. eigenvalues --   -0.52757  -0.52590  -0.52206  -0.52040  -0.51703
 Alpha  occ. eigenvalues --   -0.51529  -0.51329  -0.51119  -0.50938  -0.50858
 Alpha  occ. eigenvalues --   -0.50751  -0.50639  -0.50395  -0.50176  -0.50063
 Alpha  occ. eigenvalues --   -0.49895  -0.49489  -0.49427  -0.49033  -0.48913
 Alpha  occ. eigenvalues --   -0.48772  -0.48404  -0.48361  -0.48225  -0.48193
 Alpha  occ. eigenvalues --   -0.47818  -0.47494  -0.47403  -0.47299  -0.47274
 Alpha  occ. eigenvalues --   -0.47095  -0.47026  -0.46905  -0.46476  -0.46270
 Alpha  occ. eigenvalues --   -0.46173  -0.45979  -0.45899  -0.45749  -0.45474
 Alpha  occ. eigenvalues --   -0.45436  -0.45325  -0.45257  -0.45050  -0.44755
 Alpha  occ. eigenvalues --   -0.44681  -0.44510  -0.43947  -0.43800  -0.43646
 Alpha  occ. eigenvalues --   -0.43582  -0.43128  -0.43063  -0.42643  -0.42308
 Alpha  occ. eigenvalues --   -0.42047  -0.41779  -0.41246  -0.41063  -0.40815
 Alpha  occ. eigenvalues --   -0.40793  -0.40278  -0.40223  -0.40167  -0.39804
 Alpha  occ. eigenvalues --   -0.39070  -0.38812  -0.38189  -0.38009  -0.37832
 Alpha  occ. eigenvalues --   -0.37541  -0.37206  -0.37055  -0.36711  -0.36631
 Alpha  occ. eigenvalues --   -0.36234  -0.36091  -0.35884  -0.35346  -0.34881
 Alpha  occ. eigenvalues --   -0.34760  -0.34439  -0.34216  -0.34050  -0.33949
 Alpha  occ. eigenvalues --   -0.33926  -0.33256  -0.32844  -0.32683  -0.31219
 Alpha  occ. eigenvalues --   -0.27578
 Alpha virt. eigenvalues --   -0.11066  -0.09944  -0.09162  -0.08703  -0.08503
 Alpha virt. eigenvalues --   -0.08423  -0.07768  -0.06762  -0.06577  -0.06194
 Alpha virt. eigenvalues --   -0.06109  -0.04754  -0.03068  -0.03001  -0.02633

 Mulliken charges:
               1
     1  N   -0.785980
     2  H    0.365486
     3  H    0.479594
     4  H    0.351607
     5  C   -0.083776
     6  H    0.184720
     7  C    0.627396
     8  C   -0.026438
     9  H    0.126715
    10  H    0.146693
    11  O   -0.518006
    12  O   -0.618858
    13  H    0.410614
    14  N   -0.620024
    15  H    0.351632
    16  C   -0.052508
    17  H    0.182617
    18  C    0.637447
    19  C   -0.447786
    20  H    0.158206
    21  H    0.176599
    22  H    0.187454
    23  O   -0.549057
    24  N   -0.646698
    25  H    0.353983
    26  C   -0.031842
    27  H    0.183142
    28  C    0.605816
    29  C    0.162234
    30  H    0.097072
    31  O   -0.588604
    32  C   -0.475091
    33  H    0.156802
    34  H    0.160190
    35  H    0.187936
    36  O   -0.641716
    37  H    0.436368
    38  N   -0.584173
    39  H    0.358892
    40  C   -0.036217
    41  H    0.155363
    42  C    0.635614
    43  C   -0.115937
    44  H    0.164690
    45  O   -0.529335
    46  C   -0.465036
    47  H    0.144499
    48  H    0.173332
    49  H    0.169150
    50  C   -0.450994
    51  H    0.151659
    52  H    0.136049
    53  H    0.173013
    54  N   -0.635257
    55  H    0.355076
    56  C   -0.034092
    57  H    0.189117
    58  C    0.611945
    59  C   -0.087269
    60  H    0.183214
    61  O   -0.578538
    62  C   -0.274150
    63  H    0.137871
    64  H    0.149016
    65  C   -0.474452
    66  H    0.147085
    67  H    0.134593
    68  H    0.152204
    69  C   -0.476296
    70  H    0.161979
    71  H    0.160651
    72  H    0.164772
    73  N   -0.618281
    74  H    0.389647
    75  C   -0.070159
    76  H    0.189359
    77  C    0.636978
    78  C   -0.387200
    79  H    0.221315
    80  H    0.212552
    81  O   -0.512815
    82  C    0.591341
    83  O   -0.480236
    84  O   -0.540798
    85  N   -0.659665
    86  H    0.381944
    87  C   -0.004396
    88  H    0.183988
    89  C    0.622643
    90  C   -0.362988
    91  H    0.142324
    92  H    0.207941
    93  O   -0.600125
    94  C    0.282579
    95  C   -0.073215
    96  H    0.146017
    97  N   -0.643322
    98  H    0.382958
    99  C    0.189570
   100  H    0.158712
   101  N   -0.415031
   102  N   -0.603876
   103  H    0.365527
   104  C   -0.027517
   105  H    0.171694
   106  C    0.644315
   107  C   -0.306834
   108  H    0.156558
   109  H    0.163557
   110  O   -0.554770
   111  C   -0.089152
   112  H    0.139551
   113  C   -0.451179
   114  H    0.147982
   115  H    0.166288
   116  H    0.140687
   117  C   -0.446639
   118  H    0.150487
   119  H    0.158911
   120  H    0.152252
   121  N   -0.608267
   122  H    0.370841
   123  C   -0.054653
   124  H    0.196935
   125  C    0.593516
   126  C   -0.280665
   127  H    0.179923
   128  H    0.145424
   129  O   -0.616726
   130  C   -0.299036
   131  H    0.164017
   132  H    0.203277
   133  C   -0.168243
   134  H    0.152676
   135  H    0.186311
   136  N   -0.611354
   137  H    0.396950
   138  N   -0.793360
   139  H    0.400853
   140  H    0.361828
   141  N   -0.792150
   142  H    0.395438
   143  H    0.413218
   144  C    0.768384
   145  O   -0.491184
   146  H    0.424593
 Sum of Mulliken charges =   1.00000

 Dipole moment (field-independent basis, Debye):
    X=              5.8447    Y=             -8.3385    Z=             -7.4417  Tot=             12.6123
 Quadrupole moment (field-independent basis, Debye-Ang):
   XX=           -396.3433   YY=           -289.3319   ZZ=           -389.5277
   XY=            -18.6828   XZ=            -20.2948   YZ=            -25.3688

 Normal termination of Gaussian 16 at Sun Jun 19 12:04:31 2022.
