 Gaussian 16, Revision C.01,
 Gaussian 16:  ES64L-G16RevC.01  3-Jul-2019

 -------------------------------------------------------------------
 # B3LYP/6-31G* guess=read geom=check nosymm integral(ultrafinegrid)
 -------------------------------------------------------------------

 ------------------------------------------------------
 Candidate Structure: Conf:123 Charge calc in gas phase
 ------------------------------------------------------
 Structure from the checkpoint file:  "conf-123.chk"
 Charge =  1 Multiplicity = 1

                          Input orientation:
 ---------------------------------------------------------------------
 Center     Atomic      Atomic             Coordinates (Angstroms)
 Number     Number       Type             X           Y           Z
 ---------------------------------------------------------------------
      1          7           0      -10.933775   -0.804608   -2.098134
      2          1           0      -11.786721   -0.392249   -2.487434
      3          1           0      -11.009972   -1.865095   -2.133745
      4          1           0      -10.833478   -0.483559   -1.129421
      5          6           0       -9.704506   -0.551936   -2.941177
      6          1           0       -9.925201    0.226093   -3.674523
      7          6           0       -9.433223   -1.924508   -3.592951
      8          6           0       -8.500813   -0.112946   -2.051572
      9          1           0       -8.368054   -0.851761   -1.247510
     10          1           0       -8.740461    0.857487   -1.599369
     11          8           0      -10.048235   -2.904072   -3.154828
     12          8           0       -7.355025    0.027973   -2.836654
     13          1           0       -6.871616   -0.833244   -2.812067
     14          7           0       -8.511567   -1.940271   -4.565827
     15          1           0       -7.985175   -1.076818   -4.674304
     16          6           0       -7.793898   -3.170225   -4.902507
     17          1           0       -8.526184   -3.982264   -4.893042
     18          6           0       -6.743790   -3.435890   -3.788439
     19          6           0       -7.157066   -3.046821   -6.292380
     20          1           0       -6.653648   -3.975623   -6.573261
     21          1           0       -6.411779   -2.243728   -6.316821
     22          1           0       -7.925562   -2.836917   -7.041464
     23          8           0       -6.505681   -2.593366   -2.905593
     24          7           0       -6.130894   -4.622037   -3.843496
     25          1           0       -6.307827   -5.292134   -4.588526
     26          6           0       -5.100155   -5.064152   -2.900107
     27          1           0       -5.335436   -4.643611   -1.918346
     28          6           0       -3.713948   -4.568509   -3.380514
     29          6           0       -5.127953   -6.612147   -2.876305
     30          1           0       -4.236275   -6.946318   -2.328901
     31          8           0       -2.995355   -5.285779   -4.084749
     32          6           0       -6.373321   -7.182981   -2.212317
     33          1           0       -6.424721   -6.887392   -1.158853
     34          1           0       -7.285702   -6.843091   -2.714221
     35          1           0       -6.344722   -8.274603   -2.266886
     36          8           0       -5.085128   -7.077470   -4.222274
     37          1           0       -4.205382   -6.793049   -4.548125
     38          7           0       -3.392463   -3.319584   -2.994420
     39          1           0       -4.011168   -2.795040   -2.382468
     40          6           0       -2.104296   -2.678724   -3.252231
     41          1           0       -1.381254   -3.470779   -3.471747
     42          6           0       -1.764952   -1.943750   -1.940439
     43          6           0       -2.161869   -1.684353   -4.448761
     44          1           0       -2.870874   -0.894862   -4.160870
     45          8           0       -2.660254   -1.363153   -1.320095
     46          6           0       -0.792234   -1.036274   -4.705791
     47          1           0       -0.038870   -1.793088   -4.959983
     48          1           0       -0.426426   -0.474020   -3.841680
     49          1           0       -0.856040   -0.342056   -5.550447
     50          6           0       -2.677311   -2.366154   -5.724043
     51          1           0       -2.018947   -3.186421   -6.030624
     52          1           0       -3.680766   -2.781336   -5.586163
     53          1           0       -2.721417   -1.641961   -6.545517
     54          7           0       -0.478440   -1.985097   -1.544139
     55          1           0        0.243011   -2.424424   -2.108917
     56          6           0        0.027579   -1.259042   -0.384404
     57          1           0       -0.498447   -0.300848   -0.333507
     58          6           0        1.522889   -1.028212   -0.668442
     59          6           0       -0.244558   -2.044727    0.939392
     60          1           0       -1.314310   -2.286674    0.883775
     61          8           0        2.126055   -1.729394   -1.485861
     62          6           0       -0.037626   -1.211125    2.221553
     63          1           0        1.020653   -0.943494    2.337535
     64          1           0       -0.265794   -1.871333    3.068631
     65          6           0        0.547499   -3.358497    1.001057
     66          1           0        1.624352   -3.178331    1.100530
     67          1           0        0.393917   -3.966678    0.103729
     68          1           0        0.230121   -3.951545    1.865786
     69          6           0       -0.908400    0.047112    2.337443
     70          1           0       -0.802128    0.496758    3.330116
     71          1           0       -0.636874    0.820899    1.609178
     72          1           0       -1.968140   -0.188554    2.182947
     73          7           0        2.113902   -0.030243    0.021156
     74          1           0        1.625632    0.501901    0.737051
     75          6           0        3.547691    0.208315   -0.008185
     76          1           0        4.077008   -0.748466    0.062711
     77          6           0        3.848020    1.055199    1.253100
     78          6           0        3.969043    0.883007   -1.333299
     79          1           0        3.417357    0.404354   -2.149051
     80          1           0        3.702237    1.946274   -1.350464
     81          8           0        2.921222    1.470646    1.955725
     82          6           0        5.440870    0.731700   -1.647229
     83          8           0        6.265256    0.189629   -0.936143
     84          8           0        5.749630    1.259744   -2.845445
     85          7           0        5.146493    1.302160    1.512328
     86          1           0        5.877851    0.907869    0.921146
     87          6           0        5.558783    2.092739    2.662555
     88          1           0        4.781469    2.835683    2.860122
     89          6           0        6.893657    2.750411    2.301452
     90          6           0        5.716757    1.192780    3.928945
     91          1           0        6.478932    0.434853    3.706486
     92          1           0        4.764402    0.669703    4.057699
     93          8           0        7.729445    2.134001    1.634872
     94          6           0        6.029480    1.926047    5.194148
     95          6           0        5.234353    2.297626    6.256060
     96          1           0        4.178236    2.097410    6.385791
     97          7           0        7.289705    2.402924    5.525217
     98          1           0        8.124219    2.372325    4.942449
     99          6           0        7.181057    3.031294    6.734049
    100          1           0        8.025640    3.513371    7.208460
    101          7           0        5.954423    2.981666    7.208520
    102          7           0        7.102693    3.994484    2.792278
    103          1           0        6.411502    4.400291    3.410971
    104          6           0        8.366279    4.723022    2.608006
    105          1           0        8.759488    4.393855    1.641772
    106          6           0        9.396420    4.303603    3.684837
    107          6           0        8.105171    6.232526    2.593848
    108          1           0        7.284966    6.410892    1.884152
    109          1           0        7.750891    6.538252    3.587083
    110          8           0        9.791862    5.057890    4.559408
    111          6           0        9.307659    7.119347    2.202613
    112          1           0       10.073088    6.998616    2.977382
    113          6           0        9.925044    6.726957    0.850832
    114          1           0        9.170150    6.727604    0.052336
    115          1           0       10.703576    7.443996    0.566703
    116          1           0       10.397320    5.738821    0.878608
    117          6           0        8.868354    8.591352    2.198363
    118          1           0        8.108933    8.776269    1.426794
    119          1           0        9.718268    9.251205    1.991467
    120          1           0        8.443271    8.886943    3.165046
    121          7           0        9.813049    2.980343    3.594663
    122          1           0        9.581795    2.552615    2.697545
    123          6           0       11.169372    2.671222    4.051395
    124          1           0       11.331131    3.237005    4.969969
    125          6           0       12.181841    3.175236    2.985021
    126          6           0       11.348759    1.156689    4.296159
    127          1           0       12.415838    0.918689    4.240474
    128          1           0       10.884288    0.619386    3.459323
    129          8           0       13.453417    3.268858    3.359212
    130          6           0       10.773880    0.614484    5.617240
    131          1           0        9.706751    0.857543    5.698252
    132          1           0       10.832766   -0.482145    5.589530
    133          6           0       11.466295    1.106276    6.904818
    134          1           0       11.328568    2.184371    7.031809
    135          1           0       10.987127    0.642247    7.772705
    136          7           0       12.893493    0.806158    6.979205
    137          1           0       13.152563   -0.132112    7.253822
    138          7           0       13.779757    2.809808    6.031679
    139          1           0       13.601226    3.140644    4.352429
    140          1           0       13.029925    3.271213    6.544618
    141          7           0       14.987999    0.840730    5.986232
    142          1           0       15.687251    1.400955    5.515092
    143          1           0       14.878273   -0.094307    5.614642
    144          6           0       13.850970    1.543358    6.323122
    145          8           0       11.817413    3.432839    1.855208
    146          1           0        6.708625    1.124993   -2.973904
 ---------------------------------------------------------------------

 SCF Done:  E(RB3LYP) =  -3503.37992396     A.U. after    2 cycles

 Alpha  occ. eigenvalues --  -19.28352 -19.27146 -19.25735 -19.24432 -19.21652
 Alpha  occ. eigenvalues --  -19.20499 -19.20098 -19.19666 -19.18235 -19.18142
 Alpha  occ. eigenvalues --  -19.18029 -19.17738 -19.17166 -19.15426 -14.61619
 Alpha  occ. eigenvalues --  -14.50594 -14.47600 -14.43932 -14.42477 -14.42444
 Alpha  occ. eigenvalues --  -14.42097 -14.42089 -14.41574 -14.41260 -14.40208
 Alpha  occ. eigenvalues --  -14.39930 -14.34454 -14.34310 -10.44775 -10.41367
 Alpha  occ. eigenvalues --  -10.41085 -10.38973 -10.38702 -10.37184 -10.36408
 Alpha  occ. eigenvalues --  -10.35438 -10.35173 -10.35133 -10.34772 -10.34661
 Alpha  occ. eigenvalues --  -10.33861 -10.33532 -10.32433 -10.32149 -10.30305
 Alpha  occ. eigenvalues --  -10.30213 -10.30165 -10.29401 -10.29276 -10.28241
 Alpha  occ. eigenvalues --  -10.27947 -10.27680 -10.27109 -10.26742 -10.26556
 Alpha  occ. eigenvalues --  -10.25556 -10.25303 -10.25232 -10.25146 -10.24536
 Alpha  occ. eigenvalues --  -10.24504 -10.24140 -10.23977 -10.23599 -10.23066
 Alpha  occ. eigenvalues --  -10.22753 -10.22681 -10.22464 -10.21617 -10.19933
 Alpha  occ. eigenvalues --  -10.19586  -1.20786  -1.16896  -1.16020  -1.15624
 Alpha  occ. eigenvalues --   -1.14678  -1.12121  -1.11112  -1.10643  -1.10174
 Alpha  occ. eigenvalues --   -1.09744  -1.09322  -1.09136  -1.08586  -1.07869
 Alpha  occ. eigenvalues --   -1.07515  -1.04413  -1.03840  -1.03643  -1.02996
 Alpha  occ. eigenvalues --   -1.00275  -0.99087  -0.98728  -0.98548  -0.98215
 Alpha  occ. eigenvalues --   -0.96496  -0.94715  -0.92972  -0.90147  -0.89860
 Alpha  occ. eigenvalues --   -0.89530  -0.87855  -0.86771  -0.85711  -0.85535
 Alpha  occ. eigenvalues --   -0.84900  -0.84347  -0.83474  -0.81096  -0.80920
 Alpha  occ. eigenvalues --   -0.79875  -0.79790  -0.78385  -0.77905  -0.77486
 Alpha  occ. eigenvalues --   -0.76849  -0.76271  -0.75462  -0.74941  -0.74197
 Alpha  occ. eigenvalues --   -0.73678  -0.73053  -0.72685  -0.71123  -0.70884
 Alpha  occ. eigenvalues --   -0.70706  -0.68832  -0.68755  -0.68468  -0.67454
 Alpha  occ. eigenvalues --   -0.67068  -0.66428  -0.66281  -0.66059  -0.65894
 Alpha  occ. eigenvalues --   -0.65659  -0.64545  -0.64479  -0.64327  -0.63639
 Alpha  occ. eigenvalues --   -0.63442  -0.63311  -0.62946  -0.62806  -0.62442
 Alpha  occ. eigenvalues --   -0.62128  -0.61829  -0.61377  -0.61118  -0.60589
 Alpha  occ. eigenvalues --   -0.59816  -0.59336  -0.59210  -0.59150  -0.58240
 Alpha  occ. eigenvalues --   -0.57377  -0.57285  -0.57033  -0.56842  -0.56746
 Alpha  occ. eigenvalues --   -0.56066  -0.55687  -0.55302  -0.55124  -0.54887
 Alpha  occ. eigenvalues --   -0.54418  -0.54079  -0.53977  -0.53862  -0.53610
 Alpha  occ. eigenvalues --   -0.53438  -0.53106  -0.52806  -0.52663  -0.52418
 Alpha  occ. eigenvalues --   -0.52133  -0.51648  -0.51464  -0.50889  -0.50591
 Alpha  occ. eigenvalues --   -0.50560  -0.50499  -0.50279  -0.50139  -0.49887
 Alpha  occ. eigenvalues --   -0.49453  -0.49359  -0.48976  -0.48675  -0.48542
 Alpha  occ. eigenvalues --   -0.48378  -0.48236  -0.48097  -0.47933  -0.47277
 Alpha  occ. eigenvalues --   -0.47088  -0.47014  -0.46810  -0.46673  -0.46461
 Alpha  occ. eigenvalues --   -0.46449  -0.46267  -0.46076  -0.45863  -0.45738
 Alpha  occ. eigenvalues --   -0.45656  -0.45335  -0.45208  -0.45049  -0.44796
 Alpha  occ. eigenvalues --   -0.44745  -0.44506  -0.44500  -0.44344  -0.44338
 Alpha  occ. eigenvalues --   -0.44192  -0.43902  -0.43780  -0.43535  -0.43185
 Alpha  occ. eigenvalues --   -0.42886  -0.42558  -0.42335  -0.42135  -0.41981
 Alpha  occ. eigenvalues --   -0.41688  -0.41515  -0.41398  -0.41136  -0.40970
 Alpha  occ. eigenvalues --   -0.40857  -0.40705  -0.40518  -0.40498  -0.40427
 Alpha  occ. eigenvalues --   -0.40410  -0.39927  -0.39340  -0.39000  -0.38712
 Alpha  occ. eigenvalues --   -0.38604  -0.38540  -0.38474  -0.38092  -0.37932
 Alpha  occ. eigenvalues --   -0.37749  -0.36009  -0.35460  -0.35222  -0.35157
 Alpha  occ. eigenvalues --   -0.34333  -0.33849  -0.33465  -0.33180  -0.32965
 Alpha  occ. eigenvalues --   -0.32921  -0.32754  -0.32378  -0.32346  -0.31708
 Alpha  occ. eigenvalues --   -0.31573  -0.31465  -0.31316  -0.31280  -0.31090
 Alpha  occ. eigenvalues --   -0.30673  -0.29696  -0.29331  -0.28548  -0.28282
 Alpha  occ. eigenvalues --   -0.25836
 Alpha virt. eigenvalues --   -0.13863  -0.12554  -0.10027  -0.07459  -0.06537
 Alpha virt. eigenvalues --   -0.05503  -0.05053  -0.04808  -0.04627  -0.04095
 Alpha virt. eigenvalues --   -0.03425  -0.03010  -0.02491  -0.01984  -0.01934

 Mulliken charges:
               1
     1  N   -0.760656
     2  H    0.422925
     3  H    0.435650
     4  H    0.418318
     5  C   -0.134338
     6  H    0.228163
     7  C    0.640221
     8  C   -0.039673
     9  H    0.172858
    10  H    0.181239
    11  O   -0.527011
    12  O   -0.624957
    13  H    0.457125
    14  N   -0.567074
    15  H    0.360507
    16  C   -0.096407
    17  H    0.214740
    18  C    0.660904
    19  C   -0.470595
    20  H    0.188625
    21  H    0.178321
    22  H    0.191110
    23  O   -0.579485
    24  N   -0.590180
    25  H    0.362548
    26  C   -0.083912
    27  H    0.178685
    28  C    0.642014
    29  C    0.109163
    30  H    0.157182
    31  O   -0.545772
    32  C   -0.451248
    33  H    0.150550
    34  H    0.143800
    35  H    0.184019
    36  O   -0.648841
    37  H    0.427040
    38  N   -0.611287
    39  H    0.361197
    40  C   -0.045616
    41  H    0.175369
    42  C    0.621066
    43  C   -0.071621
    44  H    0.136170
    45  O   -0.558915
    46  C   -0.463888
    47  H    0.154356
    48  H    0.158184
    49  H    0.156655
    50  C   -0.449176
    51  H    0.168641
    52  H    0.129112
    53  H    0.147435
    54  N   -0.614413
    55  H    0.360371
    56  C   -0.058936
    57  H    0.177393
    58  C    0.626328
    59  C   -0.073812
    60  H    0.151428
    61  O   -0.554005
    62  C   -0.275056
    63  H    0.146075
    64  H    0.143699
    65  C   -0.461104
    66  H    0.156056
    67  H    0.149403
    68  H    0.150223
    69  C   -0.455252
    70  H    0.159515
    71  H    0.142221
    72  H    0.151308
    73  N   -0.641346
    74  H    0.375661
    75  C   -0.036986
    76  H    0.202023
    77  C    0.604364
    78  C   -0.367667
    79  H    0.220452
    80  H    0.193616
    81  O   -0.547114
    82  C    0.603910
    83  O   -0.469761
    84  O   -0.558418
    85  N   -0.639913
    86  H    0.397961
    87  C   -0.028905
    88  H    0.178347
    89  C    0.610028
    90  C   -0.354231
    91  H    0.164325
    92  H    0.184261
    93  O   -0.547826
    94  C    0.296109
    95  C   -0.084381
    96  H    0.134801
    97  N   -0.633955
    98  H    0.378029
    99  C    0.193164
   100  H    0.162960
   101  N   -0.421481
   102  N   -0.609124
   103  H    0.348342
   104  C   -0.070913
   105  H    0.205207
   106  C    0.613688
   107  C   -0.273797
   108  H    0.134541
   109  H    0.148661
   110  O   -0.497453
   111  C   -0.080314
   112  H    0.163397
   113  C   -0.468433
   114  H    0.129810
   115  H    0.149995
   116  H    0.176216
   117  C   -0.446067
   118  H    0.134554
   119  H    0.148906
   120  H    0.143668
   121  N   -0.632427
   122  H    0.369618
   123  C   -0.089024
   124  H    0.172242
   125  C    0.599971
   126  C   -0.283708
   127  H    0.153766
   128  H    0.160627
   129  O   -0.605386
   130  C   -0.264597
   131  H    0.148610
   132  H    0.141047
   133  C   -0.159215
   134  H    0.163206
   135  H    0.169475
   136  N   -0.583399
   137  H    0.329247
   138  N   -0.731804
   139  H    0.464690
   140  H    0.301240
   141  N   -0.741043
   142  H    0.357526
   143  H    0.329587
   144  C    0.647941
   145  O   -0.475834
   146  H    0.424044
 Sum of Mulliken charges =   1.00000

 Dipole moment (field-independent basis, Debye):
    X=            -34.3826    Y=             -8.3017    Z=             -9.6921  Tot=             36.6745
 Quadrupole moment (field-independent basis, Debye-Ang):
   XX=             82.8051   YY=           -423.7047   ZZ=           -358.9843
   XY=            -18.4603   XZ=            161.4549   YZ=            -18.4937

 Normal termination of Gaussian 16 at Sun Jun 19 12:00:30 2022.
