 Gaussian 16, Revision C.01,
 Gaussian 16:  ES64L-G16RevC.01  3-Jul-2019

 -------------------------------------------------------------------
 # B3LYP/6-31G* guess=read geom=check nosymm integral(ultrafinegrid)
 -------------------------------------------------------------------

 ------------------------------------------------------
 Candidate Structure: Conf:433 Charge calc in gas phase
 ------------------------------------------------------
 Structure from the checkpoint file:  "conf-433.chk"
 Charge =  1 Multiplicity = 1

                          Input orientation:
 ---------------------------------------------------------------------
 Center     Atomic      Atomic             Coordinates (Angstroms)
 Number     Number       Type             X           Y           Z
 ---------------------------------------------------------------------
      1          7           0       -9.151281   -4.875093   -4.377554
      2          1           0       -9.595899   -5.784950   -4.527842
      3          1           0       -8.313073   -5.006714   -3.770999
      4          1           0       -9.834245   -4.208507   -3.972963
      5          6           0       -8.621888   -4.247237   -5.639795
      6          1           0       -9.223407   -4.600527   -6.480006
      7          6           0       -7.135188   -4.637325   -5.703787
      8          6           0       -8.757307   -2.716482   -5.457595
      9          1           0       -8.628202   -2.228344   -6.429045
     10          1           0       -7.977500   -2.345817   -4.779184
     11          8           0       -6.592537   -4.975389   -4.645638
     12          8           0      -10.066918   -2.532304   -4.924053
     13          1           0      -10.157326   -1.620805   -4.603251
     14          7           0       -6.508209   -4.489127   -6.881387
     15          1           0       -7.036175   -4.042879   -7.624502
     16          6           0       -5.065143   -4.154731   -6.889490
     17          1           0       -4.550128   -4.923005   -6.308357
     18          6           0       -4.984615   -2.771181   -6.194099
     19          6           0       -4.545144   -4.112914   -8.324517
     20          1           0       -3.473315   -3.894697   -8.325829
     21          1           0       -5.047988   -3.323088   -8.893297
     22          1           0       -4.699984   -5.074112   -8.823642
     23          8           0       -5.810486   -1.907633   -6.490920
     24          7           0       -4.051303   -2.640499   -5.231173
     25          1           0       -3.301890   -3.315761   -5.101274
     26          6           0       -3.948262   -1.457632   -4.388989
     27          1           0       -4.398603   -0.619759   -4.927426
     28          6           0       -2.445521   -1.254933   -4.125045
     29          6           0       -4.718011   -1.686691   -3.038832
     30          1           0       -4.073269   -2.306111   -2.397246
     31          8           0       -1.704678   -2.239195   -4.086176
     32          6           0       -5.051580   -0.379938   -2.332577
     33          1           0       -4.153840    0.201763   -2.103237
     34          1           0       -5.712485    0.230112   -2.959102
     35          1           0       -5.571201   -0.590941   -1.393433
     36          8           0       -5.951410   -2.373558   -3.258956
     37          1           0       -5.736623   -3.266126   -3.578159
     38          7           0       -2.043886    0.017679   -3.938247
     39          1           0       -2.726399    0.765679   -3.857740
     40          6           0       -0.713558    0.394427   -3.467150
     41          1           0       -0.223147   -0.515236   -3.105477
     42          6           0       -0.970274    1.385363   -2.311183
     43          6           0        0.147961    1.022536   -4.606084
     44          1           0       -0.343580    1.963302   -4.893311
     45          8           0       -1.992937    2.077411   -2.309008
     46          6           0        1.577192    1.342097   -4.139757
     47          1           0        2.096622    0.433394   -3.807673
     48          1           0        1.608421    2.067423   -3.322253
     49          1           0        2.155334    1.759487   -4.970694
     50          6           0        0.186645    0.100650   -5.834127
     51          1           0        0.625749   -0.872128   -5.584021
     52          1           0       -0.812770   -0.074813   -6.242289
     53          1           0        0.795645    0.554692   -6.623326
     54          7           0       -0.037579    1.435637   -1.337762
     55          1           0        0.831263    0.916888   -1.414967
     56          6           0       -0.063636    2.431431   -0.270357
     57          1           0       -0.553394    3.325020   -0.668253
     58          6           0        1.407790    2.739288    0.050397
     59          6           0       -0.882922    1.926193    0.960139
     60          1           0       -1.832852    1.593439    0.520029
     61          8           0        2.297256    1.928806   -0.246530
     62          6           0       -1.217980    3.027700    1.986845
     63          1           0       -0.296112    3.384405    2.464924
     64          1           0       -1.796942    2.548303    2.787164
     65          6           0       -0.214655    0.722971    1.640062
     66          1           0        0.723641    1.008399    2.130716
     67          1           0        0.010001   -0.074564    0.924137
     68          1           0       -0.875866    0.306206    2.407661
     69          6           0       -2.025323    4.215089    1.443838
     70          1           0       -2.358554    4.857621    2.265856
     71          1           0       -1.450059    4.849588    0.759452
     72          1           0       -2.916383    3.874191    0.903286
     73          7           0        1.652795    3.912441    0.673061
     74          1           0        0.913629    4.611438    0.669389
     75          6           0        3.012398    4.456622    0.804915
     76          1           0        3.569665    4.169387   -0.096466
     77          6           0        3.780521    3.877288    2.028535
     78          6           0        2.981896    5.991306    0.941635
     79          1           0        2.651725    6.243750    1.955635
     80          1           0        3.997429    6.374998    0.841591
     81          8           0        4.171309    4.609475    2.935311
     82          6           0        2.057873    6.690443   -0.029075
     83          8           0        0.869556    6.443605   -0.160290
     84          8           0        2.671465    7.660238   -0.725793
     85          7           0        3.998724    2.542670    1.984305
     86          1           0        3.697148    2.038269    1.152013
     87          6           0        4.785568    1.853103    3.010058
     88          1           0        4.675583    2.418933    3.937743
     89          6           0        6.291015    1.875303    2.645409
     90          6           0        4.238008    0.424958    3.215479
     91          1           0        4.317175   -0.124119    2.268373
     92          1           0        3.171512    0.514304    3.448889
     93          8           0        6.883852    0.867667    2.250443
     94          6           0        4.902263   -0.369228    4.302668
     95          6           0        4.528876   -0.721044    5.578727
     96          1           0        3.617871   -0.464826    6.102271
     97          7           0        6.132116   -0.965963    4.119436
     98          1           0        6.731214   -0.711020    3.334061
     99          6           0        6.460717   -1.611784    5.257659
    100          1           0        7.389121   -2.151846    5.374089
    101          7           0        5.507964   -1.497237    6.171929
    102          7           0        6.886809    3.092777    2.776036
    103          1           0        6.290939    3.781258    3.229095
    104          6           0        8.273010    3.135248    3.258956
    105          1           0        8.877898    2.515349    2.593295
    106          6           0        8.257472    2.497186    4.683685
    107          6           0        8.758751    4.600853    3.227842
    108          1           0        8.504647    4.995699    2.233636
    109          1           0        8.160137    5.173987    3.951337
    110          8           0        7.170817    2.226212    5.219358
    111          6           0       10.254710    4.877378    3.492318
    112          1           0       10.518451    4.539676    4.501746
    113          6           0       11.172084    4.154485    2.494145
    114          1           0       10.939134    4.445914    1.460573
    115          1           0       12.220217    4.405564    2.688091
    116          1           0       11.087981    3.063967    2.562293
    117          6           0       10.500941    6.393798    3.444593
    118          1           0       10.278507    6.801727    2.449010
    119          1           0       11.546868    6.623996    3.674994
    120          1           0        9.874785    6.924277    4.172069
    121          7           0        9.438491    2.246202    5.257770
    122          1           0       10.347221    2.591797    4.928478
    123          6           0        9.562552    1.833338    6.648646
    124          1           0        8.879156    2.445205    7.252699
    125          6           0       11.042549    2.127138    7.101800
    126          6           0        9.185334    0.353461    6.838768
    127          1           0       10.057684   -0.276742    6.619350
    128          1           0        8.390237    0.096752    6.130894
    129          8           0       11.332995    1.697457    8.239206
    130          6           0        8.690302    0.089793    8.261719
    131          1           0        9.458518    0.460925    8.950552
    132          1           0        7.765155    0.658721    8.428218
    133          6           0        8.408778   -1.393728    8.493501
    134          1           0        7.785918   -1.810346    7.700952
    135          1           0        9.338566   -1.972555    8.519049
    136          7           0        7.709826   -1.634165    9.771608
    137          1           0        8.202771   -1.310832   10.595333
    138          7           0        5.579925   -2.161873    8.937236
    139          1           0        4.728354   -2.668164    9.136810
    140          1           0        5.697646   -1.871705    7.932122
    141          7           0        6.004338   -2.268742   11.205536
    142          1           0        5.035886   -2.086761   11.428516
    143          1           0        6.649116   -2.180333   11.978217
    144          6           0        6.440133   -1.994927    9.940210
    145          8           0       11.740384    2.742864    6.252823
    146          1           0        1.992585    8.083706   -1.286701
 ---------------------------------------------------------------------

 SCF Done:  E(RB3LYP) =  -3503.33634800     A.U. after    3 cycles

 Alpha  occ. eigenvalues --  -19.30837 -19.28487 -19.26682 -19.23939 -19.21981
 Alpha  occ. eigenvalues --  -19.21288 -19.20122 -19.20068 -19.19095 -19.17293
 Alpha  occ. eigenvalues --  -19.15564 -19.11089 -19.03566 -19.02836 -14.60705
 Alpha  occ. eigenvalues --  -14.51058 -14.46473 -14.46352 -14.46151 -14.44233
 Alpha  occ. eigenvalues --  -14.44210 -14.43491 -14.43235 -14.42261 -14.41068
 Alpha  occ. eigenvalues --  -14.37585 -14.37360 -14.33733 -10.45261 -10.42123
 Alpha  occ. eigenvalues --  -10.41825 -10.39473 -10.39441 -10.38991 -10.37420
 Alpha  occ. eigenvalues --  -10.36642 -10.36193 -10.35776 -10.34443 -10.33330
 Alpha  occ. eigenvalues --  -10.32272 -10.32122 -10.31120 -10.30695 -10.30291
 Alpha  occ. eigenvalues --  -10.29495 -10.28829 -10.28038 -10.27932 -10.27588
 Alpha  occ. eigenvalues --  -10.26802 -10.26606 -10.26331 -10.25991 -10.25891
 Alpha  occ. eigenvalues --  -10.25090 -10.24595 -10.24300 -10.24217 -10.23950
 Alpha  occ. eigenvalues --  -10.23656 -10.23640 -10.23043 -10.21710 -10.20179
 Alpha  occ. eigenvalues --  -10.20102 -10.19351 -10.19034 -10.18246 -10.17879
 Alpha  occ. eigenvalues --  -10.17769  -1.20852  -1.18261  -1.17744  -1.14603
 Alpha  occ. eigenvalues --   -1.14087  -1.12210  -1.11832  -1.11132  -1.10669
 Alpha  occ. eigenvalues --   -1.10436  -1.09111  -1.08595  -1.07449  -1.07024
 Alpha  occ. eigenvalues --   -1.05742  -1.02584  -1.02495  -1.00733  -1.00184
 Alpha  occ. eigenvalues --   -0.99936  -0.99668  -0.98141  -0.97585  -0.96604
 Alpha  occ. eigenvalues --   -0.94326  -0.93495  -0.91552  -0.90468  -0.89200
 Alpha  occ. eigenvalues --   -0.88279  -0.87853  -0.87242  -0.85892  -0.85659
 Alpha  occ. eigenvalues --   -0.83878  -0.82671  -0.81741  -0.81092  -0.80676
 Alpha  occ. eigenvalues --   -0.80361  -0.78719  -0.78355  -0.77176  -0.76430
 Alpha  occ. eigenvalues --   -0.75951  -0.75212  -0.75086  -0.74835  -0.74524
 Alpha  occ. eigenvalues --   -0.74370  -0.73414  -0.72067  -0.70403  -0.69628
 Alpha  occ. eigenvalues --   -0.69498  -0.68750  -0.68593  -0.68099  -0.67773
 Alpha  occ. eigenvalues --   -0.67573  -0.67441  -0.67228  -0.66750  -0.66144
 Alpha  occ. eigenvalues --   -0.65642  -0.65474  -0.65187  -0.64719  -0.64209
 Alpha  occ. eigenvalues --   -0.63993  -0.63541  -0.63266  -0.63150  -0.62370
 Alpha  occ. eigenvalues --   -0.61630  -0.61255  -0.61046  -0.60502  -0.60072
 Alpha  occ. eigenvalues --   -0.59320  -0.59297  -0.58793  -0.58345  -0.57718
 Alpha  occ. eigenvalues --   -0.57601  -0.57325  -0.56886  -0.56803  -0.56794
 Alpha  occ. eigenvalues --   -0.56166  -0.55896  -0.55605  -0.55086  -0.54774
 Alpha  occ. eigenvalues --   -0.54474  -0.54212  -0.54119  -0.53822  -0.53355
 Alpha  occ. eigenvalues --   -0.53099  -0.52826  -0.52570  -0.52349  -0.52182
 Alpha  occ. eigenvalues --   -0.51963  -0.51516  -0.51410  -0.51323  -0.50099
 Alpha  occ. eigenvalues --   -0.49977  -0.49949  -0.49788  -0.49304  -0.49241
 Alpha  occ. eigenvalues --   -0.49143  -0.48546  -0.48495  -0.48424  -0.48195
 Alpha  occ. eigenvalues --   -0.47737  -0.47624  -0.47345  -0.47272  -0.47164
 Alpha  occ. eigenvalues --   -0.46788  -0.46699  -0.46478  -0.46437  -0.46290
 Alpha  occ. eigenvalues --   -0.46028  -0.45965  -0.45848  -0.45803  -0.45730
 Alpha  occ. eigenvalues --   -0.45274  -0.45210  -0.45167  -0.44893  -0.44852
 Alpha  occ. eigenvalues --   -0.44324  -0.43936  -0.43753  -0.43270  -0.43149
 Alpha  occ. eigenvalues --   -0.42884  -0.42819  -0.42746  -0.42520  -0.42120
 Alpha  occ. eigenvalues --   -0.42048  -0.41735  -0.41613  -0.41441  -0.41204
 Alpha  occ. eigenvalues --   -0.41095  -0.40911  -0.40413  -0.40326  -0.39874
 Alpha  occ. eigenvalues --   -0.39585  -0.39435  -0.39143  -0.38813  -0.38757
 Alpha  occ. eigenvalues --   -0.38443  -0.37651  -0.37585  -0.37413  -0.36991
 Alpha  occ. eigenvalues --   -0.36506  -0.36473  -0.35935  -0.35650  -0.35409
 Alpha  occ. eigenvalues --   -0.35237  -0.34618  -0.34469  -0.34391  -0.34220
 Alpha  occ. eigenvalues --   -0.33819  -0.33729  -0.33584  -0.33444  -0.33009
 Alpha  occ. eigenvalues --   -0.32865  -0.32670  -0.32618  -0.32506  -0.32393
 Alpha  occ. eigenvalues --   -0.32262  -0.30964  -0.30286  -0.29204  -0.27658
 Alpha  occ. eigenvalues --   -0.26647  -0.25188  -0.24338  -0.18863  -0.18305
 Alpha  occ. eigenvalues --   -0.17261
 Alpha virt. eigenvalues --   -0.14899  -0.11008  -0.08708  -0.07232  -0.06637
 Alpha virt. eigenvalues --   -0.06497  -0.06479  -0.06071  -0.05062  -0.04741
 Alpha virt. eigenvalues --   -0.04108  -0.04006  -0.03015  -0.02567  -0.02258

 Mulliken charges:
               1
     1  N   -0.740313
     2  H    0.419164
     3  H    0.426582
     4  H    0.432853
     5  C   -0.139222
     6  H    0.222954
     7  C    0.652820
     8  C   -0.070213
     9  H    0.203680
    10  H    0.225618
    11  O   -0.535862
    12  O   -0.637921
    13  H    0.442269
    14  N   -0.559934
    15  H    0.355004
    16  C   -0.068974
    17  H    0.192004
    18  C    0.616958
    19  C   -0.477341
    20  H    0.192699
    21  H    0.179624
    22  H    0.184468
    23  O   -0.546201
    24  N   -0.619772
    25  H    0.360785
    26  C   -0.061900
    27  H    0.184012
    28  C    0.618238
    29  C    0.129902
    30  H    0.143222
    31  O   -0.541607
    32  C   -0.475327
    33  H    0.177206
    34  H    0.157386
    35  H    0.168303
    36  O   -0.653413
    37  H    0.416802
    38  N   -0.602351
    39  H    0.356858
    40  C   -0.066108
    41  H    0.178275
    42  C    0.626607
    43  C   -0.073403
    44  H    0.141756
    45  O   -0.551722
    46  C   -0.469441
    47  H    0.151284
    48  H    0.157039
    49  H    0.162824
    50  C   -0.445691
    51  H    0.159839
    52  H    0.143976
    53  H    0.154764
    54  N   -0.613009
    55  H    0.362465
    56  C   -0.068908
    57  H    0.192701
    58  C    0.629230
    59  C   -0.069524
    60  H    0.149659
    61  O   -0.567088
    62  C   -0.270716
    63  H    0.144975
    64  H    0.143023
    65  C   -0.469139
    66  H    0.157999
    67  H    0.148474
    68  H    0.151013
    69  C   -0.470578
    70  H    0.156978
    71  H    0.161235
    72  H    0.154456
    73  N   -0.622121
    74  H    0.385735
    75  C   -0.073074
    76  H    0.193320
    77  C    0.643582
    78  C   -0.385194
    79  H    0.221066
    80  H    0.210056
    81  O   -0.526225
    82  C    0.589475
    83  O   -0.483829
    84  O   -0.542737
    85  N   -0.633378
    86  H    0.378014
    87  C   -0.058981
    88  H    0.209311
    89  C    0.651199
    90  C   -0.377385
    91  H    0.166369
    92  H    0.162128
    93  O   -0.566059
    94  C    0.329574
    95  C   -0.053922
    96  H    0.129648
    97  N   -0.594664
    98  H    0.389800
    99  C    0.256578
   100  H    0.170392
   101  N   -0.520053
   102  N   -0.586576
   103  H    0.353734
   104  C   -0.080038
   105  H    0.180658
   106  C    0.611774
   107  C   -0.270590
   108  H    0.136749
   109  H    0.137454
   110  O   -0.580435
   111  C   -0.098729
   112  H    0.177465
   113  C   -0.448334
   114  H    0.126342
   115  H    0.159990
   116  H    0.146507
   117  C   -0.444571
   118  H    0.127316
   119  H    0.153664
   120  H    0.139622
   121  N   -0.623292
   122  H    0.368807
   123  C   -0.047063
   124  H    0.138294
   125  C    0.570615
   126  C   -0.265216
   127  H    0.137053
   128  H    0.141239
   129  O   -0.601113
   130  C   -0.278890
   131  H    0.197123
   132  H    0.135552
   133  C   -0.172707
   134  H    0.167508
   135  H    0.185191
   136  N   -0.588357
   137  H    0.355779
   138  N   -0.795431
   139  H    0.351718
   140  H    0.445530
   141  N   -0.762210
   142  H    0.363385
   143  H    0.363402
   144  C    0.788340
   145  O   -0.608348
   146  H    0.420154
 Sum of Mulliken charges =   1.00000

 Dipole moment (field-independent basis, Debye):
    X=            -46.9952    Y=            -23.9507    Z=            -15.8074  Tot=             55.0641
 Quadrupole moment (field-independent basis, Debye-Ang):
   XX=           -364.5439   YY=           -305.0564   ZZ=           -134.1226
   XY=             59.3147   XZ=            108.0062   YZ=            -11.1625

 Normal termination of Gaussian 16 at Sun Jun 19 12:05:24 2022.
