 Gaussian 16, Revision C.01,
 Gaussian 16:  ES64L-G16RevC.01  3-Jul-2019

 -------------------------------------------------------------------
 # B3LYP/6-31G* guess=read geom=check nosymm integral(ultrafinegrid)
 -------------------------------------------------------------------

 ------------------------------------------------------
 Candidate Structure: Conf:156 Charge calc in gas phase
 ------------------------------------------------------
 Structure from the checkpoint file:  "conf-156.chk"
 Charge =  1 Multiplicity = 1

                          Input orientation:
 ---------------------------------------------------------------------
 Center     Atomic      Atomic             Coordinates (Angstroms)
 Number     Number       Type             X           Y           Z
 ---------------------------------------------------------------------
      1          7           0      -10.507389   -5.140072   -5.649718
      2          1           0      -11.081183   -5.781831   -6.204369
      3          1           0       -9.504972   -5.498968   -5.619343
      4          1           0      -10.898655   -5.093322   -4.703007
      5          6           0      -10.330914   -3.782275   -6.290448
      6          1           0      -11.033207   -3.680944   -7.120126
      7          6           0       -8.857450   -3.798687   -6.751495
      8          6           0      -10.572637   -2.641504   -5.254663
      9          1           0       -9.918745   -2.810508   -4.386019
     10          1           0      -11.616604   -2.693472   -4.920861
     11          8           0       -8.138067   -4.722223   -6.353924
     12          8           0      -10.354437   -1.398327   -5.852377
     13          1           0       -9.414427   -1.139237   -5.684139
     14          7           0       -8.466241   -2.763816   -7.508071
     15          1           0       -9.148778   -2.016854   -7.607625
     16          6           0       -7.060984   -2.351312   -7.547354
     17          1           0       -6.458655   -3.260914   -7.613044
     18          6           0       -6.736101   -1.620465   -6.219428
     19          6           0       -6.806489   -1.452088   -8.763019
     20          1           0       -5.753710   -1.160836   -8.806891
     21          1           0       -7.406589   -0.536749   -8.706571
     22          1           0       -7.057696   -1.982107   -9.686008
     23          8           0       -7.640078   -1.104913   -5.531194
     24          7           0       -5.443255   -1.554591   -5.910068
     25          1           0       -4.724206   -1.993519   -6.484951
     26          6           0       -4.886983   -0.846979   -4.762077
     27          1           0       -5.443678    0.087813   -4.626904
     28          6           0       -3.418519   -0.568139   -5.156794
     29          6           0       -4.998694   -1.698818   -3.453576
     30          1           0       -4.281302   -2.524422   -3.527920
     31          8           0       -2.866708   -1.307401   -5.975419
     32          6           0       -4.720794   -0.876071   -2.194098
     33          1           0       -3.703072   -0.475814   -2.156801
     34          1           0       -5.423098   -0.035421   -2.116871
     35          1           0       -4.867764   -1.514034   -1.318097
     36          8           0       -6.272483   -2.326448   -3.380052
     37          1           0       -6.943305   -1.649502   -3.574445
     38          7           0       -2.836150    0.492876   -4.570022
     39          1           0       -3.301300    0.985455   -3.812441
     40          6           0       -1.406431    0.790769   -4.654877
     41          1           0       -0.909214   -0.092178   -5.068906
     42          6           0       -0.973276    1.042750   -3.194823
     43          6           0       -1.123225    2.018626   -5.572721
     44          1           0       -1.592084    2.888437   -5.090438
     45          8           0       -1.784852    1.507452   -2.387511
     46          6           0        0.382387    2.293141   -5.715538
     47          1           0        0.900553    1.431762   -6.157540
     48          1           0        0.867497    2.527515   -4.764227
     49          1           0        0.543971    3.145581   -6.383454
     50          6           0       -1.761602    1.828179   -6.956619
     51          1           0       -1.354932    0.943910   -7.461058
     52          1           0       -2.847263    1.710581   -6.891109
     53          1           0       -1.557146    2.701143   -7.585944
     54          7           0        0.296518    0.726122   -2.875277
     55          1           0        0.961885    0.425463   -3.580836
     56          6           0        0.886543    1.037970   -1.576659
     57          1           0        0.398230    1.943173   -1.205231
     58          6           0        2.373068    1.315751   -1.857621
     59          6           0        0.640078   -0.114911   -0.550527
     60          1           0       -0.444855   -0.279455   -0.602824
     61          8           0        2.925137    0.849630   -2.851169
     62          6           0        0.973394    0.257263    0.910052
     63          1           0        2.055155    0.399290    1.032230
     64          1           0        0.727245   -0.619590    1.522877
     65          6           0        1.347674   -1.414073   -0.960848
     66          1           0        2.437658   -1.319073   -0.894225
     67          1           0        1.099361   -1.704789   -1.986891
     68          1           0        1.045868   -2.232981   -0.298854
     69          6           0        0.212556    1.465755    1.473369
     70          1           0        0.402916    1.572391    2.546268
     71          1           0        0.501787    2.414778    1.003058
     72          1           0       -0.869179    1.356674    1.331980
     73          7           0        3.004753    2.123683   -0.958978
     74          1           0        2.557812    2.291526   -0.065741
     75          6           0        4.438607    2.353320   -1.006758
     76          1           0        4.762987    2.069122   -2.010433
     77          6           0        5.131669    1.505259    0.073243
     78          6           0        4.755239    3.839499   -0.762851
     79          1           0        4.294481    4.192259    0.165389
     80          1           0        5.837445    3.980734   -0.638988
     81          8           0        4.576236    1.267389    1.145219
     82          6           0        4.315150    4.709245   -1.926862
     83          8           0        4.204347    4.338075   -3.073185
     84          8           0        4.092359    5.979945   -1.529217
     85          7           0        6.389348    1.081864   -0.218334
     86          1           0        6.818555    1.360054   -1.091686
     87          6           0        7.206969    0.364204    0.763806
     88          1           0        6.507563   -0.227290    1.361623
     89          6           0        7.927342    1.368103    1.700847
     90          6           0        8.195001   -0.566073    0.055466
     91          1           0        8.936819    0.050999   -0.470576
     92          1           0        7.638168   -1.134219   -0.702204
     93          8           0        9.128409    1.635718    1.551027
     94          6           0        8.895705   -1.501663    0.996624
     95          6           0        8.913809   -1.641972    2.365755
     96          1           0        8.355560   -1.081524    3.104847
     97          7           0        9.787504   -2.457461    0.539881
     98          1           0        9.995546   -2.661274   -0.427850
     99          6           0       10.289037   -3.112912    1.630025
    100          1           0       10.996727   -3.926839    1.541158
    101          7           0        9.788667   -2.639658    2.750323
    102          7           0        7.128289    1.914707    2.628555
    103          1           0        6.188357    1.539992    2.715896
    104          6           0        7.605544    2.738587    3.738806
    105          1           0        8.538595    3.205199    3.417122
    106          6           0        7.844020    1.796434    4.942423
    107          6           0        6.543422    3.813742    4.068131
    108          1           0        6.211753    4.247137    3.112995
    109          1           0        5.673451    3.298772    4.499308
    110          8           0        7.115941    0.813881    5.090966
    111          6           0        6.989420    4.954339    5.007133
    112          1           0        7.432952    4.534421    5.917852
    113          6           0        8.057804    5.850561    4.363821
    114          1           0        7.680282    6.326750    3.447623
    115          1           0        8.357574    6.639355    5.060697
    116          1           0        8.968607    5.296900    4.109471
    117          6           0        5.764147    5.785274    5.416514
    118          1           0        5.283414    6.246902    4.542392
    119          1           0        6.054690    6.589217    6.101115
    120          1           0        5.013822    5.168898    5.926127
    121          7           0        8.889827    2.121436    5.755801
    122          1           0        9.218027    3.120555    5.757144
    123          6           0        8.861675    1.801403    7.205162
    124          1           0        7.841032    1.505614    7.469823
    125          6           0        9.223161    3.161162    7.941460
    126          6           0        9.824657    0.691818    7.645025
    127          1           0        9.682517    0.601470    8.724820
    128          1           0       10.860710    1.037682    7.515506
    129          8           0        9.277371    3.095291    9.174515
    130          6           0        9.626655   -0.673468    6.942488
    131          1           0        9.646372   -1.490600    7.673489
    132          1           0        8.647188   -0.710979    6.452256
    133          6           0       10.717853   -0.995644    5.916815
    134          1           0       11.685428   -1.060588    6.435754
    135          1           0       10.516598   -1.948628    5.412201
    136          7           0       10.795630    0.059943    4.890602
    137          1           0       10.201973    0.894277    5.037878
    138          7           0       12.646725   -0.852540    3.810841
    139          1           0       12.942315   -1.166351    2.897371
    140          1           0       12.684578   -1.561826    4.528690
    141          7           0       11.530809    0.962516    2.886763
    142          1           0       12.255873    0.999134    2.185561
    143          1           0       10.621467    1.347376    2.611034
    144          6           0       11.628684    0.045602    3.865747
    145          8           0        9.424776    4.136041    7.150048
    146          1           0        3.863594    6.489932   -2.329891
 ---------------------------------------------------------------------

 SCF Done:  E(RB3LYP) =  -3503.34221073     A.U. after    1 cycles

 Alpha  occ. eigenvalues --  -19.28160 -19.27080 -19.25942 -19.24271 -19.22219
 Alpha  occ. eigenvalues --  -19.20606 -19.20315 -19.19711 -19.19027 -19.18884
 Alpha  occ. eigenvalues --  -19.18410 -19.14615 -19.05924 -19.04520 -14.61348
 Alpha  occ. eigenvalues --  -14.50357 -14.47118 -14.45436 -14.44674 -14.44664
 Alpha  occ. eigenvalues --  -14.44415 -14.43427 -14.43018 -14.43001 -14.42955
 Alpha  occ. eigenvalues --  -14.41526 -14.37471 -14.36279 -10.44553 -10.41208
 Alpha  occ. eigenvalues --  -10.40873 -10.39954 -10.38935 -10.38715 -10.37897
 Alpha  occ. eigenvalues --  -10.36722 -10.36109 -10.36078 -10.35998 -10.35246
 Alpha  occ. eigenvalues --  -10.32998 -10.32712 -10.31193 -10.31134 -10.30970
 Alpha  occ. eigenvalues --  -10.30683 -10.30145 -10.29863 -10.29830 -10.28448
 Alpha  occ. eigenvalues --  -10.27925 -10.27649 -10.27557 -10.26934 -10.26537
 Alpha  occ. eigenvalues --  -10.25555 -10.25386 -10.25229 -10.23752 -10.23730
 Alpha  occ. eigenvalues --  -10.23686 -10.23521 -10.23068 -10.23066 -10.21869
 Alpha  occ. eigenvalues --  -10.21421 -10.20885 -10.20098 -10.19182 -10.18770
 Alpha  occ. eigenvalues --  -10.18590  -1.20609  -1.16869  -1.15862  -1.15414
 Alpha  occ. eigenvalues --   -1.14515  -1.12614  -1.11869  -1.11114  -1.10382
 Alpha  occ. eigenvalues --   -1.09920  -1.09750  -1.08604  -1.07925  -1.07420
 Alpha  occ. eigenvalues --   -1.07272  -1.05932  -1.03447  -1.00936  -1.00718
 Alpha  occ. eigenvalues --   -1.00063  -0.99411  -0.98787  -0.97958  -0.97793
 Alpha  occ. eigenvalues --   -0.96836  -0.93151  -0.92845  -0.92781  -0.89826
 Alpha  occ. eigenvalues --   -0.89403  -0.88262  -0.87594  -0.86724  -0.85594
 Alpha  occ. eigenvalues --   -0.85485  -0.83596  -0.82355  -0.80950  -0.80817
 Alpha  occ. eigenvalues --   -0.80292  -0.80154  -0.78220  -0.78050  -0.77414
 Alpha  occ. eigenvalues --   -0.76304  -0.75560  -0.75257  -0.75159  -0.74562
 Alpha  occ. eigenvalues --   -0.73429  -0.72776  -0.72465  -0.70932  -0.70691
 Alpha  occ. eigenvalues --   -0.69595  -0.69394  -0.69011  -0.68916  -0.68415
 Alpha  occ. eigenvalues --   -0.67877  -0.67560  -0.67150  -0.66947  -0.66844
 Alpha  occ. eigenvalues --   -0.66159  -0.66027  -0.65618  -0.65401  -0.64825
 Alpha  occ. eigenvalues --   -0.64709  -0.64560  -0.63599  -0.62896  -0.62649
 Alpha  occ. eigenvalues --   -0.62472  -0.61464  -0.60995  -0.60665  -0.60129
 Alpha  occ. eigenvalues --   -0.59893  -0.59385  -0.58650  -0.58331  -0.58120
 Alpha  occ. eigenvalues --   -0.57741  -0.57707  -0.57232  -0.56932  -0.56753
 Alpha  occ. eigenvalues --   -0.56591  -0.56377  -0.55640  -0.55073  -0.54559
 Alpha  occ. eigenvalues --   -0.54498  -0.54380  -0.54291  -0.54207  -0.54075
 Alpha  occ. eigenvalues --   -0.53583  -0.53431  -0.52954  -0.52835  -0.52625
 Alpha  occ. eigenvalues --   -0.52286  -0.52072  -0.51541  -0.51226  -0.50918
 Alpha  occ. eigenvalues --   -0.50654  -0.50417  -0.50258  -0.50135  -0.49700
 Alpha  occ. eigenvalues --   -0.49405  -0.49279  -0.48910  -0.48841  -0.48667
 Alpha  occ. eigenvalues --   -0.48407  -0.48342  -0.48217  -0.47739  -0.47696
 Alpha  occ. eigenvalues --   -0.47539  -0.47346  -0.47135  -0.47026  -0.46722
 Alpha  occ. eigenvalues --   -0.46652  -0.46357  -0.46242  -0.45872  -0.45761
 Alpha  occ. eigenvalues --   -0.45552  -0.45451  -0.45303  -0.45135  -0.45015
 Alpha  occ. eigenvalues --   -0.44832  -0.44758  -0.44677  -0.44481  -0.44374
 Alpha  occ. eigenvalues --   -0.44282  -0.43683  -0.43626  -0.43303  -0.42890
 Alpha  occ. eigenvalues --   -0.42683  -0.42350  -0.42037  -0.41947  -0.41546
 Alpha  occ. eigenvalues --   -0.41304  -0.40973  -0.40635  -0.40310  -0.40251
 Alpha  occ. eigenvalues --   -0.40188  -0.39825  -0.39781  -0.38917  -0.38844
 Alpha  occ. eigenvalues --   -0.38764  -0.38108  -0.38043  -0.38012  -0.37982
 Alpha  occ. eigenvalues --   -0.37257  -0.36766  -0.36211  -0.35984  -0.35628
 Alpha  occ. eigenvalues --   -0.35532  -0.35473  -0.34997  -0.34499  -0.34478
 Alpha  occ. eigenvalues --   -0.34295  -0.34287  -0.34087  -0.34051  -0.33867
 Alpha  occ. eigenvalues --   -0.33821  -0.33545  -0.33062  -0.32737  -0.32493
 Alpha  occ. eigenvalues --   -0.32265  -0.32034  -0.31817  -0.31548  -0.31026
 Alpha  occ. eigenvalues --   -0.28813  -0.28358  -0.27714  -0.20890  -0.20796
 Alpha  occ. eigenvalues --   -0.18626
 Alpha virt. eigenvalues --   -0.13714  -0.12353  -0.09816  -0.07261  -0.06651
 Alpha virt. eigenvalues --   -0.06598  -0.05768  -0.05469  -0.05101  -0.04490
 Alpha virt. eigenvalues --   -0.04426  -0.03827  -0.03421  -0.02713  -0.01578

 Mulliken charges:
               1
     1  N   -0.761491
     2  H    0.422231
     3  H    0.437807
     4  H    0.418324
     5  C   -0.131266
     6  H    0.228762
     7  C    0.638804
     8  C   -0.044265
     9  H    0.172765
    10  H    0.180373
    11  O   -0.520574
    12  O   -0.627529
    13  H    0.455508
    14  N   -0.570302
    15  H    0.360253
    16  C   -0.092633
    17  H    0.209797
    18  C    0.674461
    19  C   -0.466007
    20  H    0.191267
    21  H    0.174293
    22  H    0.189727
    23  O   -0.602556
    24  N   -0.587352
    25  H    0.370341
    26  C   -0.102884
    27  H    0.173825
    28  C    0.620390
    29  C    0.159044
    30  H    0.156020
    31  O   -0.540642
    32  C   -0.484659
    33  H    0.174325
    34  H    0.144862
    35  H    0.177639
    36  O   -0.634897
    37  H    0.400198
    38  N   -0.605326
    39  H    0.360179
    40  C   -0.063994
    41  H    0.178346
    42  C    0.627956
    43  C   -0.073711
    44  H    0.142333
    45  O   -0.553383
    46  C   -0.469371
    47  H    0.149446
    48  H    0.166433
    49  H    0.161749
    50  C   -0.444911
    51  H    0.158334
    52  H    0.140161
    53  H    0.154609
    54  N   -0.611684
    55  H    0.362018
    56  C   -0.069144
    57  H    0.185074
    58  C    0.633686
    59  C   -0.071629
    60  H    0.149619
    61  O   -0.533372
    62  C   -0.292691
    63  H    0.164590
    64  H    0.148325
    65  C   -0.460426
    66  H    0.155560
    67  H    0.146363
    68  H    0.152774
    69  C   -0.461076
    70  H    0.165473
    71  H    0.131691
    72  H    0.159007
    73  N   -0.605007
    74  H    0.357463
    75  C   -0.085081
    76  H    0.209940
    77  C    0.640391
    78  C   -0.369460
    79  H    0.197601
    80  H    0.196731
    81  O   -0.532586
    82  C    0.591124
    83  O   -0.449818
    84  O   -0.557976
    85  N   -0.612215
    86  H    0.342780
    87  C   -0.058066
    88  H    0.203464
    89  C    0.633038
    90  C   -0.367626
    91  H    0.172460
    92  H    0.165728
    93  O   -0.570911
    94  C    0.343965
    95  C   -0.106020
    96  H    0.172979
    97  N   -0.616361
    98  H    0.337101
    99  C    0.197137
   100  H    0.162686
   101  N   -0.446721
   102  N   -0.577953
   103  H    0.371488
   104  C   -0.078721
   105  H    0.169456
   106  C    0.604515
   107  C   -0.271185
   108  H    0.125303
   109  H    0.148876
   110  O   -0.532341
   111  C   -0.097463
   112  H    0.187696
   113  C   -0.440824
   114  H    0.116890
   115  H    0.169095
   116  H    0.139715
   117  C   -0.445614
   118  H    0.121814
   119  H    0.159310
   120  H    0.141103
   121  N   -0.671549
   122  H    0.369633
   123  C   -0.072973
   124  H    0.158860
   125  C    0.592373
   126  C   -0.292873
   127  H    0.186702
   128  H    0.135466
   129  O   -0.567128
   130  C   -0.314855
   131  H    0.150904
   132  H    0.191550
   133  C   -0.173120
   134  H    0.157196
   135  H    0.192343
   136  N   -0.610791
   137  H    0.414557
   138  N   -0.749142
   139  H    0.352915
   140  H    0.374594
   141  N   -0.784763
   142  H    0.348119
   143  H    0.418218
   144  C    0.785752
   145  O   -0.615417
   146  H    0.418565
 Sum of Mulliken charges =   1.00000

 Dipole moment (field-independent basis, Debye):
    X=            -29.5966    Y=            -23.0466    Z=            -41.0921  Tot=             55.6387
 Quadrupole moment (field-independent basis, Debye-Ang):
   XX=            140.1301   YY=           -349.7950   ZZ=           -410.4698
   XY=             72.6800   XZ=            108.5854   YZ=              7.8027

 Normal termination of Gaussian 16 at Sun Jun 19 11:59:49 2022.
