 Gaussian 16, Revision C.01,
 Gaussian 16:  ES64L-G16RevC.01  3-Jul-2019

 -------------------------------------------------------------------
 # B3LYP/6-31G* guess=read geom=check nosymm integral(ultrafinegrid)
 -------------------------------------------------------------------

 ------------------------------------------------------
 Candidate Structure: Conf:771 Charge calc in gas phase
 ------------------------------------------------------
 Structure from the checkpoint file:  "conf-771.chk"
 Charge =  1 Multiplicity = 1

                          Input orientation:
 ---------------------------------------------------------------------
 Center     Atomic      Atomic             Coordinates (Angstroms)
 Number     Number       Type             X           Y           Z
 ---------------------------------------------------------------------
      1          7           0       -7.032276    1.984435   -1.671513
      2          1           0       -7.378187    2.945599   -1.616737
      3          1           0       -7.816296    1.318502   -1.972881
      4          1           0       -6.683102    1.712024   -0.747231
      5          6           0       -6.021493    1.761796   -2.771882
      6          1           0       -5.883719    2.700023   -3.314946
      7          6           0       -6.708726    0.691218   -3.659240
      8          6           0       -4.663560    1.296688   -2.208363
      9          1           0       -4.778766    0.307930   -1.745003
     10          1           0       -4.336695    2.015852   -1.438676
     11          8           0       -7.826350    0.288716   -3.307643
     12          8           0       -3.773622    1.261868   -3.294595
     13          1           0       -3.067406    0.605447   -3.069437
     14          7           0       -6.021984    0.305515   -4.738577
     15          1           0       -5.046726    0.612430   -4.725658
     16          6           0       -6.277955   -0.995268   -5.364976
     17          1           0       -7.323692   -1.240645   -5.153560
     18          6           0       -5.392123   -2.014116   -4.592471
     19          6           0       -6.054153   -0.925784   -6.877844
     20          1           0       -6.346207   -1.860816   -7.365960
     21          1           0       -5.006236   -0.724016   -7.123647
     22          1           0       -6.670630   -0.130109   -7.304474
     23          8           0       -5.095070   -1.788248   -3.411924
     24          7           0       -4.951707   -3.089702   -5.267968
     25          1           0       -5.383179   -3.344312   -6.150515
     26          6           0       -4.204907   -4.186815   -4.637973
     27          1           0       -4.630823   -4.354586   -3.639037
     28          6           0       -2.695773   -3.842936   -4.469976
     29          6           0       -4.363334   -5.457156   -5.523962
     30          1           0       -3.629802   -5.390189   -6.330655
     31          8           0       -1.819966   -4.571598   -4.926308
     32          6           0       -4.131730   -6.739768   -4.736565
     33          1           0       -3.127821   -6.745989   -4.304631
     34          1           0       -4.862870   -6.840053   -3.922086
     35          1           0       -4.230212   -7.605140   -5.398398
     36          8           0       -5.634142   -5.451692   -6.183262
     37          1           0       -6.301681   -5.786416   -5.561592
     38          7           0       -2.428260   -2.700014   -3.787487
     39          1           0       -3.194775   -2.168515   -3.380325
     40          6           0       -1.057784   -2.253249   -3.572494
     41          1           0       -0.458444   -3.135143   -3.318360
     42          6           0       -1.069899   -1.283511   -2.388478
     43          6           0       -0.421180   -1.630954   -4.858930
     44          1           0       -0.560446   -2.410057   -5.617112
     45          8           0       -1.985980   -0.458365   -2.219344
     46          6           0       -1.134017   -0.359870   -5.336492
     47          1           0       -0.982972    0.479168   -4.647269
     48          1           0       -2.212227   -0.524298   -5.443828
     49          1           0       -0.745962   -0.057292   -6.315066
     50          6           0        1.088719   -1.407040   -4.696194
     51          1           0        1.315540   -0.628570   -3.958073
     52          1           0        1.602763   -2.325578   -4.388670
     53          1           0        1.527558   -1.092213   -5.648776
     54          7           0       -0.030212   -1.383838   -1.541760
     55          1           0        0.724921   -2.030710   -1.745093
     56          6           0        0.242264   -0.462859   -0.438194
     57          1           0       -0.406390    0.407693   -0.572786
     58          6           0        1.725516   -0.085604   -0.587237
     59          6           0       -0.034732   -1.118679    0.948996
     60          1           0        0.599895   -2.015799    0.996426
     61          8           0        2.547683   -0.964175   -0.878288
     62          6           0       -1.507775   -1.562664    1.061231
     63          1           0       -1.783039   -2.121069    0.159861
     64          1           0       -2.148620   -0.669035    1.076408
     65          6           0        0.369666   -0.178821    2.095917
     66          1           0       -0.202136    0.758039    2.060165
     67          1           0        1.432755    0.076614    2.067763
     68          1           0        0.173619   -0.646534    3.064491
     69          6           0       -1.807409   -2.437656    2.284754
     70          1           0       -2.847263   -2.781892    2.265087
     71          1           0       -1.166315   -3.327218    2.301365
     72          1           0       -1.659495   -1.902361    3.228208
     73          7           0        2.050463    1.205949   -0.373424
     74          1           0        1.306768    1.899649   -0.352493
     75          6           0        3.393806    1.731538   -0.653633
     76          1           0        3.762014    1.227053   -1.555799
     77          6           0        4.388806    1.425936    0.504279
     78          6           0        3.364512    3.256851   -0.867752
     79          1           0        3.284002    3.739121    0.113279
     80          1           0        4.318390    3.572972   -1.291984
     81          8           0        4.838246    2.324961    1.214372
     82          6           0        2.222393    3.757622   -1.720762
     83          8           0        1.042078    3.524212   -1.511940
     84          8           0        2.634125    4.538035   -2.731889
     85          7           0        4.716468    0.122557    0.644572
     86          1           0        4.286526   -0.555335    0.017831
     87          6           0        5.636879   -0.324876    1.692534
     88          1           0        5.473109    0.321771    2.559796
     89          6           0        7.104074   -0.153608    1.217151
     90          6           0        5.340572   -1.788766    2.081088
     91          1           0        5.515381   -2.425593    1.205388
     92          1           0        4.279974   -1.865176    2.342892
     93          8           0        7.744431   -1.107855    0.758575
     94          6           0        6.164165   -2.260263    3.241433
     95          6           0        5.876592   -2.491593    4.566785
     96          1           0        4.915360   -2.437826    5.060532
     97          7           0        7.524615   -2.484602    3.136291
     98          1           0        8.052140   -2.313414    2.283690
     99          6           0        7.998165   -2.803682    4.359299
    100          1           0        9.054658   -2.927042    4.551675
    101          7           0        7.023699   -2.827715    5.260707
    102          7           0        7.603183    1.088861    1.364019
    103          1           0        6.971769    1.825084    1.668031
    104          6           0        8.995711    1.440468    1.053446
    105          1           0        9.463836    0.502592    0.747414
    106          6           0        9.658280    1.961880    2.358800
    107          6           0        9.065756    2.475498   -0.076708
    108          1           0        8.447206    2.108353   -0.907988
    109          1           0        8.613493    3.404523    0.289900
    110          8           0        9.803738    3.168451    2.555953
    111          6           0       10.484262    2.787682   -0.595931
    112          1           0       11.082880    3.118868    0.261446
    113          6           0       11.166654    1.564798   -1.228514
    114          1           0       10.580884    1.179062   -2.073797
    115          1           0       12.160197    1.829930   -1.608050
    116          1           0       11.302386    0.744060   -0.515227
    117          6           0       10.423946    3.949646   -1.598862
    118          1           0        9.821306    3.682811   -2.477844
    119          1           0       11.426291    4.215463   -1.953943
    120          1           0        9.980845    4.843982   -1.145521
    121          7           0       10.002600    0.999662    3.241393
    122          1           0        9.920698    0.008017    3.028290
    123          6           0       10.678773    1.239252    4.512203
    124          1           0       11.581144    1.835205    4.332248
    125          6           0       11.086366   -0.135274    5.104679
    126          6           0        9.800529    2.015082    5.522232
    127          1           0        9.432007    2.908721    5.010277
    128          1           0       10.452052    2.355976    6.333963
    129          8           0       11.753204   -0.052362    6.183246
    130          6           0        8.608817    1.227197    6.109029
    131          1           0        7.824299    1.942380    6.382455
    132          1           0        8.176864    0.588485    5.327756
    133          6           0        8.931981    0.369454    7.365646
    134          1           0        9.972127    0.498164    7.658003
    135          1           0        8.305873    0.692856    8.207162
    136          7           0        8.687181   -1.065292    7.169505
    137          1           0        7.814161   -1.334757    6.723999
    138          7           0       10.783774   -1.886188    7.790134
    139          1           0       11.309748   -2.723614    8.006349
    140          1           0       11.309913   -1.155872    7.198802
    141          7           0        8.964865   -3.334942    7.449701
    142          1           0        9.606659   -4.093599    7.259765
    143          1           0        8.060028   -3.424051    6.977976
    144          6           0        9.505850   -2.083148    7.450802
    145          8           0       10.665248   -1.169998    4.536277
    146          1           0        1.835366    4.857343   -3.194908
 ---------------------------------------------------------------------

 SCF Done:  E(RB3LYP) =  -3503.40177324     A.U. after    2 cycles

 Alpha  occ. eigenvalues --  -19.28742 -19.27328 -19.26444 -19.24063 -19.23361
 Alpha  occ. eigenvalues --  -19.23127 -19.22993 -19.21908 -19.20112 -19.19671
 Alpha  occ. eigenvalues --  -19.17236 -19.13340 -19.10928 -19.10725 -14.60503
 Alpha  occ. eigenvalues --  -14.48988 -14.47038 -14.46660 -14.45766 -14.44024
 Alpha  occ. eigenvalues --  -14.43412 -14.42980 -14.41323 -14.41310 -14.40944
 Alpha  occ. eigenvalues --  -14.38435 -14.37256 -14.37019 -10.43667 -10.41574
 Alpha  occ. eigenvalues --  -10.40575 -10.40140 -10.39702 -10.38685 -10.37817
 Alpha  occ. eigenvalues --  -10.37422 -10.36906 -10.36717 -10.35449 -10.34411
 Alpha  occ. eigenvalues --  -10.33263 -10.32950 -10.32747 -10.32683 -10.32359
 Alpha  occ. eigenvalues --  -10.30577 -10.30129 -10.29399 -10.28840 -10.28668
 Alpha  occ. eigenvalues --  -10.28503 -10.28366 -10.27856 -10.27105 -10.26569
 Alpha  occ. eigenvalues --  -10.26430 -10.26356 -10.25957 -10.25831 -10.25809
 Alpha  occ. eigenvalues --  -10.25559 -10.25482 -10.25151 -10.25117 -10.23234
 Alpha  occ. eigenvalues --  -10.21885 -10.21364 -10.21325 -10.20144 -10.19919
 Alpha  occ. eigenvalues --  -10.19877  -1.19813  -1.19761  -1.15114  -1.14888
 Alpha  occ. eigenvalues --   -1.14308  -1.13781  -1.13448  -1.12047  -1.11432
 Alpha  occ. eigenvalues --   -1.11242  -1.10672  -1.08960  -1.06216  -1.06207
 Alpha  occ. eigenvalues --   -1.05614  -1.05105  -1.03865  -1.03064  -1.02956
 Alpha  occ. eigenvalues --   -1.02264  -1.00714  -0.99845  -0.97388  -0.95666
 Alpha  occ. eigenvalues --   -0.95176  -0.93151  -0.92955  -0.92172  -0.91776
 Alpha  occ. eigenvalues --   -0.90469  -0.88977  -0.88202  -0.87954  -0.85820
 Alpha  occ. eigenvalues --   -0.85658  -0.83804  -0.83401  -0.81756  -0.80970
 Alpha  occ. eigenvalues --   -0.80174  -0.80011  -0.79439  -0.78525  -0.77657
 Alpha  occ. eigenvalues --   -0.76732  -0.76601  -0.76155  -0.75695  -0.74756
 Alpha  occ. eigenvalues --   -0.72430  -0.72351  -0.71961  -0.71282  -0.71059
 Alpha  occ. eigenvalues --   -0.70806  -0.70425  -0.69926  -0.69604  -0.69343
 Alpha  occ. eigenvalues --   -0.68359  -0.67859  -0.67262  -0.66829  -0.66629
 Alpha  occ. eigenvalues --   -0.65966  -0.65842  -0.65662  -0.65181  -0.64315
 Alpha  occ. eigenvalues --   -0.63973  -0.63631  -0.63347  -0.63230  -0.62242
 Alpha  occ. eigenvalues --   -0.61599  -0.61306  -0.61106  -0.60075  -0.59719
 Alpha  occ. eigenvalues --   -0.59511  -0.59247  -0.59018  -0.58814  -0.58704
 Alpha  occ. eigenvalues --   -0.58256  -0.58010  -0.57822  -0.57798  -0.57327
 Alpha  occ. eigenvalues --   -0.56827  -0.56418  -0.56029  -0.56005  -0.55617
 Alpha  occ. eigenvalues --   -0.55359  -0.54628  -0.54314  -0.54218  -0.53909
 Alpha  occ. eigenvalues --   -0.53576  -0.53473  -0.53291  -0.53166  -0.53063
 Alpha  occ. eigenvalues --   -0.52830  -0.52478  -0.52117  -0.52039  -0.51307
 Alpha  occ. eigenvalues --   -0.51281  -0.51002  -0.50945  -0.50438  -0.50329
 Alpha  occ. eigenvalues --   -0.49613  -0.49593  -0.49555  -0.49394  -0.49221
 Alpha  occ. eigenvalues --   -0.49120  -0.48898  -0.48573  -0.48461  -0.48249
 Alpha  occ. eigenvalues --   -0.48112  -0.48001  -0.47852  -0.47693  -0.47596
 Alpha  occ. eigenvalues --   -0.47442  -0.47079  -0.46889  -0.46533  -0.46351
 Alpha  occ. eigenvalues --   -0.46177  -0.46087  -0.46068  -0.45971  -0.45909
 Alpha  occ. eigenvalues --   -0.45834  -0.45654  -0.45355  -0.45308  -0.45127
 Alpha  occ. eigenvalues --   -0.44700  -0.44295  -0.44126  -0.43791  -0.43637
 Alpha  occ. eigenvalues --   -0.42701  -0.42535  -0.42487  -0.42169  -0.42125
 Alpha  occ. eigenvalues --   -0.42033  -0.41953  -0.41780  -0.41744  -0.41152
 Alpha  occ. eigenvalues --   -0.41101  -0.41090  -0.40931  -0.40890  -0.40649
 Alpha  occ. eigenvalues --   -0.40492  -0.40448  -0.39597  -0.39388  -0.38975
 Alpha  occ. eigenvalues --   -0.38661  -0.37878  -0.37649  -0.37500  -0.37215
 Alpha  occ. eigenvalues --   -0.37022  -0.36871  -0.36577  -0.36483  -0.36199
 Alpha  occ. eigenvalues --   -0.36135  -0.35345  -0.35144  -0.35007  -0.34645
 Alpha  occ. eigenvalues --   -0.34422  -0.33811  -0.33460  -0.33174  -0.33166
 Alpha  occ. eigenvalues --   -0.32706  -0.32163  -0.31054  -0.30361  -0.30025
 Alpha  occ. eigenvalues --   -0.27615  -0.27356  -0.26762  -0.25964  -0.25274
 Alpha  occ. eigenvalues --   -0.25034
 Alpha virt. eigenvalues --   -0.12810  -0.11680  -0.09353  -0.09225  -0.08611
 Alpha virt. eigenvalues --   -0.07637  -0.06608  -0.06314  -0.05955  -0.04031
 Alpha virt. eigenvalues --   -0.03868  -0.02525  -0.02403  -0.02108  -0.01238

 Mulliken charges:
               1
     1  N   -0.767051
     2  H    0.418482
     3  H    0.437471
     4  H    0.415248
     5  C   -0.126952
     6  H    0.232659
     7  C    0.645932
     8  C   -0.025307
     9  H    0.188205
    10  H    0.149730
    11  O   -0.535197
    12  O   -0.663535
    13  H    0.474777
    14  N   -0.563423
    15  H    0.379570
    16  C   -0.096016
    17  H    0.220756
    18  C    0.626429
    19  C   -0.473527
    20  H    0.178470
    21  H    0.175027
    22  H    0.188533
    23  O   -0.552890
    24  N   -0.610534
    25  H    0.367648
    26  C   -0.085562
    27  H    0.177553
    28  C    0.633612
    29  C    0.118951
    30  H    0.186016
    31  O   -0.517653
    32  C   -0.486444
    33  H    0.191315
    34  H    0.136868
    35  H    0.181223
    36  O   -0.633445
    37  H    0.398329
    38  N   -0.659648
    39  H    0.385808
    40  C   -0.024277
    41  H    0.174369
    42  C    0.638767
    43  C   -0.083328
    44  H    0.177624
    45  O   -0.598248
    46  C   -0.460777
    47  H    0.149699
    48  H    0.131634
    49  H    0.161180
    50  C   -0.467796
    51  H    0.143401
    52  H    0.159174
    53  H    0.166379
    54  N   -0.596797
    55  H    0.364972
    56  C   -0.062172
    57  H    0.172922
    58  C    0.629698
    59  C   -0.071232
    60  H    0.143815
    61  O   -0.563289
    62  C   -0.251867
    63  H    0.143688
    64  H    0.123746
    65  C   -0.474736
    66  H    0.142133
    67  H    0.166080
    68  H    0.169010
    69  C   -0.453012
    70  H    0.149827
    71  H    0.154582
    72  H    0.155435
    73  N   -0.611822
    74  H    0.372833
    75  C   -0.069448
    76  H    0.193594
    77  C    0.641086
    78  C   -0.388351
    79  H    0.227684
    80  H    0.210096
    81  O   -0.528721
    82  C    0.590674
    83  O   -0.488669
    84  O   -0.540373
    85  N   -0.630866
    86  H    0.381647
    87  C   -0.043387
    88  H    0.181348
    89  C    0.627133
    90  C   -0.370989
    91  H    0.180169
    92  H    0.158139
    93  O   -0.563226
    94  C    0.298370
    95  C   -0.073103
    96  H    0.133696
    97  N   -0.599250
    98  H    0.384437
    99  C    0.235851
   100  H    0.207153
   101  N   -0.521223
   102  N   -0.600569
   103  H    0.368335
   104  C   -0.077508
   105  H    0.182967
   106  C    0.622623
   107  C   -0.243601
   108  H    0.117936
   109  H    0.149648
   110  O   -0.538177
   111  C   -0.078940
   112  H    0.158772
   113  C   -0.450399
   114  H    0.134621
   115  H    0.147384
   116  H    0.147277
   117  C   -0.445416
   118  H    0.128645
   119  H    0.145092
   120  H    0.146342
   121  N   -0.618381
   122  H    0.341143
   123  C   -0.026114
   124  H    0.166462
   125  C    0.600454
   126  C   -0.273710
   127  H    0.170042
   128  H    0.155051
   129  O   -0.622588
   130  C   -0.298235
   131  H    0.138593
   132  H    0.150143
   133  C   -0.147336
   134  H    0.212349
   135  H    0.154826
   136  N   -0.593363
   137  H    0.363967
   138  N   -0.767887
   139  H    0.329180
   140  H    0.427096
   141  N   -0.767087
   142  H    0.339849
   143  H    0.379649
   144  C    0.736120
   145  O   -0.601020
   146  H    0.419247
 Sum of Mulliken charges =   1.00000

 Dipole moment (field-independent basis, Debye):
    X=            -29.1058    Y=              0.3657    Z=            -10.6661  Tot=             31.0008
 Quadrupole moment (field-independent basis, Debye-Ang):
   XX=           -337.1136   YY=           -370.2521   ZZ=           -341.3849
   XY=            -63.9183   XZ=             55.8646   YZ=            -32.3492

 Normal termination of Gaussian 16 at Sun Jun 19 12:04:33 2022.
