 Gaussian 16, Revision C.01,
 Gaussian 16:  ES64L-G16RevC.01  3-Jul-2019

 -------------------------------------------------------------------
 # B3LYP/6-31G* guess=read geom=check nosymm integral(ultrafinegrid)
 -------------------------------------------------------------------

 ------------------------------------------------------
 Candidate Structure: Conf:250 Charge calc in gas phase
 ------------------------------------------------------
 Structure from the checkpoint file:  "conf-250.chk"
 Charge =  1 Multiplicity = 1

                          Input orientation:
 ---------------------------------------------------------------------
 Center     Atomic      Atomic             Coordinates (Angstroms)
 Number     Number       Type             X           Y           Z
 ---------------------------------------------------------------------
      1          7           0       -9.619859   -2.171538   -7.066942
      2          1           0      -10.079630   -2.291458   -7.974474
      3          1           0       -9.555850   -3.115515   -6.581388
      4          1           0      -10.175702   -1.515471   -6.508280
      5          6           0       -8.164427   -1.778690   -7.178847
      6          1           0       -7.958625   -1.443729   -8.197231
      7          6           0       -7.417252   -3.077785   -6.811951
      8          6           0       -7.815173   -0.643220   -6.167338
      9          1           0       -8.136286   -0.956231   -5.162421
     10          1           0       -8.376893    0.256049   -6.449286
     11          8           0       -8.069908   -3.993797   -6.297022
     12          8           0       -6.450987   -0.355250   -6.224555
     13          1           0       -5.994206   -0.922239   -5.554541
     14          7           0       -6.097746   -3.080987   -7.042549
     15          1           0       -5.701273   -2.184702   -7.313117
     16          6           0       -5.204059   -3.976527   -6.307096
     17          1           0       -5.687860   -4.956150   -6.266091
     18          6           0       -5.048723   -3.428711   -4.862610
     19          6           0       -3.852846   -4.078294   -7.026760
     20          1           0       -3.180872   -4.756324   -6.494407
     21          1           0       -3.360936   -3.100386   -7.080579
     22          1           0       -3.992795   -4.459444   -8.042097
     23          8           0       -5.412562   -2.281198   -4.556233
     24          7           0       -4.492668   -4.275586   -3.990454
     25          1           0       -4.148790   -5.189890   -4.276211
     26          6           0       -4.124005   -3.930772   -2.618063
     27          1           0       -4.914450   -3.310825   -2.186725
     28          6           0       -2.766369   -3.200390   -2.620642
     29          6           0       -3.967075   -5.271729   -1.843270
     30          1           0       -3.464319   -5.044407   -0.891569
     31          8           0       -1.745083   -3.809084   -2.962974
     32          6           0       -5.296154   -5.957559   -1.558200
     33          1           0       -5.918791   -5.342724   -0.899680
     34          1           0       -5.849431   -6.151109   -2.483268
     35          1           0       -5.110270   -6.916542   -1.066899
     36          8           0       -3.172675   -6.153619   -2.628058
     37          1           0       -2.323430   -5.682744   -2.771064
     38          7           0       -2.782701   -1.913216   -2.228382
     39          1           0       -3.642403   -1.480982   -1.908837
     40          6           0       -1.584211   -1.090773   -2.070970
     41          1           0       -0.727316   -1.770474   -2.100191
     42          6           0       -1.730713   -0.414535   -0.697365
     43          6           0       -1.447140   -0.029771   -3.200763
     44          1           0       -2.311178    0.642668   -3.104402
     45          8           0       -2.818163    0.058662   -0.364867
     46          6           0       -0.165913    0.802290   -3.032598
     47          1           0        0.726347    0.162419   -3.039174
     48          1           0       -0.159982    1.393237   -2.112312
     49          1           0       -0.066423    1.508301   -3.863501
     50          6           0       -1.494722   -0.688409   -4.586922
     51          1           0       -0.684706   -1.416842   -4.709825
     52          1           0       -2.446127   -1.204546   -4.753117
     53          1           0       -1.384998    0.073839   -5.366236
     54          7           0       -0.623026   -0.402653    0.082699
     55          1           0        0.263132   -0.710681   -0.302547
     56          6           0       -0.520016    0.358511    1.327086
     57          1           0       -1.453827    0.917269    1.430972
     58          6           0        0.676200    1.300197    1.126914
     59          6           0       -0.297264   -0.557675    2.562455
     60          1           0        0.644458   -1.092419    2.374910
     61          8           0        1.742577    0.852511    0.690910
     62          6           0       -1.403324   -1.624624    2.716737
     63          1           0       -1.096568   -2.290459    3.534272
     64          1           0       -1.420089   -2.245225    1.812527
     65          6           0       -0.111137    0.277268    3.840765
     66          1           0       -0.974796    0.923726    4.038319
     67          1           0        0.777086    0.915656    3.785174
     68          1           0        0.008757   -0.381964    4.707218
     69          6           0       -2.819195   -1.101501    2.994864
     70          1           0       -3.507731   -1.942407    3.135771
     71          1           0       -2.862412   -0.495345    3.906686
     72          1           0       -3.200873   -0.502106    2.161524
     73          7           0        0.502758    2.604538    1.435963
     74          1           0       -0.398006    2.908111    1.781045
     75          6           0        1.490987    3.632920    1.088883
     76          1           0        1.966159    3.291550    0.162164
     77          6           0        2.600658    3.781370    2.159449
     78          6           0        0.799873    4.968848    0.837017
     79          1           0        0.173293    5.268410    1.685713
     80          1           0        1.555061    5.758035    0.762921
     81          8           0        2.824967    4.859727    2.710188
     82          6           0       -0.028190    4.966135   -0.431108
     83          8           0       -0.065973    4.078743   -1.256981
     84          8           0       -0.734148    6.111206   -0.550331
     85          7           0        3.298788    2.646751    2.407688
     86          1           0        3.134585    1.841859    1.803999
     87          6           0        4.436026    2.631760    3.333401
     88          1           0        4.200448    3.347858    4.125971
     89          6           0        5.709853    3.102350    2.588650
     90          6           0        4.636764    1.224876    3.925669
     91          1           0        5.025030    0.573614    3.136860
     92          1           0        3.656112    0.834530    4.228601
     93          8           0        6.519352    2.298096    2.123308
     94          6           0        5.588142    1.205464    5.081538
     95          6           0        6.950673    1.033629    5.165772
     96          1           0        7.639912    0.855118    4.351729
     97          7           0        5.188023    1.434157    6.390709
     98          1           0        4.240619    1.583433    6.707644
     99          6           0        6.304073    1.382614    7.177699
    100          1           0        6.263066    1.521112    8.250050
    101          7           0        7.385878    1.144237    6.469732
    102          7           0        5.822451    4.443397    2.458090
    103          1           0        5.064709    5.023518    2.804703
    104          6           0        6.864397    5.069594    1.630737
    105          1           0        7.080476    4.360909    0.824831
    106          6           0        8.158660    5.264602    2.467163
    107          6           0        6.348641    6.400105    1.072909
    108          1           0        5.340706    6.233413    0.665445
    109          1           0        6.255740    7.100758    1.911052
    110          8           0        8.506511    6.368417    2.878870
    111          6           0        7.233604    7.045530   -0.012719
    112          1           0        8.245286    7.137743    0.400277
    113          6           0        7.301251    6.206170   -1.297967
    114          1           0        6.302185    6.076525   -1.736583
    115          1           0        7.929890    6.698656   -2.048834
    116          1           0        7.722938    5.209339   -1.126795
    117          6           0        6.725036    8.461729   -0.320961
    118          1           0        5.700343    8.437293   -0.716643
    119          1           0        7.357251    8.952515   -1.069935
    120          1           0        6.723195    9.087524    0.578710
    121          7           0        8.854721    4.119622    2.681859
    122          1           0        8.435125    3.231490    2.415878
    123          6           0       10.081939    4.100247    3.469766
    124          1           0       10.596663    5.045943    3.294459
    125          6           0       11.011341    2.987051    2.997537
    126          6           0        9.799705    3.947577    4.999346
    127          1           0        8.927938    3.296675    5.127517
    128          1           0        9.508191    4.938196    5.363414
    129          8           0       12.204165    3.154014    2.840883
    130          6           0       10.983757    3.385515    5.824813
    131          1           0       11.931528    3.631752    5.333052
    132          1           0       11.006749    3.874746    6.806434
    133          6           0       10.890285    1.849868    6.026250
    134          1           0       10.295315    1.629956    6.919251
    135          1           0       10.367367    1.383145    5.195443
    136          7           0       12.183366    1.176694    6.139705
    137          1           0       12.852741    1.596657    6.771185
    138          7           0       12.135440    0.117862    4.043011
    139          1           0       12.662064   -0.561827    3.498647
    140          1           0       11.081028    1.082539    3.152509
    141          7           0       14.012452   -0.061318    5.502322
    142          1           0       14.404355   -0.739236    4.861920
    143          1           0       14.123678   -0.343407    6.469667
    144          6           0       12.735897    0.393963    5.160240
    145          8           0       10.391199    1.801602    2.909399
    146          1           0       -1.214003    6.057836   -1.398564
 ---------------------------------------------------------------------

 SCF Done:  E(RB3LYP) =  -3503.36883277     A.U. after    2 cycles

 Alpha  occ. eigenvalues --  -19.28646 -19.27428 -19.26324 -19.24671 -19.22432
 Alpha  occ. eigenvalues --  -19.20981 -19.20767 -19.20029 -19.19490 -19.18290
 Alpha  occ. eigenvalues --  -19.16831 -19.15757 -19.13087 -19.12734 -14.61956
 Alpha  occ. eigenvalues --  -14.50930 -14.47685 -14.45169 -14.44923 -14.44087
 Alpha  occ. eigenvalues --  -14.42597 -14.41959 -14.39796 -14.37925 -14.37439
 Alpha  occ. eigenvalues --  -14.36753 -14.34220 -14.32209 -10.45068 -10.41690
 Alpha  occ. eigenvalues --  -10.41287 -10.39359 -10.39182 -10.37994 -10.36941
 Alpha  occ. eigenvalues --  -10.36680 -10.36587 -10.35290 -10.33167 -10.33116
 Alpha  occ. eigenvalues --  -10.32705 -10.31825 -10.31180 -10.31105 -10.31093
 Alpha  occ. eigenvalues --  -10.30818 -10.30225 -10.29881 -10.28610 -10.27502
 Alpha  occ. eigenvalues --  -10.27087 -10.26886 -10.26393 -10.25866 -10.25716
 Alpha  occ. eigenvalues --  -10.25245 -10.24814 -10.24537 -10.24415 -10.24402
 Alpha  occ. eigenvalues --  -10.23800 -10.23792 -10.23029 -10.22586 -10.22277
 Alpha  occ. eigenvalues --  -10.20994 -10.20972 -10.19873 -10.19834 -10.19691
 Alpha  occ. eigenvalues --  -10.19419  -1.21087  -1.17362  -1.16275  -1.15934
 Alpha  occ. eigenvalues --   -1.14973  -1.12932  -1.12161  -1.11188  -1.09974
 Alpha  occ. eigenvalues --   -1.09938  -1.08579  -1.08373  -1.07825  -1.07449
 Alpha  occ. eigenvalues --   -1.04442  -1.04396  -1.03859  -1.01342  -1.00973
 Alpha  occ. eigenvalues --   -1.00653  -1.00394  -0.99955  -0.98329  -0.95981
 Alpha  occ. eigenvalues --   -0.93277  -0.93206  -0.91331  -0.90143  -0.89863
 Alpha  occ. eigenvalues --   -0.88686  -0.87573  -0.87296  -0.86426  -0.86070
 Alpha  occ. eigenvalues --   -0.84210  -0.83229  -0.81567  -0.81410  -0.80730
 Alpha  occ. eigenvalues --   -0.80537  -0.78804  -0.78628  -0.77525  -0.77018
 Alpha  occ. eigenvalues --   -0.76268  -0.75765  -0.75138  -0.74954  -0.74444
 Alpha  occ. eigenvalues --   -0.74038  -0.73439  -0.71186  -0.70750  -0.70441
 Alpha  occ. eigenvalues --   -0.70227  -0.69049  -0.68966  -0.68296  -0.67810
 Alpha  occ. eigenvalues --   -0.67161  -0.67139  -0.66477  -0.66338  -0.66098
 Alpha  occ. eigenvalues --   -0.65104  -0.64843  -0.64631  -0.63952  -0.63209
 Alpha  occ. eigenvalues --   -0.62965  -0.62703  -0.62660  -0.61930  -0.61516
 Alpha  occ. eigenvalues --   -0.61382  -0.61027  -0.60273  -0.59952  -0.59442
 Alpha  occ. eigenvalues --   -0.59299  -0.58921  -0.58916  -0.58219  -0.57500
 Alpha  occ. eigenvalues --   -0.57142  -0.56884  -0.56696  -0.56428  -0.56161
 Alpha  occ. eigenvalues --   -0.55790  -0.55598  -0.55319  -0.55080  -0.54941
 Alpha  occ. eigenvalues --   -0.54808  -0.54257  -0.54196  -0.53983  -0.53791
 Alpha  occ. eigenvalues --   -0.53679  -0.52702  -0.52465  -0.52160  -0.52076
 Alpha  occ. eigenvalues --   -0.51729  -0.51385  -0.50939  -0.50895  -0.50758
 Alpha  occ. eigenvalues --   -0.50689  -0.50295  -0.49833  -0.49028  -0.48892
 Alpha  occ. eigenvalues --   -0.48668  -0.48396  -0.48195  -0.47959  -0.47714
 Alpha  occ. eigenvalues --   -0.47623  -0.47610  -0.47453  -0.46919  -0.46869
 Alpha  occ. eigenvalues --   -0.46712  -0.46637  -0.46549  -0.46481  -0.46264
 Alpha  occ. eigenvalues --   -0.46213  -0.46065  -0.46012  -0.45657  -0.45513
 Alpha  occ. eigenvalues --   -0.45138  -0.45086  -0.44946  -0.44766  -0.44661
 Alpha  occ. eigenvalues --   -0.44546  -0.44421  -0.44302  -0.44158  -0.43518
 Alpha  occ. eigenvalues --   -0.43426  -0.43171  -0.43106  -0.42851  -0.42768
 Alpha  occ. eigenvalues --   -0.42287  -0.42058  -0.42031  -0.41920  -0.41634
 Alpha  occ. eigenvalues --   -0.41541  -0.41350  -0.40772  -0.40744  -0.40659
 Alpha  occ. eigenvalues --   -0.40621  -0.40249  -0.39855  -0.39376  -0.39110
 Alpha  occ. eigenvalues --   -0.38923  -0.38857  -0.38693  -0.38548  -0.38468
 Alpha  occ. eigenvalues --   -0.38180  -0.38134  -0.37742  -0.36150  -0.35877
 Alpha  occ. eigenvalues --   -0.35793  -0.35423  -0.35276  -0.35073  -0.34962
 Alpha  occ. eigenvalues --   -0.34735  -0.34676  -0.34313  -0.34234  -0.33661
 Alpha  occ. eigenvalues --   -0.33246  -0.32748  -0.32502  -0.31188  -0.30986
 Alpha  occ. eigenvalues --   -0.30806  -0.30385  -0.30090  -0.29616  -0.28788
 Alpha  occ. eigenvalues --   -0.28435  -0.27629  -0.26079  -0.25401  -0.25254
 Alpha  occ. eigenvalues --   -0.24663
 Alpha virt. eigenvalues --   -0.14197  -0.12852  -0.10152  -0.07769  -0.07347
 Alpha virt. eigenvalues --   -0.06853  -0.05860  -0.05137  -0.04958  -0.04242
 Alpha virt. eigenvalues --   -0.03299  -0.02280  -0.02074  -0.01044  -0.00868

 Mulliken charges:
               1
     1  N   -0.760094
     2  H    0.423573
     3  H    0.435489
     4  H    0.418209
     5  C   -0.133932
     6  H    0.228325
     7  C    0.639433
     8  C   -0.040333
     9  H    0.170122
    10  H    0.180892
    11  O   -0.527249
    12  O   -0.627668
    13  H    0.456190
    14  N   -0.567668
    15  H    0.360763
    16  C   -0.097100
    17  H    0.211828
    18  C    0.666379
    19  C   -0.469560
    20  H    0.193227
    21  H    0.178121
    22  H    0.190809
    23  O   -0.579182
    24  N   -0.584603
    25  H    0.362406
    26  C   -0.086683
    27  H    0.169563
    28  C    0.647920
    29  C    0.107058
    30  H    0.151618
    31  O   -0.554660
    32  C   -0.450338
    33  H    0.151940
    34  H    0.149672
    35  H    0.185801
    36  O   -0.642807
    37  H    0.426833
    38  N   -0.597984
    39  H    0.354902
    40  C   -0.057886
    41  H    0.178603
    42  C    0.626623
    43  C   -0.073000
    44  H    0.143686
    45  O   -0.545633
    46  C   -0.473977
    47  H    0.147368
    48  H    0.180756
    49  H    0.161047
    50  C   -0.455734
    51  H    0.162004
    52  H    0.133563
    53  H    0.151797
    54  N   -0.600854
    55  H    0.355374
    56  C   -0.057829
    57  H    0.175437
    58  C    0.646343
    59  C   -0.076277
    60  H    0.145997
    61  O   -0.559971
    62  C   -0.256399
    63  H    0.143716
    64  H    0.135647
    65  C   -0.480948
    66  H    0.146771
    67  H    0.158673
    68  H    0.162218
    69  C   -0.473083
    70  H    0.145901
    71  H    0.147381
    72  H    0.172937
    73  N   -0.596617
    74  H    0.341372
    75  C   -0.061035
    76  H    0.213136
    77  C    0.632930
    78  C   -0.394716
    79  H    0.192610
    80  H    0.230150
    81  O   -0.536165
    82  C    0.581674
    83  O   -0.460194
    84  O   -0.558238
    85  N   -0.631154
    86  H    0.379937
    87  C   -0.047304
    88  H    0.173378
    89  C    0.639956
    90  C   -0.372708
    91  H    0.195485
    92  H    0.141642
    93  O   -0.540815
    94  C    0.308356
    95  C   -0.074699
    96  H    0.172561
    97  N   -0.607860
    98  H    0.327496
    99  C    0.210289
   100  H    0.157446
   101  N   -0.431906
   102  N   -0.616084
   103  H    0.362721
   104  C   -0.059053
   105  H    0.173074
   106  C    0.629121
   107  C   -0.274830
   108  H    0.117130
   109  H    0.159840
   110  O   -0.534673
   111  C   -0.077937
   112  H    0.161543
   113  C   -0.450137
   114  H    0.127656
   115  H    0.147153
   116  H    0.148371
   117  C   -0.445017
   118  H    0.127126
   119  H    0.143476
   120  H    0.151441
   121  N   -0.635828
   122  H    0.379075
   123  C   -0.006690
   124  H    0.185053
   125  C    0.572560
   126  C   -0.294278
   127  H    0.168602
   128  H    0.160283
   129  O   -0.479593
   130  C   -0.302886
   131  H    0.172192
   132  H    0.133050
   133  C   -0.152548
   134  H    0.170071
   135  H    0.201281
   136  N   -0.605731
   137  H    0.323554
   138  N   -0.728684
   139  H    0.285309
   140  H    0.457152
   141  N   -0.759840
   142  H    0.327610
   143  H    0.327360
   144  C    0.685739
   145  O   -0.626290
   146  H    0.416085
 Sum of Mulliken charges =   1.00000

 Dipole moment (field-independent basis, Debye):
    X=            -39.8458    Y=            -11.8540    Z=            -23.2234  Tot=             47.6186
 Quadrupole moment (field-independent basis, Debye-Ang):
   XX=           -121.8105   YY=           -411.0228   ZZ=           -151.1121
   XY=              6.3526   XZ=            278.6883   YZ=             49.0194

 Normal termination of Gaussian 16 at Sun Jun 19 12:01:52 2022.
