 Gaussian 16, Revision C.01,
 Gaussian 16:  ES64L-G16RevC.01  3-Jul-2019

 -------------------------------------------------------------------
 # B3LYP/6-31G* guess=read geom=check nosymm integral(ultrafinegrid)
 -------------------------------------------------------------------

 ------------------------------------------------------
 Candidate Structure: Conf:102 Charge calc in gas phase
 ------------------------------------------------------
 Structure from the checkpoint file:  "conf-102.chk"
 Charge =  1 Multiplicity = 1

                          Input orientation:
 ---------------------------------------------------------------------
 Center     Atomic      Atomic             Coordinates (Angstroms)
 Number     Number       Type             X           Y           Z
 ---------------------------------------------------------------------
      1          7           0       -8.927825   -3.859971   -7.615956
      2          1           0       -8.626919   -4.893851   -7.619279
      3          1           0       -9.828510   -3.777052   -7.133248
      4          1           0       -9.036292   -3.499238   -8.567281
      5          6           0       -7.781156   -3.242406   -6.853824
      6          1           0       -7.152189   -2.708544   -7.571726
      7          6           0       -7.018214   -4.492672   -6.319925
      8          6           0       -8.245156   -2.246105   -5.781181
      9          1           0       -8.753284   -2.780917   -4.964845
     10          1           0       -8.954938   -1.528027   -6.220204
     11          8           0       -7.376384   -5.596682   -6.769343
     12          8           0       -7.058445   -1.609655   -5.356199
     13          1           0       -7.185899   -1.203287   -4.483857
     14          7           0       -6.056292   -4.271494   -5.441246
     15          1           0       -5.919342   -3.331295   -5.056372
     16          6           0       -5.278885   -5.324570   -4.785976
     17          1           0       -5.954992   -6.154098   -4.549121
     18          6           0       -4.775425   -4.680097   -3.473741
     19          6           0       -4.139515   -5.836912   -5.681643
     20          1           0       -3.590791   -6.645343   -5.188937
     21          1           0       -3.434645   -5.032788   -5.914284
     22          1           0       -4.550428   -6.233515   -6.614120
     23          8           0       -4.992499   -3.483773   -3.247421
     24          7           0       -4.118488   -5.491261   -2.630600
     25          1           0       -3.888554   -6.453009   -2.864382
     26          6           0       -3.588294   -5.050117   -1.338894
     27          1           0       -4.274863   -4.302127   -0.930832
     28          6           0       -2.184882   -4.424138   -1.531852
     29          6           0       -3.494190   -6.288405   -0.417549
     30          1           0       -2.940636   -5.984416    0.481177
     31          8           0       -1.159177   -5.078779   -1.314581
     32          6           0       -4.852439   -6.842780   -0.010431
     33          1           0       -5.420174   -6.103285    0.564571
     34          1           0       -5.444089   -7.132208   -0.885544
     35          1           0       -4.710274   -7.732029    0.609656
     36          8           0       -2.784544   -7.310156   -1.112609
     37          1           0       -1.881201   -6.946576   -1.217298
     38          7           0       -2.188574   -3.146867   -1.962157
     39          1           0       -3.070433   -2.666639   -2.120977
     40          6           0       -0.982874   -2.344039   -2.152572
     41          1           0       -0.179967   -2.832632   -1.591489
     42          6           0       -1.323851   -0.959296   -1.573158
     43          6           0       -0.572443   -2.229139   -3.648558
     44          1           0       -1.404304   -1.722662   -4.157992
     45          8           0       -2.404441   -0.432927   -1.842737
     46          6           0        0.690895   -1.370436   -3.815852
     47          1           0        1.543766   -1.815501   -3.286621
     48          1           0        0.555009   -0.351273   -3.441404
     49          1           0        0.964309   -1.300804   -4.874036
     50          6           0       -0.371671   -3.611007   -4.285661
     51          1           0        0.431627   -4.166064   -3.788101
     52          1           0       -1.279068   -4.220423   -4.229007
     53          1           0       -0.103052   -3.503105   -5.342722
     54          7           0       -0.387350   -0.390454   -0.782633
     55          1           0        0.499285   -0.845940   -0.601775
     56          6           0       -0.533479    0.944955   -0.214998
     57          1           0       -1.082029    1.550012   -0.942636
     58          6           0        0.882567    1.494113   -0.019692
     59          6           0       -1.351553    0.919440    1.119761
     60          1           0       -2.273683    0.388430    0.846599
     61          8           0        1.829894    0.726418    0.207390
     62          6           0       -1.752005    2.319585    1.629399
     63          1           0       -0.851880    2.875603    1.920479
     64          1           0       -2.316123    2.165844    2.558618
     65          6           0       -0.636774    0.129165    2.225849
     66          1           0        0.255697    0.656468    2.579611
     67          1           0       -0.335288   -0.867396    1.885389
     68          1           0       -1.307194   -0.002049    3.082292
     69          6           0       -2.615870    3.152479    0.672414
     70          1           0       -2.988988    4.050107    1.177368
     71          1           0       -2.070409    3.495471   -0.215183
     72          1           0       -3.484120    2.581412    0.321698
     73          7           0        1.003898    2.830702   -0.079399
     74          1           0        0.231749    3.396615   -0.418621
     75          6           0        2.244201    3.534578    0.207197
     76          1           0        2.987590    3.305977   -0.567485
     77          6           0        2.785068    3.117571    1.598155
     78          6           0        1.991267    5.058533    0.262521
     79          1           0        1.366102    5.265009    1.140440
     80          1           0        2.942308    5.577833    0.397019
     81          8           0        2.029390    3.016771    2.561826
     82          6           0        1.266248    5.614331   -0.945969
     83          8           0        0.222106    5.170314   -1.391883
     84          8           0        1.883203    6.684158   -1.470003
     85          7           0        4.119122    2.933400    1.643760
     86          1           0        4.727095    3.144680    0.852191
     87          6           0        4.867191    2.725177    2.872984
     88          1           0        4.575440    3.490865    3.604532
     89          6           0        6.352605    2.964646    2.491956
     90          6           0        4.559975    1.350591    3.522324
     91          1           0        3.491939    1.357387    3.765843
     92          1           0        5.091749    1.279124    4.476614
     93          8           0        6.627882    3.356196    1.353674
     94          6           0        4.900042    0.140721    2.710408
     95          6           0        5.870103   -0.816243    2.885632
     96          1           0        6.657418   -0.820821    3.628215
     97          7           0        4.183445   -0.273463    1.599481
     98          1           0        3.389386    0.206120    1.170594
     99          6           0        4.730763   -1.428797    1.159743
    100          1           0        4.360953   -1.961329    0.294643
    101          7           0        5.756987   -1.799427    1.916515
    102          7           0        7.246991    2.783663    3.480880
    103          1           0        6.992613    2.195257    4.270489
    104          6           0        8.694165    2.779849    3.264237
    105          1           0        8.866240    2.909046    2.193929
    106          6           0        9.202772    1.386191    3.705087
    107          6           0        9.409055    3.891795    4.061864
    108          1           0        9.211958    3.721426    5.129767
    109          1           0       10.491115    3.761725    3.925724
    110          8           0        8.476097    0.664209    4.416952
    111          6           0        9.014388    5.335328    3.695612
    112          1           0        7.927334    5.433831    3.835535
    113          6           0        9.702824    6.317636    4.656018
    114          1           0       10.794178    6.260866    4.558219
    115          1           0        9.402709    7.350865    4.444618
    116          1           0        9.451344    6.101136    5.701364
    117          6           0        9.339917    5.682030    2.234265
    118          1           0       10.406861    5.531525    2.024931
    119          1           0        9.107329    6.733751    2.027392
    120          1           0        8.761989    5.073461    1.530980
    121          7           0       10.421224    1.084692    3.256234
    122          1           0       11.055492    1.822620    2.885316
    123          6           0       11.315026    0.029985    3.730868
    124          1           0       11.096850   -0.199582    4.780350
    125          6           0       12.786319    0.628978    3.612576
    126          6           0       11.217766   -1.244333    2.883542
    127          1           0       12.039685   -1.898313    3.193439
    128          1           0       11.401630   -0.969579    1.834554
    129          8           0       13.689183   -0.146700    3.961639
    130          6           0        9.855652   -1.933217    3.004589
    131          1           0        9.748870   -2.392334    3.997558
    132          1           0        9.066237   -1.178446    2.938777
    133          6           0        9.588606   -2.979645    1.919842
    134          1           0        9.719461   -2.545983    0.924087
    135          1           0       10.273905   -3.834679    1.968220
    136          7           0        8.196235   -3.462440    1.980827
    137          1           0        7.465589   -2.796889    1.686952
    138          7           0        8.563572   -5.217800    3.483961
    139          1           0        8.210255   -6.058184    3.915766
    140          1           0        9.564729   -5.132288    3.395133
    141          7           0        6.400638   -4.587777    2.884468
    142          1           0        6.047613   -5.060913    3.705261
    143          1           0        5.849389   -3.785246    2.562685
    144          6           0        7.740971   -4.408348    2.789514
    145          8           0       12.824426    1.803450    3.146325
    146          1           0        1.334283    6.999825   -2.214356
 ---------------------------------------------------------------------

 SCF Done:  E(RB3LYP) =  -3503.35494931     A.U. after    3 cycles

 Alpha  occ. eigenvalues --  -19.31025 -19.28554 -19.27661 -19.23604 -19.22253
 Alpha  occ. eigenvalues --  -19.21923 -19.20542 -19.20447 -19.18924 -19.17900
 Alpha  occ. eigenvalues --  -19.16471 -19.12592 -19.03995 -19.02827 -14.62048
 Alpha  occ. eigenvalues --  -14.50463 -14.47319 -14.46987 -14.45210 -14.44985
 Alpha  occ. eigenvalues --  -14.44507 -14.44347 -14.43863 -14.43599 -14.41863
 Alpha  occ. eigenvalues --  -14.39383 -14.39352 -14.34235 -10.45129 -10.42695
 Alpha  occ. eigenvalues --  -10.42169 -10.41246 -10.40663 -10.40519 -10.37560
 Alpha  occ. eigenvalues --  -10.37041 -10.36297 -10.36213 -10.35230 -10.33495
 Alpha  occ. eigenvalues --  -10.32564 -10.32377 -10.31928 -10.30984 -10.30839
 Alpha  occ. eigenvalues --  -10.30426 -10.29829 -10.29325 -10.29160 -10.29060
 Alpha  occ. eigenvalues --  -10.28474 -10.27744 -10.27219 -10.25790 -10.25725
 Alpha  occ. eigenvalues --  -10.25622 -10.25449 -10.24893 -10.24828 -10.24733
 Alpha  occ. eigenvalues --  -10.23712 -10.23181 -10.22965 -10.21892 -10.21659
 Alpha  occ. eigenvalues --  -10.20242 -10.19842 -10.19597 -10.18811 -10.18400
 Alpha  occ. eigenvalues --  -10.18096  -1.21131  -1.18726  -1.18497  -1.15843
 Alpha  occ. eigenvalues --   -1.15302  -1.12500  -1.12148  -1.10858  -1.10785
 Alpha  occ. eigenvalues --   -1.09766  -1.09618  -1.09454  -1.08103  -1.07514
 Alpha  occ. eigenvalues --   -1.07383  -1.03647  -1.03449  -1.00711  -1.00701
 Alpha  occ. eigenvalues --   -1.00030  -0.99921  -0.99003  -0.98493  -0.97012
 Alpha  occ. eigenvalues --   -0.95950  -0.94220  -0.93247  -0.91375  -0.89863
 Alpha  occ. eigenvalues --   -0.88571  -0.88214  -0.87763  -0.86436  -0.85727
 Alpha  occ. eigenvalues --   -0.85029  -0.83260  -0.82606  -0.82257  -0.81439
 Alpha  occ. eigenvalues --   -0.80351  -0.79909  -0.78556  -0.77985  -0.77675
 Alpha  occ. eigenvalues --   -0.77199  -0.76556  -0.75764  -0.75635  -0.75224
 Alpha  occ. eigenvalues --   -0.73802  -0.72722  -0.72382  -0.72107  -0.70815
 Alpha  occ. eigenvalues --   -0.69531  -0.69241  -0.69161  -0.68844  -0.68631
 Alpha  occ. eigenvalues --   -0.68464  -0.68149  -0.67844  -0.67460  -0.67103
 Alpha  occ. eigenvalues --   -0.66585  -0.66402  -0.66209  -0.65207  -0.65028
 Alpha  occ. eigenvalues --   -0.64348  -0.64013  -0.63279  -0.63084  -0.62581
 Alpha  occ. eigenvalues --   -0.62393  -0.62311  -0.61416  -0.61006  -0.60092
 Alpha  occ. eigenvalues --   -0.59758  -0.59361  -0.59225  -0.59131  -0.58579
 Alpha  occ. eigenvalues --   -0.58414  -0.58159  -0.58026  -0.57833  -0.56718
 Alpha  occ. eigenvalues --   -0.56613  -0.56437  -0.56240  -0.55898  -0.55735
 Alpha  occ. eigenvalues --   -0.55148  -0.54737  -0.54454  -0.54211  -0.53840
 Alpha  occ. eigenvalues --   -0.53681  -0.53221  -0.53046  -0.52856  -0.52809
 Alpha  occ. eigenvalues --   -0.52256  -0.52113  -0.51556  -0.51335  -0.51039
 Alpha  occ. eigenvalues --   -0.50862  -0.50663  -0.50382  -0.50305  -0.50160
 Alpha  occ. eigenvalues --   -0.49894  -0.49534  -0.49343  -0.49179  -0.48850
 Alpha  occ. eigenvalues --   -0.48352  -0.48186  -0.48109  -0.47923  -0.47766
 Alpha  occ. eigenvalues --   -0.47390  -0.47339  -0.47161  -0.47096  -0.46783
 Alpha  occ. eigenvalues --   -0.46657  -0.46462  -0.46387  -0.46272  -0.46061
 Alpha  occ. eigenvalues --   -0.45886  -0.45719  -0.45651  -0.45402  -0.45164
 Alpha  occ. eigenvalues --   -0.45133  -0.44693  -0.44580  -0.44290  -0.44045
 Alpha  occ. eigenvalues --   -0.43987  -0.43636  -0.43022  -0.42848  -0.42600
 Alpha  occ. eigenvalues --   -0.42488  -0.42054  -0.41596  -0.41486  -0.41275
 Alpha  occ. eigenvalues --   -0.41226  -0.41172  -0.40728  -0.40635  -0.40583
 Alpha  occ. eigenvalues --   -0.39906  -0.39790  -0.39612  -0.39172  -0.39065
 Alpha  occ. eigenvalues --   -0.38917  -0.38620  -0.38330  -0.38137  -0.37929
 Alpha  occ. eigenvalues --   -0.37638  -0.37325  -0.36335  -0.36087  -0.35863
 Alpha  occ. eigenvalues --   -0.35710  -0.35426  -0.34928  -0.34754  -0.34557
 Alpha  occ. eigenvalues --   -0.34235  -0.34140  -0.33971  -0.33915  -0.33623
 Alpha  occ. eigenvalues --   -0.33531  -0.33211  -0.33102  -0.32379  -0.32309
 Alpha  occ. eigenvalues --   -0.32100  -0.31453  -0.31299  -0.30537  -0.29233
 Alpha  occ. eigenvalues --   -0.28354  -0.26554  -0.25538  -0.19046  -0.18916
 Alpha  occ. eigenvalues --   -0.17118
 Alpha virt. eigenvalues --   -0.14405  -0.12845  -0.09481  -0.08073  -0.07657
 Alpha virt. eigenvalues --   -0.07623  -0.07009  -0.06570  -0.06353  -0.04590
 Alpha virt. eigenvalues --   -0.04157  -0.03916  -0.03001  -0.02965  -0.02683

 Mulliken charges:
               1
     1  N   -0.768019
     2  H    0.441598
     3  H    0.415618
     4  H    0.422571
     5  C   -0.109135
     6  H    0.248240
     7  C    0.635576
     8  C   -0.047910
     9  H    0.172393
    10  H    0.172091
    11  O   -0.546386
    12  O   -0.599296
    13  H    0.442755
    14  N   -0.602410
    15  H    0.406441
    16  C   -0.062815
    17  H    0.200760
    18  C    0.636487
    19  C   -0.458535
    20  H    0.177907
    21  H    0.180412
    22  H    0.188940
    23  O   -0.552559
    24  N   -0.606990
    25  H    0.358764
    26  C   -0.081325
    27  H    0.179969
    28  C    0.639516
    29  C    0.110417
    30  H    0.153440
    31  O   -0.549709
    32  C   -0.450167
    33  H    0.151011
    34  H    0.141478
    35  H    0.182123
    36  O   -0.649493
    37  H    0.424224
    38  N   -0.614211
    39  H    0.369429
    40  C   -0.043518
    41  H    0.166818
    42  C    0.624460
    43  C   -0.071699
    44  H    0.140464
    45  O   -0.552101
    46  C   -0.461811
    47  H    0.144456
    48  H    0.158819
    49  H    0.158446
    50  C   -0.450216
    51  H    0.163220
    52  H    0.135415
    53  H    0.147808
    54  N   -0.613222
    55  H    0.348377
    56  C   -0.064335
    57  H    0.180983
    58  C    0.659383
    59  C   -0.073344
    60  H    0.148852
    61  O   -0.581979
    62  C   -0.277085
    63  H    0.165108
    64  H    0.144129
    65  C   -0.471142
    66  H    0.178529
    67  H    0.134638
    68  H    0.150481
    69  C   -0.467084
    70  H    0.155887
    71  H    0.146943
    72  H    0.150702
    73  N   -0.628044
    74  H    0.389251
    75  C   -0.028042
    76  H    0.172275
    77  C    0.623896
    78  C   -0.400140
    79  H    0.220569
    80  H    0.206019
    81  O   -0.533858
    82  C    0.596095
    83  O   -0.476154
    84  O   -0.540983
    85  N   -0.627471
    86  H    0.364394
    87  C   -0.034999
    88  H    0.189671
    89  C    0.614799
    90  C   -0.393458
    91  H    0.199342
    92  H    0.177899
    93  O   -0.542354
    94  C    0.326836
    95  C   -0.084022
    96  H    0.201397
    97  N   -0.625529
    98  H    0.409417
    99  C    0.214899
   100  H    0.163069
   101  N   -0.529751
   102  N   -0.592314
   103  H    0.346256
   104  C   -0.092894
   105  H    0.189302
   106  C    0.612845
   107  C   -0.267210
   108  H    0.133689
   109  H    0.182220
   110  O   -0.597349
   111  C   -0.063502
   112  H    0.114262
   113  C   -0.444352
   114  H    0.155824
   115  H    0.136176
   116  H    0.137431
   117  C   -0.465888
   118  H    0.153232
   119  H    0.133861
   120  H    0.162259
   121  N   -0.598671
   122  H    0.363482
   123  C   -0.080927
   124  H    0.141666
   125  C    0.585479
   126  C   -0.256572
   127  H    0.165266
   128  H    0.130099
   129  O   -0.586759
   130  C   -0.271351
   131  H    0.131835
   132  H    0.179108
   133  C   -0.188950
   134  H    0.186366
   135  H    0.152520
   136  N   -0.591922
   137  H    0.399881
   138  N   -0.756780
   139  H    0.368911
   140  H    0.386514
   141  N   -0.770972
   142  H    0.350792
   143  H    0.391626
   144  C    0.774574
   145  O   -0.616691
   146  H    0.423021
 Sum of Mulliken charges =   1.00000

 Dipole moment (field-independent basis, Debye):
    X=            -51.1527    Y=            -24.0040    Z=            -30.8595  Tot=             64.3824
 Quadrupole moment (field-independent basis, Debye-Ang):
   XX=           -448.8949   YY=           -277.5634   ZZ=           -216.3073
   XY=              6.0980   XZ=            166.1160   YZ=             44.9767

 Normal termination of Gaussian 16 at Sun Jun 19 12:01:28 2022.
