 Gaussian 16, Revision C.01,
 Gaussian 16:  ES64L-G16RevC.01  3-Jul-2019

 -------------------------------------------------------------------
 # B3LYP/6-31G* guess=read geom=check nosymm integral(ultrafinegrid)
 -------------------------------------------------------------------

 ------------------------------------------------------
 Candidate Structure: Conf:472 Charge calc in gas phase
 ------------------------------------------------------
 Structure from the checkpoint file:  "conf-472.chk"
 Charge =  1 Multiplicity = 1

                          Input orientation:
 ---------------------------------------------------------------------
 Center     Atomic      Atomic             Coordinates (Angstroms)
 Number     Number       Type             X           Y           Z
 ---------------------------------------------------------------------
      1          7           0       -7.865954   -1.816526   -9.752312
      2          1           0       -8.175412   -2.157323  -10.667136
      3          1           0       -8.542384   -2.156676   -9.003258
      4          1           0       -7.843576   -0.791845   -9.779861
      5          6           0       -6.563765   -2.429875   -9.290424
      6          1           0       -6.082137   -2.930547  -10.132502
      7          6           0       -7.008771   -3.411356   -8.185660
      8          6           0       -5.611786   -1.339032   -8.709203
      9          1           0       -6.155412   -0.774077   -7.937238
     10          1           0       -5.339432   -0.651673   -9.520067
     11          8           0       -8.171106   -3.323170   -7.769946
     12          8           0       -4.450030   -1.931614   -8.214108
     13          1           0       -4.602967   -2.128216   -7.256162
     14          7           0       -6.071642   -4.256917   -7.738876
     15          1           0       -5.129931   -4.077048   -8.078088
     16          6           0       -6.157459   -4.841355   -6.399459
     17          1           0       -7.193788   -5.157590   -6.249249
     18          6           0       -5.804715   -3.735661   -5.368423
     19          6           0       -5.207225   -6.040650   -6.288475
     20          1           0       -5.301040   -6.514319   -5.308528
     21          1           0       -4.163836   -5.725748   -6.398704
     22          1           0       -5.442369   -6.782915   -7.056544
     23          8           0       -5.348238   -2.638156   -5.725059
     24          7           0       -6.002267   -4.063175   -4.088770
     25          1           0       -6.505237   -4.905426   -3.832070
     26          6           0       -5.573350   -3.235483   -2.969179
     27          1           0       -6.176115   -2.319038   -2.939157
     28          6           0       -4.066365   -2.902660   -3.122773
     29          6           0       -5.788018   -4.046866   -1.667071
     30          1           0       -4.976101   -4.786818   -1.606881
     31          8           0       -3.286491   -3.732613   -3.574158
     32          6           0       -5.798127   -3.168156   -0.419719
     33          1           0       -4.869211   -2.600735   -0.306003
     34          1           0       -6.636817   -2.464688   -0.459454
     35          1           0       -5.917021   -3.787852    0.476509
     36          8           0       -7.040621   -4.726153   -1.833536
     37          1           0       -7.173031   -5.304216   -1.065973
     38          7           0       -3.715167   -1.669787   -2.688148
     39          1           0       -4.386479   -1.080908   -2.205925
     40          6           0       -2.330870   -1.237550   -2.525674
     41          1           0       -1.699050   -2.124318   -2.640788
     42          6           0       -2.248931   -0.676546   -1.091303
     43          6           0       -1.927300   -0.176975   -3.593853
     44          1           0       -2.558517    0.705580   -3.414720
     45          8           0       -3.230389   -0.122789   -0.591288
     46          6           0       -0.454821    0.242662   -3.463157
     47          1           0        0.213660   -0.617332   -3.602898
     48          1           0       -0.222032    0.696035   -2.495685
     49          1           0       -0.204400    0.975561   -4.237445
     50          6           0       -2.208467   -0.697970   -5.010958
     51          1           0       -1.607481   -1.589481   -5.226534
     52          1           0       -3.260913   -0.962910   -5.143669
     53          1           0       -1.950120    0.068995   -5.749915
     54          7           0       -1.074946   -0.854152   -0.440648
     55          1           0       -0.268778   -1.210337   -0.941694
     56          6           0       -0.774850   -0.246370    0.854373
     57          1           0       -1.603719    0.430572    1.083085
     58          6           0        0.533052    0.532867    0.653256
     59          6           0       -0.640805   -1.302610    1.993686
     60          1           0        0.206784   -1.950648    1.725055
     61          8           0        1.434698    0.060993   -0.048030
     62          6           0       -1.910640   -2.174535    2.073482
     63          1           0       -2.143040   -2.550823    1.070465
     64          1           0       -2.760251   -1.543855    2.371422
     65          6           0       -0.322173   -0.621188    3.334624
     66          1           0       -1.130541    0.066269    3.623240
     67          1           0        0.620149   -0.066229    3.309034
     68          1           0       -0.233082   -1.365000    4.131283
     69          6           0       -1.791510   -3.370486    3.026119
     70          1           0       -2.691579   -3.993555    2.974658
     71          1           0       -0.934849   -4.003168    2.763434
     72          1           0       -1.669960   -3.061951    4.069330
     73          7           0        0.627246    1.753704    1.232966
     74          1           0       -0.050270    2.008116    1.939505
     75          6           0        1.881842    2.486798    1.174832
     76          1           0        2.165521    2.568621    0.122194
     77          6           0        2.988338    1.717662    1.940883
     78          6           0        1.721381    3.917423    1.737098
     79          1           0        0.937755    4.437025    1.177070
     80          1           0        1.467416    3.893562    2.800591
     81          8           0        2.738031    1.056164    2.939604
     82          6           0        3.055271    4.614472    1.509698
     83          8           0        3.497796    4.826231    0.398444
     84          8           0        3.726502    4.822913    2.648224
     85          7           0        4.229939    1.834937    1.388759
     86          1           0        4.381591    2.558023    0.691964
     87          6           0        5.426597    1.319069    2.031445
     88          1           0        5.091452    0.742735    2.898226
     89          6           0        6.308132    2.497366    2.504334
     90          6           0        6.198186    0.388135    1.054905
     91          1           0        7.186400    0.168220    1.473271
     92          1           0        6.379157    0.952801    0.128185
     93          8           0        6.151679    3.644819    2.072930
     94          6           0        5.522293   -0.919500    0.781606
     95          6           0        5.983957   -2.209434    0.927121
     96          1           0        6.959465   -2.520604    1.279950
     97          7           0        4.238233   -1.066708    0.284606
     98          1           0        3.548640   -0.342464    0.115607
     99          6           0        4.000273   -2.404969    0.175101
    100          1           0        3.052418   -2.786975   -0.179656
    101          7           0        5.034633   -3.129754    0.546898
    102          7           0        7.271224    2.167829    3.386611
    103          1           0        7.383713    1.216402    3.719591
    104          6           0        8.250384    3.118828    3.906497
    105          1           0        8.480564    3.829580    3.109302
    106          6           0        9.496198    2.307481    4.271052
    107          6           0        7.692139    3.879093    5.139680
    108          1           0        6.693338    4.238309    4.860101
    109          1           0        7.547024    3.145521    5.945204
    110          8           0        9.348326    1.107744    4.657970
    111          6           0        8.528326    5.070314    5.655123
    112          1           0        9.558656    4.743966    5.846397
    113          6           0        8.593854    6.219644    4.637154
    114          1           0        7.589717    6.597749    4.403182
    115          1           0        9.185835    7.048421    5.038254
    116          1           0        9.067628    5.921646    3.695223
    117          6           0        7.941356    5.565935    6.986093
    118          1           0        6.909709    5.919655    6.857698
    119          1           0        8.532633    6.397406    7.384441
    120          1           0        7.929994    4.771215    7.742368
    121          7           0       10.661611    2.921300    4.189974
    122          1           0       10.757541    3.951206    4.084388
    123          6           0       11.899988    2.444615    4.796153
    124          1           0       11.644347    1.889648    5.701033
    125          6           0       12.690117    3.733216    5.263229
    126          6           0       12.747581    1.565095    3.847771
    127          1           0       13.412539    2.213360    3.268570
    128          1           0       12.098021    1.058464    3.117937
    129          8           0       13.750473    3.487141    5.862183
    130          6           0       13.591099    0.528036    4.612196
    131          1           0       14.488347    0.266564    4.037347
    132          1           0       13.935241    0.992005    5.542967
    133          6           0       12.839514   -0.788820    4.865559
    134          1           0       12.652412   -1.303400    3.917285
    135          1           0       13.432228   -1.484286    5.469813
    136          7           0       11.512790   -0.611791    5.483915
    137          1           0       10.805467   -0.135532    4.907568
    138          7           0       12.067947   -1.073757    7.720881
    139          1           0       12.012603   -0.710516    8.662212
    140          1           0       12.985407   -1.386604    7.439730
    141          7           0       10.089600    0.013731    7.172392
    142          1           0        9.737593   -0.103756    8.110079
    143          1           0        9.525245    0.490794    6.463678
    144          6           0       11.243258   -0.548087    6.784090
    145          8           0       12.125642    4.819744    4.959572
    146          1           0        4.679783    4.909237    2.413372
 ---------------------------------------------------------------------

 SCF Done:  E(RB3LYP) =  -3503.35395731     A.U. after    3 cycles

 Alpha  occ. eigenvalues --  -19.27801 -19.26478 -19.24315 -19.23509 -19.23497
 Alpha  occ. eigenvalues --  -19.19666 -19.18911 -19.18836 -19.18535 -19.18179
 Alpha  occ. eigenvalues --  -19.17643 -19.17431 -19.07569 -19.06488 -14.61128
 Alpha  occ. eigenvalues --  -14.49978 -14.46437 -14.46356 -14.45044 -14.44787
 Alpha  occ. eigenvalues --  -14.43878 -14.43419 -14.43250 -14.41825 -14.41456
 Alpha  occ. eigenvalues --  -14.41153 -14.39447 -14.33657 -10.44196 -10.41909
 Alpha  occ. eigenvalues --  -10.40842 -10.40055 -10.38458 -10.37120 -10.36566
 Alpha  occ. eigenvalues --  -10.36356 -10.35973 -10.35585 -10.34783 -10.34534
 Alpha  occ. eigenvalues --  -10.34052 -10.33571 -10.32566 -10.30648 -10.30256
 Alpha  occ. eigenvalues --  -10.30002 -10.29802 -10.29117 -10.28994 -10.28088
 Alpha  occ. eigenvalues --  -10.26786 -10.26376 -10.26359 -10.25994 -10.25478
 Alpha  occ. eigenvalues --  -10.25427 -10.25365 -10.24936 -10.23835 -10.23615
 Alpha  occ. eigenvalues --  -10.23509 -10.23407 -10.22901 -10.22656 -10.22651
 Alpha  occ. eigenvalues --  -10.22437 -10.22365 -10.21892 -10.21589 -10.20001
 Alpha  occ. eigenvalues --  -10.19477  -1.20238  -1.15285  -1.15063  -1.14890
 Alpha  occ. eigenvalues --   -1.14031  -1.11785  -1.11649  -1.11060  -1.10568
 Alpha  occ. eigenvalues --   -1.10310  -1.09648  -1.09039  -1.08277  -1.06892
 Alpha  occ. eigenvalues --   -1.06047  -1.03639  -1.02839  -1.00699  -1.00119
 Alpha  occ. eigenvalues --   -0.99980  -0.99749  -0.99550  -0.98659  -0.98428
 Alpha  occ. eigenvalues --   -0.97814  -0.96016  -0.92373  -0.91944  -0.89341
 Alpha  occ. eigenvalues --   -0.89112  -0.87862  -0.86927  -0.86006  -0.85791
 Alpha  occ. eigenvalues --   -0.84849  -0.84141  -0.83341  -0.80786  -0.80525
 Alpha  occ. eigenvalues --   -0.80011  -0.79847  -0.78083  -0.77931  -0.76801
 Alpha  occ. eigenvalues --   -0.76115  -0.75644  -0.74978  -0.74628  -0.73781
 Alpha  occ. eigenvalues --   -0.73439  -0.73164  -0.72421  -0.70941  -0.70822
 Alpha  occ. eigenvalues --   -0.70605  -0.70522  -0.69539  -0.69309  -0.68722
 Alpha  occ. eigenvalues --   -0.67493  -0.67233  -0.66544  -0.66233  -0.65901
 Alpha  occ. eigenvalues --   -0.65610  -0.65522  -0.64760  -0.64437  -0.64220
 Alpha  occ. eigenvalues --   -0.63734  -0.63439  -0.63147  -0.62726  -0.62331
 Alpha  occ. eigenvalues --   -0.62075  -0.61914  -0.61809  -0.61302  -0.61026
 Alpha  occ. eigenvalues --   -0.60115  -0.59626  -0.59001  -0.58861  -0.58553
 Alpha  occ. eigenvalues --   -0.58519  -0.57576  -0.57251  -0.56833  -0.56394
 Alpha  occ. eigenvalues --   -0.56322  -0.56067  -0.55294  -0.55158  -0.55056
 Alpha  occ. eigenvalues --   -0.54615  -0.53964  -0.53680  -0.53580  -0.53524
 Alpha  occ. eigenvalues --   -0.53218  -0.53110  -0.52688  -0.52408  -0.52271
 Alpha  occ. eigenvalues --   -0.51829  -0.51579  -0.51375  -0.51156  -0.51023
 Alpha  occ. eigenvalues --   -0.50857  -0.50233  -0.50074  -0.49877  -0.49741
 Alpha  occ. eigenvalues --   -0.49552  -0.49253  -0.49166  -0.49108  -0.48484
 Alpha  occ. eigenvalues --   -0.48262  -0.48213  -0.48044  -0.47713  -0.47356
 Alpha  occ. eigenvalues --   -0.47208  -0.47041  -0.46908  -0.46770  -0.46626
 Alpha  occ. eigenvalues --   -0.46357  -0.46141  -0.45900  -0.45780  -0.45629
 Alpha  occ. eigenvalues --   -0.45547  -0.45462  -0.45249  -0.45012  -0.44773
 Alpha  occ. eigenvalues --   -0.44736  -0.44259  -0.44051  -0.43745  -0.43515
 Alpha  occ. eigenvalues --   -0.43414  -0.43189  -0.42931  -0.42855  -0.42524
 Alpha  occ. eigenvalues --   -0.42405  -0.42181  -0.42159  -0.41872  -0.41461
 Alpha  occ. eigenvalues --   -0.41340  -0.41248  -0.40957  -0.40841  -0.40792
 Alpha  occ. eigenvalues --   -0.40508  -0.40194  -0.39719  -0.39658  -0.39397
 Alpha  occ. eigenvalues --   -0.39139  -0.38911  -0.38865  -0.38187  -0.37815
 Alpha  occ. eigenvalues --   -0.37727  -0.37294  -0.37035  -0.36759  -0.36698
 Alpha  occ. eigenvalues --   -0.36494  -0.36320  -0.36088  -0.35506  -0.35261
 Alpha  occ. eigenvalues --   -0.34785  -0.34582  -0.33942  -0.33829  -0.33543
 Alpha  occ. eigenvalues --   -0.32998  -0.32864  -0.32456  -0.32084  -0.31855
 Alpha  occ. eigenvalues --   -0.31736  -0.31247  -0.30715  -0.30593  -0.30338
 Alpha  occ. eigenvalues --   -0.30175  -0.29244  -0.25081  -0.22607  -0.22386
 Alpha  occ. eigenvalues --   -0.20748
 Alpha virt. eigenvalues --   -0.13299  -0.12129  -0.08962  -0.07027  -0.06476
 Alpha virt. eigenvalues --   -0.06117  -0.05811  -0.05012  -0.04361  -0.04208
 Alpha virt. eigenvalues --   -0.04069  -0.03597  -0.03022  -0.02399  -0.02339

 Mulliken charges:
               1
     1  N   -0.760892
     2  H    0.421660
     3  H    0.434948
     4  H    0.416934
     5  C   -0.134588
     6  H    0.226794
     7  C    0.640759
     8  C   -0.039605
     9  H    0.170610
    10  H    0.177764
    11  O   -0.529612
    12  O   -0.629303
    13  H    0.462872
    14  N   -0.567596
    15  H    0.361247
    16  C   -0.104244
    17  H    0.207291
    18  C    0.682857
    19  C   -0.461195
    20  H    0.184263
    21  H    0.187755
    22  H    0.182977
    23  O   -0.575760
    24  N   -0.607479
    25  H    0.365593
    26  C   -0.022419
    27  H    0.167512
    28  C    0.630735
    29  C    0.105543
    30  H    0.158603
    31  O   -0.536041
    32  C   -0.485727
    33  H    0.181698
    34  H    0.169236
    35  H    0.158532
    36  O   -0.645163
    37  H    0.412392
    38  N   -0.606074
    39  H    0.350157
    40  C   -0.062489
    41  H    0.176865
    42  C    0.623268
    43  C   -0.071074
    44  H    0.137965
    45  O   -0.547716
    46  C   -0.470801
    47  H    0.149012
    48  H    0.160860
    49  H    0.159322
    50  C   -0.459140
    51  H    0.155613
    52  H    0.159809
    53  H    0.145127
    54  N   -0.603208
    55  H    0.352725
    56  C   -0.069642
    57  H    0.176975
    58  C    0.653722
    59  C   -0.070470
    60  H    0.141786
    61  O   -0.564607
    62  C   -0.253323
    63  H    0.134890
    64  H    0.139411
    65  C   -0.507069
    66  H    0.130233
    67  H    0.202807
    68  H    0.164689
    69  C   -0.450705
    70  H    0.141262
    71  H    0.150809
    72  H    0.155800
    73  N   -0.599672
    74  H    0.347083
    75  C   -0.052699
    76  H    0.195541
    77  C    0.609791
    78  C   -0.354614
    79  H    0.189344
    80  H    0.185724
    81  O   -0.512879
    82  C    0.564536
    83  O   -0.464663
    84  O   -0.564852
    85  N   -0.601729
    86  H    0.359981
    87  C   -0.084631
    88  H    0.199210
    89  C    0.642048
    90  C   -0.358891
    91  H    0.163840
    92  H    0.166543
    93  O   -0.565668
    94  C    0.336358
    95  C   -0.086752
    96  H    0.121652
    97  N   -0.619185
    98  H    0.372834
    99  C    0.202676
   100  H    0.140398
   101  N   -0.428647
   102  N   -0.608439
   103  H    0.349114
   104  C   -0.046375
   105  H    0.189837
   106  C    0.613789
   107  C   -0.252429
   108  H    0.153172
   109  H    0.122536
   110  O   -0.639244
   111  C   -0.098815
   112  H    0.163756
   113  C   -0.443743
   114  H    0.132654
   115  H    0.167049
   116  H    0.146923
   117  C   -0.443414
   118  H    0.137158
   119  H    0.158909
   120  H    0.129079
   121  N   -0.574279
   122  H    0.378685
   123  C   -0.088772
   124  H    0.123143
   125  C    0.588415
   126  C   -0.270673
   127  H    0.178194
   128  H    0.121885
   129  O   -0.578532
   130  C   -0.266881
   131  H    0.152896
   132  H    0.190937
   133  C   -0.183681
   134  H    0.182167
   135  H    0.149191
   136  N   -0.593859
   137  H    0.404217
   138  N   -0.755772
   139  H    0.370235
   140  H    0.376382
   141  N   -0.779448
   142  H    0.359717
   143  H    0.413210
   144  C    0.782223
   145  O   -0.600433
   146  H    0.450903
 Sum of Mulliken charges =   1.00000

 Dipole moment (field-independent basis, Debye):
    X=            -29.8286    Y=            -19.3604    Z=            -25.6266  Tot=             43.8326
 Quadrupole moment (field-independent basis, Debye-Ang):
   XX=           -207.7827   YY=           -425.8742   ZZ=              4.5462
   XY=            -53.3416   XZ=            323.6279   YZ=             17.5371

 Normal termination of Gaussian 16 at Sun Jun 19 12:05:24 2022.
