 Gaussian 16, Revision C.01,
 Gaussian 16:  ES64L-G16RevC.01  3-Jul-2019

 -------------------------------------------------------------------
 # B3LYP/6-31G* guess=read geom=check nosymm integral(ultrafinegrid)
 -------------------------------------------------------------------

 ------------------------------------------------------
 Candidate Structure: Conf:684 Charge calc in gas phase
 ------------------------------------------------------
 Structure from the checkpoint file:  "conf-684.chk"
 Charge =  1 Multiplicity = 1

                          Input orientation:
 ---------------------------------------------------------------------
 Center     Atomic      Atomic             Coordinates (Angstroms)
 Number     Number       Type             X           Y           Z
 ---------------------------------------------------------------------
      1          7           0       -8.432327    0.576592    6.147097
      2          1           0       -8.309082    0.146115    7.067981
      3          1           0       -7.917069    1.508338    6.136205
      4          1           0       -9.433839    0.690378    5.972482
      5          6           0       -7.716169   -0.175008    5.037356
      6          1           0       -7.542330   -1.199841    5.376660
      7          6           0       -6.387880    0.633328    4.934004
      8          6           0       -8.575841   -0.172392    3.745260
      9          1           0       -8.713904    0.878265    3.451058
     10          8           0       -6.396787    1.789050    5.393183
     11          6           0       -7.857618   -0.906615    2.599385
     12          1           0       -7.661756   -1.954377    2.858949
     13          1           0       -6.911070   -0.440750    2.318016
     14          1           0       -8.499115   -0.905591    1.713538
     15          6           0       -9.955880   -0.813767    3.984758
     16          1           0       -9.858683   -1.853357    4.319233
     17          1           0      -10.583928   -0.281008    4.712411
     18          1           0      -10.523051   -0.818519    3.049640
     19          7           0       -5.348648    0.029214    4.379822
     20          1           0       -5.409486   -0.893737    3.937230
     21          6           0       -4.063593    0.669402    4.087974
     22          1           0       -4.255436    1.669090    3.682253
     23          6           0       -3.444860   -0.231941    2.988396
     24          6           0       -3.178416    0.782666    5.338407
     25          1           0       -2.227424    1.266242    5.095778
     26          1           0       -3.681371    1.387699    6.097728
     27          1           0       -2.963771   -0.207600    5.752320
     28          8           0       -4.013570   -1.285664    2.675426
     29          7           0       -2.303927    0.207087    2.447119
     30          1           0       -1.826424    1.044535    2.779206
     31          6           0       -1.511872   -0.545308    1.486323
     32          1           0       -1.529177   -1.608377    1.747001
     33          6           0       -0.090171    0.025053    1.573001
     34          6           0       -2.063912   -0.395072    0.034322
     35          1           0       -3.082041   -0.797113    0.029062
     36          1           0       -2.110696    0.675155   -0.211440
     37          8           0        0.123927    1.097768    2.140224
     38          8           0       -1.297260   -1.119300   -0.898133
     39          1           0       -0.577198   -0.525493   -1.218754
     40          7           0        0.853806   -0.725197    0.953806
     41          1           0        0.479658   -1.457009    0.355416
     42          6           0        2.110401   -0.132409    0.505449
     43          1           0        2.486505    0.484764    1.324774
     44          6           0        1.826531    0.768773   -0.722640
     45          6           0        3.103909   -1.272752    0.178201
     46          1           0        2.739563   -1.794042   -0.718758
     47          1           0        3.040423   -1.992586    1.005574
     48          8           0        0.813639    0.609025   -1.425745
     49          6           0        4.584699   -0.889241   -0.025292
     50          1           0        4.657732   -0.146055   -0.828899
     51          6           0        5.211819   -0.283694    1.240232
     52          1           0        5.162154   -0.989891    2.079605
     53          1           0        4.718663    0.643303    1.555759
     54          1           0        6.265421   -0.040984    1.066772
     55          6           0        5.372897   -2.130003   -0.473856
     56          1           0        5.344890   -2.915254    0.292956
     57          1           0        4.964888   -2.551097   -1.400184
     58          1           0        6.423504   -1.878504   -0.655111
     59          7           0        2.752561    1.698290   -0.983832
     60          1           0        3.605484    1.788044   -0.432047
     61          6           0        2.821091    2.496846   -2.204459
     62          1           0        2.413586    1.914862   -3.035910
     63          6           0        4.327356    2.799177   -2.431927
     64          6           0        2.002647    3.805238   -2.027453
     65          1           0        2.541078    4.457234   -1.326266
     66          1           0        1.068665    3.520995   -1.529767
     67          8           0        4.634741    3.139282   -3.626503
     68          6           0        1.606084    4.586580   -3.294451
     69          1           0        1.086692    3.913828   -3.989555
     70          1           0        0.859371    5.339355   -2.999066
     71          6           0        2.708101    5.281610   -4.108106
     72          1           0        2.250945    5.805347   -4.957549
     73          1           0        3.408764    4.538473   -4.481247
     74          7           0        3.459674    6.274112   -3.318649
     75          1           0        2.909780    6.949497   -2.803124
     76          7           0        5.643184    5.484819   -3.611236
     77          1           0        6.630093    5.699773   -3.561986
     78          1           0        5.350593    4.426709   -3.646461
     79          7           0        5.237663    7.576693   -2.649276
     80          1           0        4.714908    8.428815   -2.794459
     81          1           0        6.228103    7.693879   -2.492877
     82          6           0        4.793453    6.414542   -3.214700
     83          8           0        5.074607    2.753618   -1.441390
 ---------------------------------------------------------------------

 SCF Done:  E(RB3LYP) =  -1868.01890580     A.U. after    1 cycles

 Alpha  occ. eigenvalues --  -19.26601 -19.21467 -19.18821 -19.18712 -19.17078
 Alpha  occ. eigenvalues --  -19.13360 -19.12836 -14.59786 -14.49026 -14.45913
 Alpha  occ. eigenvalues --  -14.45577 -14.44751 -14.42413 -14.41683 -14.39984
 Alpha  occ. eigenvalues --  -10.43359 -10.41207 -10.40571 -10.38484 -10.35318
 Alpha  occ. eigenvalues --  -10.34610 -10.34484 -10.33702 -10.31362 -10.30947
 Alpha  occ. eigenvalues --  -10.30057 -10.29738 -10.29369 -10.28632 -10.28401
 Alpha  occ. eigenvalues --  -10.28124 -10.26083 -10.24977 -10.23869 -10.23747
 Alpha  occ. eigenvalues --  -10.23208 -10.21360 -10.21126  -1.19055  -1.13816
 Alpha  occ. eigenvalues --   -1.13198  -1.10539  -1.09595  -1.08365  -1.06582
 Alpha  occ. eigenvalues --   -1.06359  -1.05663  -1.01221  -0.99271  -0.98656
 Alpha  occ. eigenvalues --   -0.98506  -0.96777  -0.96196  -0.95148  -0.89032
 Alpha  occ. eigenvalues --   -0.86068  -0.85360  -0.84887  -0.82592  -0.81421
 Alpha  occ. eigenvalues --   -0.80206  -0.78234  -0.76919  -0.74839  -0.73692
 Alpha  occ. eigenvalues --   -0.73586  -0.72316  -0.72145  -0.70877  -0.70391
 Alpha  occ. eigenvalues --   -0.70164  -0.69137  -0.67298  -0.66691  -0.66089
 Alpha  occ. eigenvalues --   -0.65337  -0.64203  -0.63569  -0.63127  -0.62391
 Alpha  occ. eigenvalues --   -0.60959  -0.60663  -0.59507  -0.59134  -0.58445
 Alpha  occ. eigenvalues --   -0.58030  -0.57757  -0.57179  -0.56858  -0.55044
 Alpha  occ. eigenvalues --   -0.54822  -0.54385  -0.54157  -0.53511  -0.53128
 Alpha  occ. eigenvalues --   -0.52599  -0.52517  -0.52109  -0.51995  -0.51039
 Alpha  occ. eigenvalues --   -0.50880  -0.50532  -0.50006  -0.49667  -0.49166
 Alpha  occ. eigenvalues --   -0.48759  -0.48438  -0.48127  -0.48000  -0.47595
 Alpha  occ. eigenvalues --   -0.47411  -0.47162  -0.47044  -0.46972  -0.46542
 Alpha  occ. eigenvalues --   -0.45858  -0.45666  -0.45208  -0.44519  -0.44158
 Alpha  occ. eigenvalues --   -0.42818  -0.42487  -0.42148  -0.41866  -0.41580
 Alpha  occ. eigenvalues --   -0.41159  -0.40904  -0.40331  -0.39252  -0.39038
 Alpha  occ. eigenvalues --   -0.38228  -0.38040  -0.37270  -0.36807  -0.36642
 Alpha  occ. eigenvalues --   -0.36379  -0.35959  -0.35522  -0.33630  -0.33048
 Alpha  occ. eigenvalues --   -0.32441  -0.31570  -0.30826  -0.30296  -0.28792
 Alpha  occ. eigenvalues --   -0.27692  -0.26981
 Alpha virt. eigenvalues --   -0.12395  -0.10969  -0.07065  -0.06452  -0.05871
 Alpha virt. eigenvalues --   -0.04663  -0.04184  -0.02949  -0.02690  -0.01666
 Alpha virt. eigenvalues --   -0.00932   0.00463   0.00702   0.00999   0.01560

 Mulliken charges:
               1
     1  N   -0.760084
     2  H    0.415437
     3  H    0.432596
     4  H    0.408273
     5  C   -0.101760
     6  H    0.206084
     7  C    0.646876
     8  C   -0.109656
     9  H    0.170358
    10  O   -0.547410
    11  C   -0.474688
    12  H    0.170670
    13  H    0.185897
    14  H    0.188601
    15  C   -0.475807
    16  H    0.177576
    17  H    0.139602
    18  H    0.203227
    19  N   -0.604546
    20  H    0.381538
    21  C   -0.060467
    22  H    0.197565
    23  C    0.632015
    24  C   -0.456203
    25  H    0.184166
    26  H    0.182962
    27  H    0.172291
    28  O   -0.549864
    29  N   -0.623099
    30  H    0.363740
    31  C   -0.071547
    32  H    0.189219
    33  C    0.607490
    34  C   -0.030819
    35  H    0.162875
    36  H    0.140651
    37  O   -0.544160
    38  O   -0.650770
    39  H    0.445181
    40  N   -0.596942
    41  H    0.345416
    42  C   -0.080239
    43  H    0.185585
    44  C    0.644605
    45  C   -0.275856
    46  H    0.146023
    47  H    0.151598
    48  O   -0.582514
    49  C   -0.093618
    50  H    0.154755
    51  C   -0.449127
    52  H    0.139290
    53  H    0.140627
    54  H    0.161447
    55  C   -0.445543
    56  H    0.139609
    57  H    0.146298
    58  H    0.154370
    59  N   -0.601201
    60  H    0.365747
    61  C   -0.039270
    62  H    0.167338
    63  C    0.592644
    64  C   -0.261533
    65  H    0.136455
    66  H    0.161620
    67  O   -0.630507
    68  C   -0.286495
    69  H    0.165326
    70  H    0.128942
    71  C   -0.159915
    72  H    0.157033
    73  H    0.235339
    74  N   -0.600890
    75  H    0.339956
    76  N   -0.763044
    77  H    0.342570
    78  H    0.449329
    79  N   -0.763800
    80  H    0.356578
    81  H    0.361380
    82  C    0.774596
    83  O   -0.557994
 Sum of Mulliken charges =   1.00000

 Dipole moment (field-independent basis, Debye):
    X=            -24.9614    Y=             13.7932    Z=             17.5947  Tot=             33.5097
 Quadrupole moment (field-independent basis, Debye-Ang):
   XX=             80.0342   YY=           -104.3205   ZZ=            -92.3529
   XY=             60.3160   XZ=           -194.0513   YZ=            -49.2215

 Normal termination of Gaussian 16 at Thu Jun 30 14:28:40 2022.
