 Gaussian 16, Revision C.01,
 Gaussian 16:  ES64L-G16RevC.01  3-Jul-2019

 -------------------------------------------------------------------
 # B3LYP/6-31G* guess=read geom=check nosymm integral(ultrafinegrid)
 -------------------------------------------------------------------

 ------------------------------------------------------
 Candidate Structure: Conf:315 Charge calc in gas phase
 ------------------------------------------------------
 Structure from the checkpoint file:  "conf-315.chk"
 Charge =  1 Multiplicity = 1

                          Input orientation:
 ---------------------------------------------------------------------
 Center     Atomic      Atomic             Coordinates (Angstroms)
 Number     Number       Type             X           Y           Z
 ---------------------------------------------------------------------
      1          7           0       -5.971051    2.587090    3.274652
      2          1           0       -6.689106    3.295298    3.108936
      3          1           0       -5.097490    3.022784    3.607558
      4          1           0       -5.704884    2.100099    2.360039
      5          6           0       -6.368827    1.587576    4.342062
      6          1           0       -6.580889    2.182473    5.238452
      7          6           0       -5.021100    0.847498    4.569731
      8          6           0       -7.620998    0.770970    3.957973
      9          1           0       -7.313993   -0.024173    3.263990
     10          8           0       -3.995132    1.533386    4.505807
     11          6           0       -8.236869    0.138713    5.222710
     12          1           0       -8.664768    0.914993    5.867880
     13          1           0       -7.518119   -0.422426    5.829039
     14          1           0       -9.044164   -0.545037    4.945189
     15          6           0       -8.682260    1.626632    3.241610
     16          1           0       -8.974799    2.496314    3.844693
     17          1           0       -8.353982    1.971023    2.254168
     18          1           0       -9.585536    1.031379    3.079812
     19          7           0       -5.020550   -0.483173    4.756783
     20          1           0       -5.889655   -0.995531    4.678233
     21          6           0       -3.783571   -1.282850    4.591397
     22          1           0       -2.962702   -0.659201    4.951222
     23          6           0       -3.671538   -1.515278    3.062796
     24          6           0       -3.868910   -2.587060    5.370214
     25          1           0       -2.930028   -3.138305    5.268482
     26          1           0       -4.043131   -2.390238    6.431865
     27          1           0       -4.664560   -3.225643    4.975433
     28          8           0       -4.120233   -2.520057    2.529118
     29          7           0       -3.147137   -0.461623    2.368329
     30          1           0       -2.929722    0.392386    2.871310
     31          6           0       -3.315806   -0.370757    0.918477
     32          1           0       -3.195572   -1.378228    0.511662
     33          6           0       -2.251454    0.596094    0.376548
     34          6           0       -4.725501    0.136899    0.541615
     35          1           0       -4.844456    0.124625   -0.549654
     36          1           0       -5.478295   -0.525961    0.975678
     37          8           0       -2.425238    1.825112    0.527988
     38          8           0       -4.961010    1.465842    1.034650
     39          1           0       -4.105044    1.941510    0.840661
     40          7           0       -1.185299    0.051658   -0.204495
     41          1           0       -1.155936   -0.945669   -0.423845
     42          6           0       -0.098802    0.778102   -0.860314
     43          1           0       -0.488591    1.732593   -1.225362
     44          6           0        0.318103   -0.131318   -2.043202
     45          6           0        1.115863    1.003478    0.071713
     46          1           0        1.938200    1.398260   -0.540048
     47          1           0        1.442783    0.016786    0.426183
     48          8           0       -0.015809   -1.322131   -2.043970
     49          6           0        0.900745    1.940595    1.276598
     50          1           0        0.035790    1.574747    1.848021
     51          6           0        2.131188    1.879278    2.195670
     52          1           0        3.030262    2.228885    1.672730
     53          1           0        2.324688    0.857500    2.543194
     54          1           0        1.993745    2.514885    3.077866
     55          6           0        0.611342    3.386644    0.848094
     56          1           0        1.430373    3.785046    0.235306
     57          1           0       -0.319898    3.463950    0.278729
     58          1           0        0.512528    4.035364    1.726315
     59          7           0        1.060351    0.455617   -2.992098
     60          1           0        1.419873    1.407376   -2.892048
     61          6           0        1.792219   -0.268941   -4.028372
     62          1           0        2.237120   -1.168955   -3.589132
     63          6           0        2.931896    0.679466   -4.502233
     64          6           0        0.879578   -0.722434   -5.193211
     65          1           0        0.072342   -1.317646   -4.756287
     66          1           0        1.462404   -1.414796   -5.812918
     67          8           0        3.723263    0.178418   -5.372793
     68          6           0        0.291428    0.425586   -6.058685
     69          1           0       -0.801334    0.343107   -6.100853
     70          1           0        0.511438    1.396902   -5.598628
     71          6           0        0.791077    0.445512   -7.516479
     72          1           0        0.309755    1.261462   -8.063731
     73          1           0        0.526202   -0.490869   -8.020952
     74          7           0        2.250537    0.608201   -7.589242
     75          1           0        2.772888    0.083511   -6.863745
     76          7           0        2.361673    2.604026   -8.809855
     77          1           0        2.875243    3.437417   -9.056483
     78          1           0        1.738647    2.243459   -9.517723
     79          7           0        4.056615    1.992298   -7.313779
     80          1           0        4.248343    1.454100   -6.433202
     81          1           0        4.640815    2.763116   -7.601288
     82          6           0        2.891927    1.741270   -7.905266
     83          8           0        2.943330    1.839744   -4.054137
 ---------------------------------------------------------------------

 SCF Done:  E(RB3LYP) =  -1868.03446756     A.U. after    1 cycles

 Alpha  occ. eigenvalues --  -19.26620 -19.25983 -19.22149 -19.21845 -19.18022
 Alpha  occ. eigenvalues --  -19.14349 -19.14026 -14.57271 -14.50175 -14.46429
 Alpha  occ. eigenvalues --  -14.46238 -14.45166 -14.43714 -14.43596 -14.40886
 Alpha  occ. eigenvalues --  -10.43451 -10.41253 -10.39767 -10.38965 -10.38961
 Alpha  occ. eigenvalues --  -10.34928 -10.34655 -10.34492 -10.34312 -10.33744
 Alpha  occ. eigenvalues --  -10.31962 -10.30998 -10.30641 -10.30486 -10.30298
 Alpha  occ. eigenvalues --  -10.27747 -10.27045 -10.25357 -10.25259 -10.25044
 Alpha  occ. eigenvalues --  -10.24263 -10.22853 -10.22702  -1.18496  -1.14808
 Alpha  occ. eigenvalues --   -1.13731  -1.12466  -1.11511  -1.09939  -1.09726
 Alpha  occ. eigenvalues --   -1.07412  -1.06208  -1.02566  -1.01387  -0.99751
 Alpha  occ. eigenvalues --   -0.98753  -0.97694  -0.97209  -0.94864  -0.89187
 Alpha  occ. eigenvalues --   -0.87718  -0.85762  -0.85463  -0.84729  -0.82173
 Alpha  occ. eigenvalues --   -0.81590  -0.79393  -0.77121  -0.74644  -0.73817
 Alpha  occ. eigenvalues --   -0.73653  -0.73278  -0.72863  -0.72507  -0.71908
 Alpha  occ. eigenvalues --   -0.71296  -0.68642  -0.68468  -0.68094  -0.66578
 Alpha  occ. eigenvalues --   -0.66424  -0.65939  -0.63846  -0.63751  -0.62979
 Alpha  occ. eigenvalues --   -0.62354  -0.62091  -0.60868  -0.60334  -0.59541
 Alpha  occ. eigenvalues --   -0.58840  -0.58312  -0.57719  -0.57398  -0.56675
 Alpha  occ. eigenvalues --   -0.56598  -0.55694  -0.55281  -0.55076  -0.54637
 Alpha  occ. eigenvalues --   -0.53685  -0.53437  -0.52880  -0.52718  -0.52554
 Alpha  occ. eigenvalues --   -0.52004  -0.51426  -0.51286  -0.50976  -0.50415
 Alpha  occ. eigenvalues --   -0.50029  -0.49704  -0.49442  -0.49180  -0.48685
 Alpha  occ. eigenvalues --   -0.48342  -0.48244  -0.47775  -0.47447  -0.47383
 Alpha  occ. eigenvalues --   -0.47156  -0.46904  -0.46420  -0.46224  -0.45969
 Alpha  occ. eigenvalues --   -0.45721  -0.44572  -0.44358  -0.43723  -0.43431
 Alpha  occ. eigenvalues --   -0.42441  -0.42148  -0.41275  -0.40507  -0.40177
 Alpha  occ. eigenvalues --   -0.39961  -0.39642  -0.39521  -0.38755  -0.38539
 Alpha  occ. eigenvalues --   -0.38326  -0.36956  -0.36922  -0.35224  -0.34940
 Alpha  occ. eigenvalues --   -0.34462  -0.33666  -0.32041  -0.31489  -0.29738
 Alpha  occ. eigenvalues --   -0.28981  -0.28210
 Alpha virt. eigenvalues --   -0.13498  -0.08514  -0.08059  -0.07133  -0.06230
 Alpha virt. eigenvalues --   -0.04814  -0.03815  -0.03312  -0.02563  -0.02214
 Alpha virt. eigenvalues --   -0.01226  -0.00108   0.00378   0.00961   0.01330

 Mulliken charges:
               1
     1  N   -0.780898
     2  H    0.401394
     3  H    0.417770
     4  H    0.455525
     5  C   -0.100917
     6  H    0.218867
     7  C    0.646422
     8  C   -0.117286
     9  H    0.162599
    10  O   -0.536595
    11  C   -0.475191
    12  H    0.176379
    13  H    0.162930
    14  H    0.191176
    15  C   -0.488451
    16  H    0.164191
    17  H    0.161207
    18  H    0.199243
    19  N   -0.596034
    20  H    0.359503
    21  C   -0.076640
    22  H    0.202127
    23  C    0.615794
    24  C   -0.463973
    25  H    0.191357
    26  H    0.170851
    27  H    0.181147
    28  O   -0.503493
    29  N   -0.613529
    30  H    0.364805
    31  C   -0.080905
    32  H    0.202532
    33  C    0.634224
    34  C   -0.046191
    35  H    0.170585
    36  H    0.169708
    37  O   -0.580403
    38  O   -0.691927
    39  H    0.444227
    40  N   -0.585765
    41  H    0.368741
    42  C   -0.080183
    43  H    0.181659
    44  C    0.620320
    45  C   -0.259713
    46  H    0.161778
    47  H    0.148916
    48  O   -0.552812
    49  C   -0.067094
    50  H    0.118340
    51  C   -0.446211
    52  H    0.153198
    53  H    0.143422
    54  H    0.145326
    55  C   -0.458182
    56  H    0.147028
    57  H    0.159038
    58  H    0.142495
    59  N   -0.611999
    60  H    0.358407
    61  C   -0.051683
    62  H    0.176429
    63  C    0.596672
    64  C   -0.292334
    65  H    0.175226
    66  H    0.155797
    67  O   -0.638423
    68  C   -0.274049
    69  H    0.148703
    70  H    0.165190
    71  C   -0.168872
    72  H    0.151263
    73  H    0.174194
    74  N   -0.607283
    75  H    0.403965
    76  N   -0.750835
    77  H    0.361292
    78  H    0.367005
    79  N   -0.762627
    80  H    0.423709
    81  H    0.346952
    82  C    0.763735
    83  O   -0.562866
 Sum of Mulliken charges =   1.00000

 Dipole moment (field-independent basis, Debye):
    X=            -22.5569    Y=             10.1883    Z=              0.6389  Tot=             24.7593
 Quadrupole moment (field-independent basis, Debye-Ang):
   XX=            -55.3027   YY=           -201.9788   ZZ=            -13.4154
   XY=            -24.8433   XZ=           -122.1805   YZ=            -30.2762

 Normal termination of Gaussian 16 at Thu Jun 30 14:15:34 2022.
