 Gaussian 16, Revision C.01,
 Gaussian 16:  ES64L-G16RevC.01  3-Jul-2019

 -------------------------------------------------------------------
 # B3LYP/6-31G* guess=read geom=check nosymm integral(ultrafinegrid)
 -------------------------------------------------------------------

 ------------------------------------------------------
 Candidate Structure: Conf:961 Charge calc in gas phase
 ------------------------------------------------------
 Structure from the checkpoint file:  "conf-961.chk"
 Charge =  1 Multiplicity = 1

                          Input orientation:
 ---------------------------------------------------------------------
 Center     Atomic      Atomic             Coordinates (Angstroms)
 Number     Number       Type             X           Y           Z
 ---------------------------------------------------------------------
      1          7           0       -7.386942    0.071088    7.038502
      2          1           0       -7.256722   -0.746303    7.642506
      3          1           0       -6.663363    0.797576    7.302170
      4          1           0       -8.339937    0.421309    7.168759
      5          6           0       -7.050825   -0.205078    5.581939
      6          1           0       -7.146691   -1.280843    5.410051
      7          6           0       -5.568407    0.265278    5.514458
      8          6           0       -8.017401    0.579909    4.655232
      9          1           0       -7.887323    1.647681    4.883289
     10          8           0       -5.191405    1.068165    6.380970
     11          6           0       -7.664643    0.356471    3.174681
     12          1           0       -7.738013   -0.704281    2.903497
     13          1           0       -6.663738    0.712516    2.920413
     14          1           0       -8.375862    0.902161    2.548312
     15          6           0       -9.485139    0.185184    4.905496
     16          1           0       -9.647199   -0.883938    4.724703
     17          1           0       -9.850987    0.417508    5.915147
     18          1           0      -10.133597    0.739470    4.221128
     19          7           0       -4.802890   -0.228364    4.545789
     20          1           0       -5.160497   -0.850784    3.821542
     21          6           0       -3.412318    0.178928    4.325717
     22          1           0       -3.351332    1.267922    4.431519
     23          6           0       -3.096677   -0.217810    2.870697
     24          6           0       -2.452495   -0.484429    5.328449
     25          1           0       -1.425473   -0.151455    5.153622
     26          1           0       -2.731264   -0.202799    6.346938
     27          1           0       -2.484482   -1.574338    5.233658
     28          8           0       -3.891386   -0.942367    2.241941
     29          7           0       -1.943150    0.235628    2.378020
     30          1           0       -1.358936    0.918165    2.866055
     31          6           0       -1.423353   -0.098659    1.059291
     32          1           0       -1.262004   -1.182368    0.994802
     33          6           0       -0.058887    0.633674    0.956983
     34          6           0       -2.381797    0.298246   -0.094107
     35          1           0       -2.963180    1.179934    0.205969
     36          1           0       -1.798226    0.568689   -0.975911
     37          8           0        0.200183    1.548266    1.738856
     38          8           0       -3.229582   -0.776775   -0.490789
     39          1           0       -3.695681   -1.063085    0.323816
     40          7           0        0.729390    0.176448   -0.027527
     41          1           0        0.404679   -0.578076   -0.622480
     42          6           0        1.939362    0.809739   -0.560934
     43          1           0        1.911258    1.868778   -0.295262
     44          6           0        1.859793    0.638626   -2.097174
     45          6           0        3.234284    0.150664   -0.037846
     46          1           0        4.073501    0.603801   -0.582127
     47          1           0        3.208782   -0.907993   -0.329500
     48          8           0        1.328229   -0.418955   -2.550046
     49          6           0        3.492295    0.268583    1.477215
     50          1           0        2.613746   -0.130394    2.005712
     51          6           0        4.703152   -0.597932    1.858234
     52          1           0        5.612372   -0.244743    1.355840
     53          1           0        4.553999   -1.647595    1.577493
     54          1           0        4.887139   -0.560827    2.937956
     55          6           0        3.697881    1.723259    1.925758
     56          1           0        4.530567    2.187979    1.382735
     57          1           0        2.801484    2.330971    1.769658
     58          1           0        3.937183    1.764613    2.994723
     59          7           0        2.388577    1.623141   -2.788271
     60          1           0        2.686698    2.539651   -2.354207
     61          6           0        2.624443    1.855724   -4.220277
     62          1           0        3.573864    1.376025   -4.492182
     63          6           0        2.833445    3.442233   -4.301036
     64          6           0        1.550778    1.400427   -5.206208
     65          1           0        1.506285    0.304325   -5.244183
     66          1           0        1.910683    1.737251   -6.181474
     67          8           0        2.777786    3.922993   -5.439329
     68          6           0        0.161807    2.027469   -4.942226
     69          1           0        0.100263    2.398000   -3.911219
     70          1           0        0.027762    2.899771   -5.587887
     71          6           0       -0.996204    1.049723   -5.166834
     72          1           0       -1.008824    0.673037   -6.196452
     73          1           0       -1.955316    1.549062   -4.982746
     74          7           0       -0.842420   -0.086425   -4.244009
     75          1           0        0.124116   -0.274716   -3.935979
     76          7           0       -3.077703   -0.396650   -3.578330
     77          1           0       -3.666830   -0.646204   -2.792507
     78          1           0       -3.394794    0.352099   -4.174965
     79          7           0       -1.362408   -1.618033   -2.608406
     80          1           0       -0.361276   -1.659550   -2.428938
     81          1           0       -1.992650   -1.837365   -1.842389
     82          6           0       -1.757803   -0.665819   -3.486158
     83          8           0        3.011405    3.978966   -3.168926
 ---------------------------------------------------------------------

 SCF Done:  E(RB3LYP) =  -1867.98249209     A.U. after    1 cycles

 Alpha  occ. eigenvalues --  -19.29116 -19.26814 -19.26378 -19.21989 -19.19206
 Alpha  occ. eigenvalues --  -19.08595 -19.07356 -14.62214 -14.52132 -14.49051
 Alpha  occ. eigenvalues --  -14.47851 -14.46319 -14.46291 -14.45418 -14.40216
 Alpha  occ. eigenvalues --  -10.46052 -10.43368 -10.43041 -10.42964 -10.39260
 Alpha  occ. eigenvalues --  -10.37827 -10.36913 -10.35424 -10.35372 -10.35266
 Alpha  occ. eigenvalues --  -10.33381 -10.32393 -10.31280 -10.30869 -10.30545
 Alpha  occ. eigenvalues --  -10.26354 -10.24726 -10.24504 -10.24401 -10.24400
 Alpha  occ. eigenvalues --  -10.22534 -10.22385 -10.21801  -1.21645  -1.17888
 Alpha  occ. eigenvalues --   -1.16117  -1.13981  -1.13571  -1.12093  -1.09503
 Alpha  occ. eigenvalues --   -1.08625  -1.05565  -1.02017  -1.01762  -1.01367
 Alpha  occ. eigenvalues --   -1.00135  -0.97570  -0.96837  -0.92975  -0.92156
 Alpha  occ. eigenvalues --   -0.88748  -0.87442  -0.86032  -0.85687  -0.83816
 Alpha  occ. eigenvalues --   -0.81887  -0.80020  -0.79117  -0.77803  -0.77020
 Alpha  occ. eigenvalues --   -0.76064  -0.74526  -0.73716  -0.73027  -0.72626
 Alpha  occ. eigenvalues --   -0.72471  -0.72060  -0.70674  -0.69256  -0.68991
 Alpha  occ. eigenvalues --   -0.67931  -0.66867  -0.66144  -0.64707  -0.64622
 Alpha  occ. eigenvalues --   -0.63443  -0.62225  -0.61976  -0.61292  -0.60850
 Alpha  occ. eigenvalues --   -0.60228  -0.60101  -0.59648  -0.59155  -0.58873
 Alpha  occ. eigenvalues --   -0.57768  -0.56864  -0.56773  -0.56098  -0.55899
 Alpha  occ. eigenvalues --   -0.55332  -0.54781  -0.54608  -0.54454  -0.53910
 Alpha  occ. eigenvalues --   -0.53253  -0.52909  -0.52627  -0.52058  -0.51533
 Alpha  occ. eigenvalues --   -0.51085  -0.50780  -0.50644  -0.50223  -0.49802
 Alpha  occ. eigenvalues --   -0.49694  -0.49433  -0.49199  -0.48903  -0.48719
 Alpha  occ. eigenvalues --   -0.47812  -0.47293  -0.46745  -0.45866  -0.45259
 Alpha  occ. eigenvalues --   -0.44268  -0.43752  -0.43585  -0.43105  -0.42880
 Alpha  occ. eigenvalues --   -0.41798  -0.41534  -0.40618  -0.40323  -0.40271
 Alpha  occ. eigenvalues --   -0.39303  -0.39021  -0.38749  -0.38479  -0.38350
 Alpha  occ. eigenvalues --   -0.37987  -0.37760  -0.37580  -0.36152  -0.35884
 Alpha  occ. eigenvalues --   -0.35579  -0.34810  -0.32859  -0.31103  -0.23678
 Alpha  occ. eigenvalues --   -0.23499  -0.21619
 Alpha virt. eigenvalues --   -0.15062  -0.13066  -0.11606  -0.08557  -0.08039
 Alpha virt. eigenvalues --   -0.07798  -0.06896  -0.04319  -0.04223  -0.03695
 Alpha virt. eigenvalues --   -0.03374  -0.02405  -0.01996  -0.01539  -0.00739

 Mulliken charges:
               1
     1  N   -0.757093
     2  H    0.419869
     3  H    0.435417
     4  H    0.412895
     5  C   -0.103881
     6  H    0.206764
     7  C    0.651165
     8  C   -0.109763
     9  H    0.176287
    10  O   -0.535786
    11  C   -0.474620
    12  H    0.167093
    13  H    0.175989
    14  H    0.194256
    15  C   -0.477928
    16  H    0.179253
    17  H    0.145639
    18  H    0.207126
    19  N   -0.607283
    20  H    0.376398
    21  C   -0.059718
    22  H    0.207617
    23  C    0.645259
    24  C   -0.453818
    25  H    0.187430
    26  H    0.192328
    27  H    0.173607
    28  O   -0.581816
    29  N   -0.625475
    30  H    0.376886
    31  C   -0.062133
    32  H    0.183869
    33  C    0.606203
    34  C   -0.052132
    35  H    0.164249
    36  H    0.173711
    37  O   -0.523550
    38  O   -0.662677
    39  H    0.437138
    40  N   -0.602265
    41  H    0.334342
    42  C   -0.069663
    43  H    0.197125
    44  C    0.613495
    45  C   -0.252849
    46  H    0.166714
    47  H    0.140256
    48  O   -0.642685
    49  C   -0.069549
    50  H    0.114601
    51  C   -0.444724
    52  H    0.154107
    53  H    0.138277
    54  H    0.145992
    55  C   -0.459682
    56  H    0.153298
    57  H    0.165446
    58  H    0.143113
    59  N   -0.601133
    60  H    0.378440
    61  C   -0.083343
    62  H    0.165236
    63  C    0.600238
    64  C   -0.289229
    65  H    0.125447
    66  H    0.194784
    67  O   -0.570580
    68  C   -0.280857
    69  H    0.150806
    70  H    0.196302
    71  C   -0.165438
    72  H    0.189855
    73  H    0.139877
    74  N   -0.615379
    75  H    0.422559
    76  N   -0.759622
    77  H    0.378553
    78  H    0.368936
    79  N   -0.785919
    80  H    0.392353
    81  H    0.370042
    82  C    0.755045
    83  O   -0.611096
 Sum of Mulliken charges =   1.00000

 Dipole moment (field-independent basis, Debye):
    X=            -41.4978    Y=            -10.6735    Z=             28.5134  Tot=             51.4685
 Quadrupole moment (field-independent basis, Debye-Ang):
   XX=             15.9971   YY=           -274.0045   ZZ=            -73.3314
   XY=            -31.3776   XZ=           -146.2759   YZ=             28.8847

 Normal termination of Gaussian 16 at Thu Jun 30 14:28:46 2022.
