 Gaussian 16, Revision C.01,
 Gaussian 16:  ES64L-G16RevC.01  3-Jul-2019

 -------------------------------------------------------------------
 # B3LYP/6-31G* guess=read geom=check nosymm integral(ultrafinegrid)
 -------------------------------------------------------------------

 -----------------------------------------------------
 Candidate Structure: Conf:34 Charge calc in gas phase
 -----------------------------------------------------
 Structure from the checkpoint file:  "conf-34.chk"
 Charge =  1 Multiplicity = 1

                          Input orientation:
 ---------------------------------------------------------------------
 Center     Atomic      Atomic             Coordinates (Angstroms)
 Number     Number       Type             X           Y           Z
 ---------------------------------------------------------------------
      1          7           0       -7.052225    3.410056    4.840632
      2          1           0       -7.282690    3.612447    5.817430
      3          1           0       -5.996548    3.417337    4.732245
      4          1           0       -7.496133    4.116097    4.247940
      5          6           0       -7.405086    1.991715    4.423443
      6          1           0       -8.128766    1.600370    5.144566
      7          6           0       -6.025192    1.284282    4.540635
      8          6           0       -8.007487    1.976520    2.989189
      9          1           0       -7.219882    2.294455    2.292898
     10          8           0       -5.019049    2.004209    4.577408
     11          6           0       -8.427925    0.550323    2.588248
     12          1           0       -9.125190    0.113846    3.316345
     13          1           0       -7.573599   -0.117194    2.451984
     14          1           0       -8.951183    0.590332    1.628565
     15          6           0       -9.218695    2.922173    2.881276
     16          1           0      -10.009365    2.650125    3.591242
     17          1           0       -8.981395    3.985614    3.027677
     18          1           0       -9.639876    2.853913    1.874387
     19          7           0       -6.000051   -0.052729    4.602367
     20          1           0       -6.862609   -0.558842    4.440745
     21          6           0       -4.753778   -0.806385    4.334523
     22          1           0       -3.958191   -0.310603    4.894990
     23          6           0       -4.523070   -0.691104    2.813162
     24          6           0       -4.915555   -2.257185    4.776652
     25          1           0       -3.975992   -2.796538    4.625965
     26          1           0       -5.178236   -2.314382    5.837241
     27          1           0       -5.685563   -2.754350    4.178265
     28          8           0       -5.348121   -1.191412    2.034864
     29          7           0       -3.458900    0.026154    2.432539
     30          1           0       -2.812119    0.450268    3.095065
     31          6           0       -3.166817    0.355631    1.046750
     32          1           0       -3.329916   -0.536419    0.431676
     33          6           0       -1.687465    0.795758    1.017632
     34          6           0       -4.066737    1.510103    0.536295
     35          1           0       -3.759267    2.445263    1.017111
     36          1           0       -3.909337    1.618967   -0.547033
     37          8           0       -1.153465    1.190183    2.057617
     38          8           0       -5.441526    1.325713    0.843416
     39          1           0       -5.628153    0.368650    0.807196
     40          7           0       -1.096846    0.761493   -0.185030
     41          1           0       -1.563985    0.410178   -1.018808
     42          6           0        0.269731    1.211424   -0.441064
     43          1           0        0.431602    2.146537    0.102887
     44          6           0        0.327762    1.446657   -1.963079
     45          6           0        1.295577    0.145036    0.025114
     46          1           0        1.147598   -0.749358   -0.594797
     47          1           0        1.018838   -0.125942    1.051701
     48          8           0       -0.461817    0.851461   -2.709932
     49          6           0        2.784775    0.549845    0.008678
     50          1           0        3.065400    0.858484   -1.006624
     51          6           0        3.086128    1.720161    0.958544
     52          1           0        2.801087    1.472507    1.989249
     53          1           0        2.556784    2.638805    0.679833
     54          1           0        4.155542    1.955551    0.949038
     55          6           0        3.644925   -0.670721    0.372972
     56          1           0        3.418430   -1.024634    1.387295
     57          1           0        3.472747   -1.504214   -0.318487
     58          1           0        4.710908   -0.420408    0.337869
     59          7           0        1.266766    2.300898   -2.394914
     60          1           0        1.996663    2.668190   -1.781032
     61          6           0        1.638977    2.440826   -3.795770
     62          1           0        1.704199    1.433846   -4.230616
     63          6           0        3.092389    3.029868   -3.798068
     64          6           0        0.588991    3.256536   -4.615578
     65          1           0        1.015859    4.218862   -4.926130
     66          1           0       -0.234137    3.491150   -3.935872
     67          8           0        3.584502    3.262487   -4.960455
     68          6           0       -0.006153    2.510732   -5.833101
     69          1           0       -0.098910    1.448182   -5.581025
     70          1           0       -1.023955    2.874039   -6.020574
     71          6           0        0.762923    2.675986   -7.158115
     72          1           0        0.593183    3.682714   -7.562989
     73          1           0        0.377017    1.960101   -7.895141
     74          7           0        2.194845    2.490524   -6.965693
     75          1           0        2.659013    2.929826   -6.084254
     76          7           0        2.776258    1.320117   -8.929196
     77          1           0        3.300432    0.520804   -9.256216
     78          1           0        1.842995    1.417297   -9.299776
     79          7           0        4.292926    1.598419   -7.184418
     80          1           0        4.478688    2.070307   -6.292795
     81          1           0        5.068156    1.527629   -7.829345
     82          6           0        3.054176    1.814997   -7.694840
     83          8           0        3.646566    3.195872   -2.706615
 ---------------------------------------------------------------------

 SCF Done:  E(RB3LYP) =  -1868.01384157     A.U. after    1 cycles

 Alpha  occ. eigenvalues --  -19.27278 -19.22597 -19.21383 -19.19092 -19.17067
 Alpha  occ. eigenvalues --  -19.14261 -19.13212 -14.59808 -14.50256 -14.45937
 Alpha  occ. eigenvalues --  -14.45554 -14.43514 -14.42895 -14.42868 -14.40078
 Alpha  occ. eigenvalues --  -10.43971 -10.40739 -10.40694 -10.38688 -10.36437
 Alpha  occ. eigenvalues --  -10.34824 -10.33876 -10.33772 -10.31977 -10.31941
 Alpha  occ. eigenvalues --  -10.31644 -10.31055 -10.30238 -10.29442 -10.29059
 Alpha  occ. eigenvalues --  -10.28328 -10.26824 -10.25019 -10.24046 -10.23611
 Alpha  occ. eigenvalues --  -10.23237 -10.21364 -10.21257  -1.19736  -1.13989
 Alpha  occ. eigenvalues --   -1.13381  -1.11029  -1.09646  -1.09447  -1.08710
 Alpha  occ. eigenvalues --   -1.06911  -1.06502  -1.01764  -0.99575  -0.99338
 Alpha  occ. eigenvalues --   -0.98196  -0.97400  -0.96502  -0.94824  -0.89298
 Alpha  occ. eigenvalues --   -0.86428  -0.85512  -0.85196  -0.84143  -0.81169
 Alpha  occ. eigenvalues --   -0.80606  -0.78497  -0.76375  -0.74714  -0.74068
 Alpha  occ. eigenvalues --   -0.73627  -0.73480  -0.72275  -0.72112  -0.71173
 Alpha  occ. eigenvalues --   -0.70421  -0.69877  -0.67970  -0.66727  -0.66184
 Alpha  occ. eigenvalues --   -0.65766  -0.64982  -0.63648  -0.62845  -0.62286
 Alpha  occ. eigenvalues --   -0.62052  -0.60947  -0.60254  -0.59355  -0.59077
 Alpha  occ. eigenvalues --   -0.58753  -0.57891  -0.57295  -0.57060  -0.56325
 Alpha  occ. eigenvalues --   -0.55957  -0.55588  -0.54839  -0.53731  -0.53455
 Alpha  occ. eigenvalues --   -0.53153  -0.52441  -0.52203  -0.51982  -0.51609
 Alpha  occ. eigenvalues --   -0.51016  -0.50739  -0.50672  -0.49895  -0.49816
 Alpha  occ. eigenvalues --   -0.49527  -0.48969  -0.48692  -0.48275  -0.47733
 Alpha  occ. eigenvalues --   -0.47320  -0.47143  -0.47017  -0.46765  -0.46637
 Alpha  occ. eigenvalues --   -0.46419  -0.46079  -0.45487  -0.45156  -0.45099
 Alpha  occ. eigenvalues --   -0.44169  -0.43221  -0.42591  -0.42183  -0.42075
 Alpha  occ. eigenvalues --   -0.41639  -0.41014  -0.40724  -0.40324  -0.40264
 Alpha  occ. eigenvalues --   -0.40174  -0.38783  -0.37807  -0.36968  -0.36730
 Alpha  occ. eigenvalues --   -0.36640  -0.36214  -0.35483  -0.34274  -0.33353
 Alpha  occ. eigenvalues --   -0.32998  -0.32289  -0.31060  -0.30558  -0.29494
 Alpha  occ. eigenvalues --   -0.28653  -0.27380
 Alpha virt. eigenvalues --   -0.13025  -0.11010  -0.08296  -0.06336  -0.05654
 Alpha virt. eigenvalues --   -0.05178  -0.04874  -0.02940  -0.02270  -0.01933
 Alpha virt. eigenvalues --   -0.00964  -0.00726   0.00809   0.00937   0.01552

 Mulliken charges:
               1
     1  N   -0.759843
     2  H    0.415260
     3  H    0.435889
     4  H    0.410525
     5  C   -0.110717
     6  H    0.202240
     7  C    0.663587
     8  C   -0.115352
     9  H    0.211624
    10  O   -0.531462
    11  C   -0.502122
    12  H    0.150706
    13  H    0.199605
    14  H    0.190805
    15  C   -0.480863
    16  H    0.171089
    17  H    0.140202
    18  H    0.204760
    19  N   -0.583228
    20  H    0.359023
    21  C   -0.063379
    22  H    0.191455
    23  C    0.647330
    24  C   -0.478851
    25  H    0.191832
    26  H    0.174416
    27  H    0.184694
    28  O   -0.567939
    29  N   -0.582914
    30  H    0.369276
    31  C   -0.116294
    32  H    0.185245
    33  C    0.628483
    34  C    0.004055
    35  H    0.154417
    36  H    0.148917
    37  O   -0.545732
    38  O   -0.655072
    39  H    0.424007
    40  N   -0.622736
    41  H    0.355925
    42  C   -0.052116
    43  H    0.177120
    44  C    0.609941
    45  C   -0.256866
    46  H    0.140367
    47  H    0.158357
    48  O   -0.564945
    49  C   -0.094801
    50  H    0.149495
    51  C   -0.447189
    52  H    0.143085
    53  H    0.140803
    54  H    0.161127
    55  C   -0.445140
    56  H    0.139042
    57  H    0.140341
    58  H    0.153771
    59  N   -0.626018
    60  H    0.372459
    61  C   -0.053176
    62  H    0.159265
    63  C    0.608886
    64  C   -0.292216
    65  H    0.160546
    66  H    0.165036
    67  O   -0.641834
    68  C   -0.276131
    69  H    0.172650
    70  H    0.147669
    71  C   -0.153518
    72  H    0.174797
    73  H    0.138001
    74  N   -0.618923
    75  H    0.447343
    76  N   -0.757024
    77  H    0.363747
    78  H    0.364922
    79  N   -0.774750
    80  H    0.402771
    81  H    0.351112
    82  C    0.749301
    83  O   -0.536167
 Sum of Mulliken charges =   1.00000

 Dipole moment (field-independent basis, Debye):
    X=            -27.7393    Y=              7.3245    Z=              4.2831  Tot=             29.0080
 Quadrupole moment (field-independent basis, Debye-Ang):
   XX=             -1.6568   YY=           -198.2525   ZZ=             12.6924
   XY=            -88.3756   XZ=           -173.4003   YZ=             30.3689

 Normal termination of Gaussian 16 at Thu Jun 30 14:15:40 2022.
