 Gaussian 16, Revision C.01,
 Gaussian 16:  ES64L-G16RevC.01  3-Jul-2019

 -------------------------------------------------------------------
 # B3LYP/6-31G* guess=read geom=check nosymm integral(ultrafinegrid)
 -------------------------------------------------------------------

 ------------------------------------------------------
 Candidate Structure: Conf:883 Charge calc in gas phase
 ------------------------------------------------------
 Structure from the checkpoint file:  "conf-883.chk"
 Charge =  1 Multiplicity = 1

                          Input orientation:
 ---------------------------------------------------------------------
 Center     Atomic      Atomic             Coordinates (Angstroms)
 Number     Number       Type             X           Y           Z
 ---------------------------------------------------------------------
      1          7           0       -5.482043    0.194117    4.617101
      2          1           0       -6.029773    0.880014    5.142437
      3          1           0       -4.578353    0.023152    5.079907
      4          1           0       -5.216847    0.573750    3.656038
      5          6           0       -6.172951   -1.151968    4.514189
      6          1           0       -6.270729   -1.512882    5.544612
      7          6           0       -5.078997   -2.013606    3.836273
      8          6           0       -7.579647   -1.041988    3.892236
      9          1           0       -7.940683   -2.078914    3.830641
     10          8           0       -3.909999   -1.774914    4.153600
     11          6           0       -8.539975   -0.302358    4.842934
     12          1           0       -8.297641    0.765693    4.926626
     13          1           0       -8.537983   -0.737253    5.848676
     14          1           0       -9.562840   -0.357836    4.459598
     15          6           0       -7.614116   -0.422756    2.483943
     16          1           0       -7.299096    0.627500    2.493981
     17          1           0       -6.985739   -0.956002    1.764109
     18          1           0       -8.639179   -0.442996    2.102132
     19          7           0       -5.439114   -2.942109    2.932828
     20          1           0       -6.407476   -3.001867    2.644385
     21          6           0       -4.445982   -3.506561    1.988138
     22          1           0       -3.531419   -3.674053    2.560837
     23          6           0       -4.236535   -2.398132    0.922965
     24          6           0       -4.958447   -4.802409    1.377059
     25          1           0       -4.191660   -5.232111    0.726479
     26          1           0       -5.196640   -5.529587    2.158666
     27          1           0       -5.842626   -4.616135    0.760210
     28          8           0       -4.939673   -2.329683   -0.078029
     29          7           0       -3.295665   -1.466967    1.249988
     30          1           0       -2.902306   -1.489450    2.185550
     31          6           0       -3.207487   -0.199435    0.524861
     32          1           0       -3.273358   -0.416519   -0.544760
     33          6           0       -1.872330    0.455643    0.903781
     34          6           0       -4.362926    0.759486    0.896264
     35          1           0       -4.268066    1.687992    0.317860
     36          1           0       -5.317164    0.294024    0.645581
     37          8           0       -1.748572    0.913520    2.059827
     38          8           0       -4.367125    1.063391    2.300150
     39          1           0       -3.404276    1.194631    2.518270
     40          7           0       -0.919842    0.487143   -0.026397
     41          1           0       -1.115528    0.217465   -0.990910
     42          6           0        0.366362    1.172391    0.099239
     43          1           0        0.259604    1.972012    0.837050
     44          6           0        0.641874    1.757080   -1.305318
     45          6           0        1.515107    0.214511    0.494340
     46          1           0        2.457278    0.773402    0.413123
     47          1           0        1.558072   -0.576361   -0.266615
     48          8           0        0.071312    1.274980   -2.293514
     49          6           0        1.431769   -0.419988    1.896657
     50          1           0        0.455591   -0.917182    1.991277
     51          6           0        2.521451   -1.494962    2.036011
     52          1           0        3.522116   -1.054365    1.943124
     53          1           0        2.425398   -2.269538    1.265753
     54          1           0        2.465923   -1.984724    3.014827
     55          6           0        1.547311    0.622699    3.018353
     56          1           0        2.489859    1.179764    2.940323
     57          1           0        0.718174    1.336366    2.998278
     58          1           0        1.534254    0.134066    3.999582
     59          7           0        1.526735    2.759215   -1.350305
     60          1           0        2.079892    3.050310   -0.539204
     61          6           0        2.097421    3.290842   -2.580645
     62          1           0        2.427167    2.443943   -3.198532
     63          6           0        3.389500    4.068509   -2.143927
     64          6           0        1.068613    4.127654   -3.405979
     65          1           0        1.349849    5.188442   -3.394423
     66          1           0        0.109362    4.059182   -2.886970
     67          8           0        4.027998    4.641450   -3.097083
     68          6           0        0.849414    3.642209   -4.858538
     69          1           0        0.926918    2.549107   -4.879253
     70          1           0       -0.173205    3.884795   -5.171798
     71          6           0        1.783727    4.257942   -5.917636
     72          1           0        1.493738    5.300151   -6.107660
     73          1           0        1.671785    3.711457   -6.862846
     74          7           0        3.171215    4.234765   -5.475219
     75          1           0        3.386867    4.481324   -4.438335
     76          7           0        4.288406    3.766700   -7.498107
     77          1           0        5.014739    3.189681   -7.898020
     78          1           0        3.429248    3.824872   -8.023554
     79          7           0        5.414233    3.772059   -5.459733
     80          1           0        5.354371    4.000801   -4.462081
     81          1           0        6.282036    4.002579   -5.924238
     82          6           0        4.256992    3.931757   -6.150770
     83          8           0        3.691550    4.047930   -0.946575
 ---------------------------------------------------------------------

 SCF Done:  E(RB3LYP) =  -1868.03063387     A.U. after    3 cycles

 Alpha  occ. eigenvalues --  -19.26499 -19.25796 -19.22047 -19.21824 -19.18113
 Alpha  occ. eigenvalues --  -19.14695 -19.13692 -14.57625 -14.50027 -14.46303
 Alpha  occ. eigenvalues --  -14.46178 -14.45299 -14.43907 -14.43246 -14.40944
 Alpha  occ. eigenvalues --  -10.43251 -10.41124 -10.39727 -10.38936 -10.38924
 Alpha  occ. eigenvalues --  -10.34948 -10.34682 -10.34334 -10.34241 -10.33745
 Alpha  occ. eigenvalues --  -10.32136 -10.30728 -10.30621 -10.30600 -10.30359
 Alpha  occ. eigenvalues --  -10.27890 -10.27482 -10.25495 -10.25264 -10.24985
 Alpha  occ. eigenvalues --  -10.24592 -10.22831 -10.22503  -1.18356  -1.14703
 Alpha  occ. eigenvalues --   -1.13638  -1.12503  -1.11600  -1.09859  -1.09733
 Alpha  occ. eigenvalues --   -1.07439  -1.06067  -1.02475  -1.01488  -1.00022
 Alpha  occ. eigenvalues --   -0.98718  -0.97792  -0.97314  -0.94807  -0.89179
 Alpha  occ. eigenvalues --   -0.87719  -0.85831  -0.85746  -0.84814  -0.82218
 Alpha  occ. eigenvalues --   -0.81638  -0.79478  -0.77114  -0.74674  -0.74167
 Alpha  occ. eigenvalues --   -0.73642  -0.73500  -0.72708  -0.71795  -0.71491
 Alpha  occ. eigenvalues --   -0.71211  -0.69817  -0.68392  -0.67826  -0.66579
 Alpha  occ. eigenvalues --   -0.66526  -0.65859  -0.63822  -0.63303  -0.62729
 Alpha  occ. eigenvalues --   -0.62579  -0.61430  -0.60793  -0.60218  -0.59477
 Alpha  occ. eigenvalues --   -0.59151  -0.58511  -0.57864  -0.57433  -0.57296
 Alpha  occ. eigenvalues --   -0.56602  -0.56048  -0.55554  -0.55110  -0.54667
 Alpha  occ. eigenvalues --   -0.53931  -0.53657  -0.52937  -0.52606  -0.52293
 Alpha  occ. eigenvalues --   -0.52073  -0.51687  -0.51232  -0.50757  -0.50573
 Alpha  occ. eigenvalues --   -0.50007  -0.49683  -0.49421  -0.48757  -0.48656
 Alpha  occ. eigenvalues --   -0.48441  -0.48176  -0.47887  -0.47435  -0.47281
 Alpha  occ. eigenvalues --   -0.47213  -0.46645  -0.46491  -0.46044  -0.45714
 Alpha  occ. eigenvalues --   -0.45569  -0.44683  -0.44465  -0.44166  -0.43631
 Alpha  occ. eigenvalues --   -0.42211  -0.41718  -0.40990  -0.40826  -0.40496
 Alpha  occ. eigenvalues --   -0.39693  -0.39504  -0.39301  -0.38789  -0.38455
 Alpha  occ. eigenvalues --   -0.38264  -0.37003  -0.36820  -0.35262  -0.34974
 Alpha  occ. eigenvalues --   -0.34443  -0.33744  -0.32168  -0.31418  -0.29935
 Alpha  occ. eigenvalues --   -0.29177  -0.27955
 Alpha virt. eigenvalues --   -0.13290  -0.08849  -0.08356  -0.07342  -0.06007
 Alpha virt. eigenvalues --   -0.04933  -0.03871  -0.02914  -0.02639  -0.02205
 Alpha virt. eigenvalues --   -0.01250   0.00056   0.00490   0.00552   0.01410

 Mulliken charges:
               1
     1  N   -0.778542
     2  H    0.401730
     3  H    0.418990
     4  H    0.464702
     5  C   -0.113528
     6  H    0.221325
     7  C    0.654994
     8  C   -0.123657
     9  H    0.170023
    10  O   -0.537581
    11  C   -0.471546
    12  H    0.147636
    13  H    0.172401
    14  H    0.196190
    15  C   -0.486083
    16  H    0.163321
    17  H    0.176150
    18  H    0.192264
    19  N   -0.596331
    20  H    0.356604
    21  C   -0.070960
    22  H    0.197607
    23  C    0.619151
    24  C   -0.469590
    25  H    0.189875
    26  H    0.172066
    27  H    0.182304
    28  O   -0.516778
    29  N   -0.609016
    30  H    0.371010
    31  C   -0.074018
    32  H    0.195596
    33  C    0.629674
    34  C   -0.048194
    35  H    0.168755
    36  H    0.180421
    37  O   -0.576701
    38  O   -0.693768
    39  H    0.442406
    40  N   -0.585745
    41  H    0.364814
    42  C   -0.081909
    43  H    0.185649
    44  C    0.619854
    45  C   -0.258627
    46  H    0.162014
    47  H    0.145494
    48  O   -0.562774
    49  C   -0.067551
    50  H    0.118375
    51  C   -0.445988
    52  H    0.152665
    53  H    0.141409
    54  H    0.146454
    55  C   -0.459274
    56  H    0.149406
    57  H    0.160920
    58  H    0.143429
    59  N   -0.623174
    60  H    0.362478
    61  C   -0.051412
    62  H    0.159391
    63  C    0.609699
    64  C   -0.293198
    65  H    0.162363
    66  H    0.165366
    67  O   -0.641306
    68  C   -0.275647
    69  H    0.170558
    70  H    0.150108
    71  C   -0.153685
    72  H    0.175696
    73  H    0.139589
    74  N   -0.620342
    75  H    0.447832
    76  N   -0.757518
    77  H    0.364619
    78  H    0.365986
    79  N   -0.774633
    80  H    0.402845
    81  H    0.351858
    82  C    0.751025
    83  O   -0.536015
 Sum of Mulliken charges =   1.00000

 Dipole moment (field-independent basis, Debye):
    X=            -18.8710    Y=             -0.3351    Z=              1.8209  Tot=             18.9616
 Quadrupole moment (field-independent basis, Debye-Ang):
   XX=            -47.0424   YY=           -205.6805   ZZ=            -47.6323
   XY=             23.1930   XZ=           -161.1859   YZ=            -60.0787

 Normal termination of Gaussian 16 at Thu Jun 30 14:29:10 2022.
