 Gaussian 16, Revision C.01,
 Gaussian 16:  ES64L-G16RevC.01  3-Jul-2019

 -------------------------------------------------------------------
 # B3LYP/6-31G* guess=read geom=check nosymm integral(ultrafinegrid)
 -------------------------------------------------------------------

 ------------------------------------------------------
 Candidate Structure: Conf:231 Charge calc in gas phase
 ------------------------------------------------------
 Structure from the checkpoint file:  "conf-231.chk"
 Charge =  1 Multiplicity = 1

                          Input orientation:
 ---------------------------------------------------------------------
 Center     Atomic      Atomic             Coordinates (Angstroms)
 Number     Number       Type             X           Y           Z
 ---------------------------------------------------------------------
      1          7           0       -7.657392    4.956120    0.103001
      2          1           0       -8.124528    5.759869    0.531851
      3          1           0       -6.607650    5.095409    0.174450
      4          1           0       -7.962618    4.882499   -0.870747
      5          6           0       -7.859005    3.663781    0.877077
      6          1           0       -8.728736    3.794857    1.527640
      7          6           0       -6.532898    3.579747    1.685087
      8          6           0       -8.085091    2.470903   -0.095858
      9          1           0       -7.154392    2.317663   -0.658655
     10          8           0       -5.585593    4.274571    1.295179
     11          6           0       -8.370218    1.175683    0.687141
     12          1           0       -9.219538    1.296366    1.373326
     13          1           0       -7.498491    0.817840    1.240528
     14          1           0       -8.639516    0.385009   -0.019102
     15          6           0       -9.246519    2.753082   -1.067760
     16          1           0      -10.183858    2.949801   -0.533005
     17          1           0       -9.068425    3.587358   -1.761390
     18          1           0       -9.405131    1.876709   -1.702327
     19          7           0       -6.489728    2.773084    2.752453
     20          1           0       -7.272428    2.151119    2.916700
     21          6           0       -5.196690    2.338495    3.328348
     22          1           0       -4.567452    3.228322    3.399365
     23          6           0       -4.620582    1.322479    2.320256
     24          6           0       -5.420196    1.712090    4.701267
     25          1           0       -4.458151    1.438483    5.144020
     26          1           0       -5.920505    2.415442    5.373639
     27          1           0       -6.017993    0.799528    4.611207
     28          8           0       -5.244490    0.275844    2.092808
     29          7           0       -3.495853    1.686107    1.691862
     30          1           0       -3.015473    2.563382    1.881041
     31          6           0       -2.894594    0.910188    0.618969
     32          1           0       -2.931507   -0.150110    0.891718
     33          6           0       -1.437334    1.402560    0.494619
     34          6           0       -3.640693    1.126441   -0.722175
     35          1           0       -3.447996    2.143317   -1.081496
     36          1           0       -3.235657    0.422178   -1.463898
     37          8           0       -1.144049    2.526820    0.908813
     38          8           0       -5.050906    0.997057   -0.600460
     39          1           0       -5.228266    0.312364    0.071243
     40          7           0       -0.595735    0.540590   -0.096604
     41          1           0       -0.947732   -0.303890   -0.548475
     42          6           0        0.762190    0.854276   -0.532053
     43          1           0        0.834792    1.934226   -0.693817
     44          6           0        0.935733    0.098031   -1.872840
     45          6           0        1.835071    0.388281    0.480390
     46          1           0        2.821480    0.519701    0.015476
     47          1           0        1.703410   -0.692914    0.622608
     48          8           0        0.131832   -0.787865   -2.191603
     49          6           0        1.834416    1.092384    1.851592
     50          1           0        0.825427    1.010693    2.279008
     51          6           0        2.807529    0.370413    2.797075
     52          1           0        3.835259    0.416555    2.414719
     53          1           0        2.544051   -0.687347    2.916439
     54          1           0        2.803561    0.832284    3.791052
     55          6           0        2.183551    2.584081    1.743019
     56          1           0        3.163689    2.724842    1.268399
     57          1           0        1.432615    3.135093    1.169122
     58          1           0        2.231567    3.040533    2.738634
     59          7           0        2.003796    0.448517   -2.601627
     60          1           0        2.674596    1.153111   -2.295061
     61          6           0        2.481373   -0.272338   -3.778175
     62          1           0        2.328260   -1.345659   -3.629903
     63          6           0        3.994853    0.053761   -3.893411
     64          6           0        1.709098    0.195894   -5.042220
     65          1           0        2.040057    1.213179   -5.291868
     66          1           0        0.655766    0.272790   -4.750418
     67          8           0        4.672369   -0.777245   -4.593885
     68          6           0        1.751893   -0.708648   -6.288339
     69          1           0        1.433397   -1.722349   -6.011703
     70          1           0        0.988700   -0.341740   -6.991550
     71          6           0        3.080531   -0.863856   -7.043420
     72          1           0        2.927998   -1.526530   -7.905103
     73          1           0        3.826295   -1.301336   -6.383758
     74          7           0        3.602439    0.418646   -7.549127
     75          1           0        2.955425    0.992175   -8.075113
     76          7           0        5.728902    0.429420   -6.572348
     77          1           0        6.662475    0.817712   -6.592407
     78          1           0        5.410036   -0.097666   -5.658218
     79          7           0        5.149947    1.988638   -8.216978
     80          1           0        4.745686    2.045973   -9.141153
     81          1           0        6.053369    2.426949   -8.111500
     82          6           0        4.845726    0.917061   -7.423328
     83          8           0        4.394080    1.105176   -3.370314
 ---------------------------------------------------------------------

 SCF Done:  E(RB3LYP) =  -1868.00908706     A.U. after    1 cycles

 Alpha  occ. eigenvalues --  -19.27242 -19.22490 -19.21287 -19.19122 -19.16640
 Alpha  occ. eigenvalues --  -19.13289 -19.12711 -14.59791 -14.50183 -14.45836
 Alpha  occ. eigenvalues --  -14.45502 -14.45500 -14.42613 -14.42295 -14.39798
 Alpha  occ. eigenvalues --  -10.43927 -10.41107 -10.40653 -10.38605 -10.36383
 Alpha  occ. eigenvalues --  -10.34758 -10.33717 -10.33587 -10.31803 -10.31766
 Alpha  occ. eigenvalues --  -10.31035 -10.30854 -10.29336 -10.28891 -10.28338
 Alpha  occ. eigenvalues --  -10.28266 -10.26016 -10.24909 -10.23669 -10.23587
 Alpha  occ. eigenvalues --  -10.23307 -10.21363 -10.21008  -1.19699  -1.13958
 Alpha  occ. eigenvalues --   -1.13308  -1.10945  -1.09527  -1.09504  -1.08332
 Alpha  occ. eigenvalues --   -1.06442  -1.06427  -1.01676  -0.99232  -0.99191
 Alpha  occ. eigenvalues --   -0.98423  -0.96664  -0.96102  -0.94772  -0.89234
 Alpha  occ. eigenvalues --   -0.86348  -0.85415  -0.84866  -0.83974  -0.81102
 Alpha  occ. eigenvalues --   -0.80617  -0.78308  -0.76283  -0.74669  -0.74045
 Alpha  occ. eigenvalues --   -0.73520  -0.73287  -0.72216  -0.72025  -0.70774
 Alpha  occ. eigenvalues --   -0.70210  -0.69844  -0.67904  -0.67113  -0.66068
 Alpha  occ. eigenvalues --   -0.65428  -0.64573  -0.63599  -0.63012  -0.62490
 Alpha  occ. eigenvalues --   -0.61869  -0.60823  -0.60072  -0.59416  -0.59124
 Alpha  occ. eigenvalues --   -0.58584  -0.57860  -0.57270  -0.57215  -0.56222
 Alpha  occ. eigenvalues --   -0.55698  -0.54770  -0.53897  -0.53376  -0.53171
 Alpha  occ. eigenvalues --   -0.52493  -0.52260  -0.52180  -0.51983  -0.51610
 Alpha  occ. eigenvalues --   -0.51328  -0.50633  -0.50268  -0.49757  -0.49481
 Alpha  occ. eigenvalues --   -0.48906  -0.48787  -0.48588  -0.47694  -0.47611
 Alpha  occ. eigenvalues --   -0.47308  -0.47191  -0.47099  -0.46635  -0.46521
 Alpha  occ. eigenvalues --   -0.46089  -0.45929  -0.45443  -0.45144  -0.44388
 Alpha  occ. eigenvalues --   -0.43120  -0.42752  -0.42542  -0.42204  -0.42118
 Alpha  occ. eigenvalues --   -0.41577  -0.41543  -0.40951  -0.40225  -0.40089
 Alpha  occ. eigenvalues --   -0.39242  -0.38160  -0.37288  -0.36863  -0.36664
 Alpha  occ. eigenvalues --   -0.36334  -0.36145  -0.35412  -0.34213  -0.33540
 Alpha  occ. eigenvalues --   -0.32944  -0.32348  -0.30680  -0.30514  -0.28691
 Alpha  occ. eigenvalues --   -0.27660  -0.26874
 Alpha virt. eigenvalues --   -0.12990  -0.11007  -0.08194  -0.06326  -0.05814
 Alpha virt. eigenvalues --   -0.05069  -0.04793  -0.02898  -0.02341  -0.01885
 Alpha virt. eigenvalues --   -0.00942  -0.00654   0.00791   0.00844   0.01611

 Mulliken charges:
               1
     1  N   -0.759841
     2  H    0.414876
     3  H    0.435286
     4  H    0.409956
     5  C   -0.110738
     6  H    0.202104
     7  C    0.663277
     8  C   -0.116005
     9  H    0.212328
    10  O   -0.531872
    11  C   -0.503730
    12  H    0.150682
    13  H    0.201647
    14  H    0.190877
    15  C   -0.481467
    16  H    0.170902
    17  H    0.139911
    18  H    0.205152
    19  N   -0.582185
    20  H    0.359225
    21  C   -0.064743
    22  H    0.191024
    23  C    0.648149
    24  C   -0.478137
    25  H    0.192038
    26  H    0.174599
    27  H    0.184649
    28  O   -0.566778
    29  N   -0.583096
    30  H    0.367865
    31  C   -0.119492
    32  H    0.188549
    33  C    0.621693
    34  C    0.000260
    35  H    0.153409
    36  H    0.156209
    37  O   -0.542367
    38  O   -0.654955
    39  H    0.423364
    40  N   -0.602002
    41  H    0.357968
    42  C   -0.077543
    43  H    0.178535
    44  C    0.622162
    45  C   -0.255539
    46  H    0.154687
    47  H    0.143580
    48  O   -0.563733
    49  C   -0.066486
    50  H    0.126902
    51  C   -0.445564
    52  H    0.148792
    53  H    0.141357
    54  H    0.144067
    55  C   -0.459313
    56  H    0.140818
    57  H    0.164594
    58  H    0.142023
    59  N   -0.613160
    60  H    0.355429
    61  C   -0.028573
    62  H    0.164605
    63  C    0.585137
    64  C   -0.263236
    65  H    0.134748
    66  H    0.160228
    67  O   -0.632171
    68  C   -0.285792
    69  H    0.165712
    70  H    0.128136
    71  C   -0.160202
    72  H    0.156745
    73  H    0.235216
    74  N   -0.600458
    75  H    0.339388
    76  N   -0.762985
    77  H    0.341797
    78  H    0.450504
    79  N   -0.763302
    80  H    0.355788
    81  H    0.360399
    82  C    0.772329
    83  O   -0.554217
 Sum of Mulliken charges =   1.00000

 Dipole moment (field-independent basis, Debye):
    X=            -25.7488    Y=             18.7317    Z=            -10.3403  Tot=             33.4783
 Quadrupole moment (field-independent basis, Debye-Ang):
   XX=             59.1874   YY=           -153.8424   ZZ=            -60.2243
   XY=           -113.9251   XZ=            -91.3606   YZ=            -22.0430

 Normal termination of Gaussian 16 at Thu Jun 30 14:15:32 2022.
