 Gaussian 16, Revision C.01,
 Gaussian 16:  ES64L-G16RevC.01  3-Jul-2019

 -------------------------------------------------------------------
 # B3LYP/6-31G* guess=read geom=check nosymm integral(ultrafinegrid)
 -------------------------------------------------------------------

 ------------------------------------------------------
 Candidate Structure: Conf:242 Charge calc in gas phase
 ------------------------------------------------------
 Structure from the checkpoint file:  "conf-242.chk"
 Charge =  1 Multiplicity = 1

                          Input orientation:
 ---------------------------------------------------------------------
 Center     Atomic      Atomic             Coordinates (Angstroms)
 Number     Number       Type             X           Y           Z
 ---------------------------------------------------------------------
      1          7           0       -3.430173    1.724676    0.908492
      2          1           0       -3.195055    2.450966    0.227931
      3          1           0       -2.849661    1.864719    1.756919
      4          1           0       -3.090646    0.792631    0.524336
      5          6           0       -4.908811    1.738038    1.257378
      6          1           0       -5.143219    2.777251    1.508655
      7          6           0       -4.928938    0.959513    2.596554
      8          6           0       -5.780758    1.275008    0.078841
      9          1           0       -5.597942    0.203395   -0.090661
     10          8           0       -4.272552    1.443059    3.518179
     11          6           0       -7.266721    1.492011    0.420651
     12          1           0       -7.488192    2.561319    0.518182
     13          1           0       -7.562666    1.006520    1.355920
     14          1           0       -7.898487    1.093906   -0.378879
     15          6           0       -5.420943    2.011118   -1.224657
     16          1           0       -5.488590    3.099683   -1.100831
     17          1           0       -4.418997    1.757453   -1.590306
     18          1           0       -6.123008    1.729908   -2.015084
     19          7           0       -5.519459   -0.253975    2.653192
     20          1           0       -5.957909   -0.629133    1.821344
     21          6           0       -5.109965   -1.241935    3.676399
     22          1           0       -4.880792   -0.667579    4.577325
     23          6           0       -3.818075   -1.912869    3.128264
     24          6           0       -6.214083   -2.254680    3.940858
     25          1           0       -5.888511   -2.965332    4.704660
     26          1           0       -7.117640   -1.749129    4.292952
     27          1           0       -6.444414   -2.833417    3.041103
     28          8           0       -3.798259   -3.074268    2.744171
     29          7           0       -2.761733   -1.057288    2.998940
     30          1           0       -2.807823   -0.127877    3.406768
     31          6           0       -1.574405   -1.373371    2.227553
     32          1           0       -1.053332   -2.237165    2.661787
     33          6           0       -0.676803   -0.128259    2.223880
     34          6           0       -1.897645   -1.709074    0.741056
     35          1           0       -1.039080   -2.221367    0.291912
     36          1           0       -2.750813   -2.386528    0.711012
     37          8           0       -1.137059    1.000913    2.429068
     38          8           0       -2.213849   -0.552739   -0.041976
     39          1           0       -1.347591   -0.152680   -0.322519
     40          7           0        0.610884   -0.341969    1.885453
     41          1           0        0.895097   -1.287733    1.661844
     42          6           0        1.476445    0.733691    1.422183
     43          1           0        1.318965    1.586098    2.088474
     44          6           0        1.052098    1.172658   -0.008189
     45          6           0        2.951304    0.283776    1.472477
     46          1           0        3.575697    1.080327    1.051226
     47          1           0        3.072213   -0.578156    0.798773
     48          8           0        0.169463    0.574774   -0.656555
     49          6           0        3.485995   -0.077081    2.874670
     50          1           0        2.847786   -0.868440    3.294641
     51          6           0        4.910918   -0.638395    2.750881
     52          1           0        5.595893    0.114440    2.341384
     53          1           0        4.944443   -1.514704    2.092581
     54          1           0        5.296868   -0.940570    3.730284
     55          6           0        3.451780    1.119301    3.837148
     56          1           0        4.047821    1.954342    3.447418
     57          1           0        2.434064    1.484447    4.016432
     58          1           0        3.870460    0.840441    4.810063
     59          7           0        1.710501    2.229793   -0.480866
     60          1           0        2.510310    2.646203    0.009696
     61          6           0        1.683270    2.717156   -1.855259
     62          1           0        1.950806    1.878244   -2.513610
     63          6           0        2.867116    3.760961   -1.942440
     64          6           0        0.317453    3.304950   -2.300308
     65          1           0        0.442767    4.376058   -2.489065
     66          1           0       -0.386037    3.222101   -1.465667
     67          8           0        2.885695    4.464021   -3.006940
     68          6           0       -0.350281    2.642509   -3.527979
     69          1           0       -0.732464    1.656094   -3.240744
     70          1           0       -1.214230    3.257317   -3.808796
     71          6           0        0.530652    2.425882   -4.777172
     72          1           0       -0.124475    2.282827   -5.645316
     73          1           0        1.123850    1.507171   -4.670132
     74          7           0        1.431065    3.563570   -4.990665
     75          1           0        1.813735    4.005237   -4.106822
     76          7           0        2.160046    3.024873   -7.152543
     77          1           0        2.847577    3.115293   -7.886042
     78          1           0        1.232675    2.743358   -7.433063
     79          7           0        3.461725    4.331161   -5.720525
     80          1           0        3.650755    4.601009   -4.746901
     81          1           0        4.090467    4.611917   -6.457578
     82          6           0        2.340361    3.640617   -5.962423
     83          8           0        3.654349    3.791290   -0.989447
 ---------------------------------------------------------------------

 SCF Done:  E(RB3LYP) =  -1868.03606826     A.U. after    1 cycles

 Alpha  occ. eigenvalues --  -19.26059 -19.23896 -19.23331 -19.21800 -19.21269
 Alpha  occ. eigenvalues --  -19.16749 -19.15833 -14.55323 -14.48750 -14.48594
 Alpha  occ. eigenvalues --  -14.47071 -14.46703 -14.45257 -14.45113 -14.43846
 Alpha  occ. eigenvalues --  -10.43551 -10.41543 -10.40213 -10.38309 -10.38177
 Alpha  occ. eigenvalues --  -10.37919 -10.34334 -10.34040 -10.33996 -10.33575
 Alpha  occ. eigenvalues --  -10.32960 -10.32918 -10.32731 -10.30159 -10.29975
 Alpha  occ. eigenvalues --  -10.29106 -10.28277 -10.27671 -10.27199 -10.26858
 Alpha  occ. eigenvalues --  -10.26755 -10.24220 -10.24067  -1.16568  -1.15356
 Alpha  occ. eigenvalues --   -1.13093  -1.12979  -1.12321  -1.12198  -1.10040
 Alpha  occ. eigenvalues --   -1.09582  -1.04648  -1.03542  -1.02231  -1.01813
 Alpha  occ. eigenvalues --   -1.01134  -1.00307  -0.99913  -0.93592  -0.89892
 Alpha  occ. eigenvalues --   -0.88277  -0.87909  -0.85874  -0.83808  -0.83350
 Alpha  occ. eigenvalues --   -0.81390  -0.80381  -0.76846  -0.76749  -0.75237
 Alpha  occ. eigenvalues --   -0.74477  -0.74303  -0.72771  -0.71860  -0.71170
 Alpha  occ. eigenvalues --   -0.70299  -0.69894  -0.69381  -0.68898  -0.67523
 Alpha  occ. eigenvalues --   -0.66619  -0.66422  -0.65314  -0.64903  -0.63908
 Alpha  occ. eigenvalues --   -0.62958  -0.62268  -0.61941  -0.61289  -0.60787
 Alpha  occ. eigenvalues --   -0.60333  -0.59212  -0.58360  -0.58159  -0.57869
 Alpha  occ. eigenvalues --   -0.57229  -0.56666  -0.55984  -0.55654  -0.55303
 Alpha  occ. eigenvalues --   -0.54867  -0.54328  -0.53993  -0.53511  -0.53013
 Alpha  occ. eigenvalues --   -0.52808  -0.51906  -0.51610  -0.51419  -0.51101
 Alpha  occ. eigenvalues --   -0.50658  -0.50417  -0.50148  -0.49949  -0.49684
 Alpha  occ. eigenvalues --   -0.48981  -0.48613  -0.48044  -0.47532  -0.47307
 Alpha  occ. eigenvalues --   -0.47132  -0.46825  -0.46698  -0.46482  -0.46296
 Alpha  occ. eigenvalues --   -0.46160  -0.45887  -0.45255  -0.45128  -0.44735
 Alpha  occ. eigenvalues --   -0.44391  -0.43806  -0.43239  -0.42757  -0.42445
 Alpha  occ. eigenvalues --   -0.40692  -0.40172  -0.40065  -0.40013  -0.39284
 Alpha  occ. eigenvalues --   -0.39022  -0.37734  -0.37592  -0.37094  -0.36159
 Alpha  occ. eigenvalues --   -0.35203  -0.34604  -0.34310  -0.34048  -0.31941
 Alpha  occ. eigenvalues --   -0.31336  -0.30130
 Alpha virt. eigenvalues --   -0.12704  -0.09428  -0.08427  -0.07622  -0.07158
 Alpha virt. eigenvalues --   -0.06160  -0.04989  -0.03725  -0.02976  -0.01663
 Alpha virt. eigenvalues --   -0.01510  -0.01443   0.00513   0.00953   0.01094

 Mulliken charges:
               1
     1  N   -0.812766
     2  H    0.394804
     3  H    0.445971
     4  H    0.443686
     5  C   -0.066971
     6  H    0.209988
     7  C    0.606490
     8  C   -0.115488
     9  H    0.153137
    10  O   -0.513097
    11  C   -0.467111
    12  H    0.171877
    13  H    0.167357
    14  H    0.181776
    15  C   -0.480857
    16  H    0.163574
    17  H    0.151746
    18  H    0.190379
    19  N   -0.584158
    20  H    0.350089
    21  C   -0.082949
    22  H    0.208595
    23  C    0.613287
    24  C   -0.455021
    25  H    0.190234
    26  H    0.169388
    27  H    0.169908
    28  O   -0.500929
    29  N   -0.653149
    30  H    0.381887
    31  C   -0.041097
    32  H    0.185175
    33  C    0.605417
    34  C   -0.067645
    35  H    0.156211
    36  H    0.207751
    37  O   -0.566656
    38  O   -0.685005
    39  H    0.465847
    40  N   -0.581569
    41  H    0.344205
    42  C   -0.071338
    43  H    0.203945
    44  C    0.637254
    45  C   -0.305036
    46  H    0.177084
    47  H    0.140600
    48  O   -0.602970
    49  C   -0.070739
    50  H    0.124968
    51  C   -0.447301
    52  H    0.156885
    53  H    0.143159
    54  H    0.158970
    55  C   -0.457951
    56  H    0.156823
    57  H    0.147809
    58  H    0.161763
    59  N   -0.614829
    60  H    0.375783
    61  C   -0.048510
    62  H    0.159349
    63  C    0.608394
    64  C   -0.291316
    65  H    0.181120
    66  H    0.133326
    67  O   -0.629558
    68  C   -0.286515
    69  H    0.162953
    70  H    0.147767
    71  C   -0.153587
    72  H    0.150527
    73  H    0.173421
    74  N   -0.634394
    75  H    0.424886
    76  N   -0.755974
    77  H    0.367408
    78  H    0.371810
    79  N   -0.777237
    80  H    0.423166
    81  H    0.357917
    82  C    0.783211
    83  O   -0.537355
 Sum of Mulliken charges =   1.00000

 Dipole moment (field-independent basis, Debye):
    X=             -9.4693    Y=              5.3990    Z=            -11.3158  Tot=             15.7119
 Quadrupole moment (field-independent basis, Debye-Ang):
   XX=           -136.6671   YY=           -218.8882   ZZ=           -100.0257
   XY=            -17.5498   XZ=            -37.9666   YZ=            -54.2371

 Normal termination of Gaussian 16 at Thu Jun 30 14:15:35 2022.
