 Gaussian 16, Revision C.01,
 Gaussian 16:  ES64L-G16RevC.01  3-Jul-2019

 -------------------------------------------------------------------
 # B3LYP/6-31G* guess=read geom=check nosymm integral(ultrafinegrid)
 -------------------------------------------------------------------

 ------------------------------------------------------
 Candidate Structure: Conf:966 Charge calc in gas phase
 ------------------------------------------------------
 Structure from the checkpoint file:  "conf-966.chk"
 Charge =  1 Multiplicity = 1

                          Input orientation:
 ---------------------------------------------------------------------
 Center     Atomic      Atomic             Coordinates (Angstroms)
 Number     Number       Type             X           Y           Z
 ---------------------------------------------------------------------
      1          7           0       -8.987309    0.952839    6.005614
      2          1           0       -9.327636    0.104676    6.464088
      3          1           0       -8.113154    1.321490    6.507830
      4          1           0       -9.731082    1.655573    6.023365
      5          6           0       -8.437320    0.712416    4.611818
      6          1           0       -8.559303   -0.351636    4.391950
      7          6           0       -6.927147    1.048743    4.792528
      8          6           0       -9.165103    1.559035    3.543066
      9          1           0       -8.635773    1.339603    2.606912
     10          8           0       -6.570532    1.490650    5.899840
     11          6           0      -10.624073    1.107375    3.368591
     12          1           0      -11.234558    1.314291    4.258385
     13          1           0      -10.695911    0.036316    3.149357
     14          1           0      -11.087132    1.648971    2.538651
     15          6           0       -9.053313    3.070895    3.800794
     16          1           0       -9.599617    3.388780    4.700041
     17          1           0       -8.014402    3.399548    3.902887
     18          1           0       -9.495475    3.619108    2.964123
     19          7           0       -6.143685    0.834407    3.749837
     20          1           0       -6.489743    0.520469    2.835913
     21          6           0       -4.711251    1.134500    3.686517
     22          1           0       -4.548507    2.154000    4.054148
     23          6           0       -4.390589    1.068328    2.170972
     24          6           0       -3.872252    0.146770    4.511459
     25          1           0       -2.809256    0.395644    4.441166
     26          1           0       -4.163772    0.194833    5.563984
     27          1           0       -4.010162   -0.875911    4.146272
     28          8           0       -5.255242    0.662197    1.381556
     29          7           0       -3.162335    1.455355    1.826918
     30          1           0       -2.457445    1.735462    2.510026
     31          6           0       -2.617937    1.387354    0.479988
     32          1           0       -2.880084    0.421254    0.031423
     33          6           0       -1.080356    1.480521    0.669149
     34          6           0       -3.164995    2.494468   -0.429692
     35          1           0       -2.739515    2.364074   -1.436151
     36          1           0       -4.255162    2.375411   -0.507182
     37          8           0       -0.608607    1.686545    1.790830
     38          8           0       -2.806833    3.742277    0.140214
     39          1           0       -3.010917    4.438769   -0.501383
     40          7           0       -0.354056    1.307949   -0.442678
     41          1           0       -0.772201    1.169701   -1.360845
     42          6           0        1.100465    1.413591   -0.499052
     43          1           0        1.409559    2.252950    0.131492
     44          6           0        1.411672    1.706073   -1.983132
     45          6           0        1.761311    0.103791    0.005618
     46          1           0        1.495140   -0.695740   -0.698564
     47          1           0        1.277548   -0.136606    0.960887
     48          8           0        0.574510    1.437033   -2.853654
     49          6           0        3.288915    0.116153    0.222589
     50          1           0        3.785505    0.373482   -0.721748
     51          6           0        3.723924    1.138386    1.285089
     52          1           0        3.230771    0.940009    2.245437
     53          1           0        3.488155    2.170890    1.001376
     54          1           0        4.806669    1.090303    1.443773
     55          6           0        3.755960   -1.294678    0.614877
     56          1           0        3.299322   -1.612174    1.561602
     57          1           0        3.488308   -2.032606   -0.150558
     58          1           0        4.843734   -1.324201    0.742936
     59          7           0        2.616493    2.239280   -2.239644
     60          1           0        3.304886    2.400625   -1.507090
     61          6           0        3.184798    2.396765   -3.572667
     62          1           0        2.810144    1.599926   -4.219288
     63          6           0        4.719745    2.271975   -3.435062
     64          6           0        2.791342    3.773760   -4.183263
     65          1           0        2.841739    4.525021   -3.383255
     66          1           0        1.740208    3.711543   -4.483721
     67          8           0        5.313322    1.968111   -4.529375
     68          6           0        3.660922    4.226722   -5.376048
     69          1           0        3.968261    3.355558   -5.959811
     70          1           0        3.075027    4.882540   -6.033352
     71          6           0        4.917088    4.986946   -4.903837
     72          1           0        5.359307    4.526319   -4.019831
     73          1           0        4.645122    6.010577   -4.618197
     74          7           0        5.977707    5.094268   -5.914857
     75          1           0        5.784156    5.659565   -6.730977
     76          7           0        7.331309    3.341397   -5.173375
     77          1           0        8.272376    2.971062   -5.136900
     78          1           0        6.494711    2.694659   -4.774420
     79          7           0        8.057996    4.801972   -6.858127
     80          1           0        8.147205    5.792027   -7.041093
     81          1           0        8.909627    4.267143   -6.949477
     82          6           0        7.121606    4.382471   -5.950963
     83          8           0        5.234186    2.557619   -2.341190
 ---------------------------------------------------------------------

 SCF Done:  E(RB3LYP) =  -1868.00992105     A.U. after    2 cycles

 Alpha  occ. eigenvalues --  -19.26561 -19.21306 -19.21069 -19.17792 -19.15777
 Alpha  occ. eigenvalues --  -19.13213 -19.12551 -14.59312 -14.48742 -14.45055
 Alpha  occ. eigenvalues --  -14.44793 -14.44067 -14.41373 -14.41237 -14.39333
 Alpha  occ. eigenvalues --  -10.43112 -10.40238 -10.40218 -10.37997 -10.34998
 Alpha  occ. eigenvalues --  -10.34442 -10.34028 -10.32833 -10.30801 -10.30705
 Alpha  occ. eigenvalues --  -10.30703 -10.30597 -10.30552 -10.28421 -10.27916
 Alpha  occ. eigenvalues --  -10.27564 -10.25381 -10.23405 -10.22994 -10.22677
 Alpha  occ. eigenvalues --  -10.22551 -10.20768 -10.20719  -1.18886  -1.13375
 Alpha  occ. eigenvalues --   -1.12777  -1.09872  -1.08707  -1.08584  -1.07552
 Alpha  occ. eigenvalues --   -1.06210  -1.05441  -1.00744  -0.98518  -0.98131
 Alpha  occ. eigenvalues --   -0.97878  -0.95825  -0.95608  -0.95114  -0.88764
 Alpha  occ. eigenvalues --   -0.85662  -0.84938  -0.84136  -0.82914  -0.81844
 Alpha  occ. eigenvalues --   -0.79585  -0.77550  -0.76630  -0.73950  -0.73515
 Alpha  occ. eigenvalues --   -0.73116  -0.72664  -0.71614  -0.71186  -0.70268
 Alpha  occ. eigenvalues --   -0.69611  -0.68864  -0.66255  -0.65901  -0.65712
 Alpha  occ. eigenvalues --   -0.64532  -0.63495  -0.62915  -0.62246  -0.61834
 Alpha  occ. eigenvalues --   -0.60876  -0.60052  -0.59661  -0.59234  -0.58428
 Alpha  occ. eigenvalues --   -0.58307  -0.57602  -0.57279  -0.56282  -0.55218
 Alpha  occ. eigenvalues --   -0.54718  -0.54271  -0.53531  -0.53075  -0.52640
 Alpha  occ. eigenvalues --   -0.52281  -0.51898  -0.51660  -0.51139  -0.50898
 Alpha  occ. eigenvalues --   -0.50405  -0.50376  -0.49900  -0.49589  -0.48810
 Alpha  occ. eigenvalues --   -0.48706  -0.48055  -0.48005  -0.47782  -0.47489
 Alpha  occ. eigenvalues --   -0.47247  -0.46629  -0.46398  -0.46091  -0.45773
 Alpha  occ. eigenvalues --   -0.45607  -0.45174  -0.44268  -0.43915  -0.43056
 Alpha  occ. eigenvalues --   -0.42713  -0.42162  -0.41606  -0.41167  -0.41066
 Alpha  occ. eigenvalues --   -0.40951  -0.40775  -0.40212  -0.39543  -0.38757
 Alpha  occ. eigenvalues --   -0.38702  -0.37446  -0.36873  -0.36240  -0.36031
 Alpha  occ. eigenvalues --   -0.35634  -0.35587  -0.34497  -0.33415  -0.32879
 Alpha  occ. eigenvalues --   -0.31945  -0.30927  -0.30077  -0.29847  -0.28652
 Alpha  occ. eigenvalues --   -0.27267  -0.26566
 Alpha virt. eigenvalues --   -0.11981  -0.10966  -0.06747  -0.06393  -0.05216
 Alpha virt. eigenvalues --   -0.03769  -0.03390  -0.02124  -0.02046  -0.01509
 Alpha virt. eigenvalues --   -0.00331   0.00551   0.00863   0.01472   0.01564

 Mulliken charges:
               1
     1  N   -0.765260
     2  H    0.414774
     3  H    0.436570
     4  H    0.408352
     5  C   -0.099000
     6  H    0.214742
     7  C    0.655240
     8  C   -0.125353
     9  H    0.192167
    10  O   -0.551611
    11  C   -0.461618
    12  H    0.139065
    13  H    0.172706
    14  H    0.198154
    15  C   -0.477539
    16  H    0.142042
    17  H    0.188227
    18  H    0.198784
    19  N   -0.614199
    20  H    0.378468
    21  C   -0.054291
    22  H    0.198850
    23  C    0.632601
    24  C   -0.459035
    25  H    0.187942
    26  H    0.185779
    27  H    0.169817
    28  O   -0.559377
    29  N   -0.609868
    30  H    0.373089
    31  C   -0.069629
    32  H    0.186669
    33  C    0.648365
    34  C   -0.041720
    35  H    0.145558
    36  H    0.156213
    37  O   -0.551715
    38  O   -0.612115
    39  H    0.405960
    40  N   -0.629611
    41  H    0.358137
    42  C   -0.055060
    43  H    0.177271
    44  C    0.613199
    45  C   -0.253602
    46  H    0.141284
    47  H    0.155513
    48  O   -0.559242
    49  C   -0.094290
    50  H    0.149661
    51  C   -0.447691
    52  H    0.144514
    53  H    0.139016
    54  H    0.155822
    55  C   -0.444454
    56  H    0.136958
    57  H    0.143605
    58  H    0.150697
    59  N   -0.616479
    60  H    0.360741
    61  C   -0.019443
    62  H    0.174061
    63  C    0.589437
    64  C   -0.280818
    65  H    0.139139
    66  H    0.162757
    67  O   -0.635450
    68  C   -0.268583
    69  H    0.183465
    70  H    0.128197
    71  C   -0.172934
    72  H    0.215227
    73  H    0.159032
    74  N   -0.597213
    75  H    0.343403
    76  N   -0.766303
    77  H    0.336948
    78  H    0.460511
    79  N   -0.761981
    80  H    0.355512
    81  H    0.357233
    82  C    0.761679
    83  O   -0.567668
 Sum of Mulliken charges =   1.00000

 Dipole moment (field-independent basis, Debye):
    X=            -23.9811    Y=             13.0294    Z=              8.1512  Tot=             28.4833
 Quadrupole moment (field-independent basis, Debye-Ang):
   XX=            194.6608   YY=           -154.6605   ZZ=            -49.7890
   XY=             33.0531   XZ=           -264.7926   YZ=            -63.5073

 Normal termination of Gaussian 16 at Thu Jun 30 14:28:49 2022.
