 Gaussian 16, Revision C.01,
 Gaussian 16:  ES64L-G16RevC.01  3-Jul-2019

 -------------------------------------------------------------------
 # B3LYP/6-31G* guess=read geom=check nosymm integral(ultrafinegrid)
 -------------------------------------------------------------------

 ------------------------------------------------------
 Candidate Structure: Conf:796 Charge calc in gas phase
 ------------------------------------------------------
 Structure from the checkpoint file:  "conf-796.chk"
 Charge =  1 Multiplicity = 1

                          Input orientation:
 ---------------------------------------------------------------------
 Center     Atomic      Atomic             Coordinates (Angstroms)
 Number     Number       Type             X           Y           Z
 ---------------------------------------------------------------------
      1          7           0       -8.058084   -1.117344    4.435008
      2          1           0       -8.583351   -0.786897    5.249109
      3          1           0       -8.163047   -0.411558    3.646182
      4          1           0       -8.419579   -2.034193    4.158015
      5          6           0       -6.553642   -1.118276    4.652365
      6          1           0       -6.372012   -1.039579    5.727459
      7          6           0       -6.122954    0.176185    3.910391
      8          6           0       -5.940960   -2.435640    4.103340
      9          1           0       -6.474305   -3.237080    4.638734
     10          8           0       -6.932393    0.672212    3.114784
     11          6           0       -6.151977   -2.610314    2.589742
     12          1           0       -5.586226   -1.860926    2.028269
     13          1           0       -7.205402   -2.550894    2.284888
     14          1           0       -5.792640   -3.598655    2.288146
     15          6           0       -4.451514   -2.552349    4.467007
     16          1           0       -3.845740   -1.873018    3.859480
     17          1           0       -4.271063   -2.365694    5.533370
     18          1           0       -4.108957   -3.569628    4.255740
     19          7           0       -4.926260    0.690395    4.207077
     20          1           0       -4.294909    0.124073    4.761212
     21          6           0       -4.289055    1.701251    3.357415
     22          1           0       -5.061817    2.426559    3.086613
     23          6           0       -3.764585    1.003655    2.076751
     24          6           0       -3.155487    2.382768    4.134928
     25          1           0       -2.664105    3.137770    3.518211
     26          1           0       -3.546453    2.862599    5.037332
     27          1           0       -2.382080    1.658113    4.410075
     28          8           0       -3.688560   -0.221088    2.005855
     29          7           0       -3.420853    1.841151    1.070531
     30          1           0       -3.352473    2.833375    1.269280
     31          6           0       -2.499980    1.403152    0.035352
     32          1           0       -2.832192    0.428768   -0.334608
     33          6           0       -1.076069    1.243530    0.650076
     34          6           0       -2.534817    2.418719   -1.109359
     35          1           0       -1.786865    2.154777   -1.869101
     36          1           0       -3.528994    2.396997   -1.579268
     37          8           0       -0.844031    1.575433    1.809383
     38          8           0       -2.263356    3.690867   -0.530286
     39          1           0       -2.290019    4.362244   -1.228252
     40          7           0       -0.176858    0.687776   -0.190333
     41          1           0       -0.389507    0.602812   -1.182797
     42          6           0        1.261618    0.658960    0.044589
     43          1           0        1.498793    1.402381    0.811821
     44          6           0        1.906621    1.062846   -1.303707
     45          6           0        1.762047   -0.738387    0.479048
     46          1           0        2.859599   -0.714921    0.524012
     47          1           0        1.501164   -1.444891   -0.320672
     48          8           0        1.234658    1.048623   -2.342855
     49          6           0        1.216465   -1.261461    1.822131
     50          1           0        0.119244   -1.213956    1.782942
     51          6           0        1.621553   -2.732781    2.003806
     52          1           0        2.713264   -2.839667    2.043258
     53          1           0        1.256241   -3.356380    1.178998
     54          1           0        1.216866   -3.139637    2.938159
     55          6           0        1.685494   -0.413711    3.014154
     56          1           0        2.781904   -0.372646    3.061600
     57          1           0        1.296443    0.607124    2.959005
     58          1           0        1.333445   -0.848767    3.957541
     59          7           0        3.209000    1.384241   -1.254051
     60          1           0        3.743101    1.360911   -0.388382
     61          6           0        4.046568    1.622708   -2.425647
     62          1           0        3.785994    0.905184   -3.207867
     63          6           0        5.525212    1.456030   -2.001014
     64          6           0        3.856712    3.060130   -2.985689
     65          1           0        2.790273    3.196491   -3.188828
     66          1           0        4.364619    3.099585   -3.957181
     67          8           0        6.367812    1.297217   -2.904494
     68          6           0        4.377765    4.165095   -2.030156
     69          1           0        3.599245    4.918112   -1.857000
     70          1           0        4.597652    3.721275   -1.055578
     71          6           0        5.617357    4.955959   -2.505573
     72          1           0        6.052830    5.505052   -1.665838
     73          1           0        5.322286    5.692401   -3.260649
     74          7           0        6.706831    4.192253   -3.132707
     75          1           0        6.565587    3.933504   -4.100051
     76          7           0        7.735192    3.399709   -1.189294
     77          1           0        8.627723    3.068518   -0.838606
     78          1           0        6.926638    2.827021   -0.811414
     79          7           0        8.788683    3.174007   -3.261674
     80          1           0        8.769581    3.380184   -4.252814
     81          1           0        9.139426    2.246529   -3.050063
     82          6           0        7.710384    3.550953   -2.523231
     83          8           0        5.746775    1.653779   -0.754427
 ---------------------------------------------------------------------

 SCF Done:  E(RB3LYP) =  -1868.00111900     A.U. after    2 cycles

 Alpha  occ. eigenvalues --  -19.26761 -19.22985 -19.20799 -19.17770 -19.16478
 Alpha  occ. eigenvalues --  -19.13496 -19.12523 -14.59776 -14.49489 -14.45324
 Alpha  occ. eigenvalues --  -14.44570 -14.44076 -14.41758 -14.41303 -14.39821
 Alpha  occ. eigenvalues --  -10.43387 -10.40439 -10.40318 -10.37751 -10.34901
 Alpha  occ. eigenvalues --  -10.34036 -10.33892 -10.33383 -10.31771 -10.30866
 Alpha  occ. eigenvalues --  -10.30846 -10.29677 -10.29063 -10.29006 -10.28367
 Alpha  occ. eigenvalues --  -10.27701 -10.25901 -10.24069 -10.23613 -10.23514
 Alpha  occ. eigenvalues --  -10.23440 -10.21800 -10.21313  -1.19210  -1.13718
 Alpha  occ. eigenvalues --   -1.12624  -1.10407  -1.09346  -1.09078  -1.08042
 Alpha  occ. eigenvalues --   -1.06156  -1.05965  -1.00741  -0.98927  -0.98134
 Alpha  occ. eigenvalues --   -0.97870  -0.96508  -0.95744  -0.94500  -0.88640
 Alpha  occ. eigenvalues --   -0.86041  -0.84964  -0.84599  -0.83347  -0.80424
 Alpha  occ. eigenvalues --   -0.80312  -0.78190  -0.75870  -0.74512  -0.73678
 Alpha  occ. eigenvalues --   -0.73057  -0.72792  -0.72451  -0.71698  -0.70552
 Alpha  occ. eigenvalues --   -0.69495  -0.68521  -0.67543  -0.65953  -0.65436
 Alpha  occ. eigenvalues --   -0.65137  -0.63772  -0.62472  -0.62323  -0.62053
 Alpha  occ. eigenvalues --   -0.60970  -0.60629  -0.59728  -0.59378  -0.59264
 Alpha  occ. eigenvalues --   -0.58229  -0.57426  -0.56792  -0.56215  -0.55747
 Alpha  occ. eigenvalues --   -0.54419  -0.54162  -0.53729  -0.53094  -0.52693
 Alpha  occ. eigenvalues --   -0.52399  -0.52065  -0.51520  -0.50942  -0.50865
 Alpha  occ. eigenvalues --   -0.50531  -0.50223  -0.49652  -0.49447  -0.49173
 Alpha  occ. eigenvalues --   -0.48845  -0.48426  -0.48147  -0.47603  -0.47261
 Alpha  occ. eigenvalues --   -0.47136  -0.46869  -0.46651  -0.46356  -0.45711
 Alpha  occ. eigenvalues --   -0.45602  -0.44889  -0.44814  -0.44482  -0.43633
 Alpha  occ. eigenvalues --   -0.43058  -0.42551  -0.42464  -0.42151  -0.41953
 Alpha  occ. eigenvalues --   -0.41581  -0.41058  -0.40711  -0.39965  -0.39339
 Alpha  occ. eigenvalues --   -0.39141  -0.38360  -0.37330  -0.36924  -0.36831
 Alpha  occ. eigenvalues --   -0.36120  -0.35661  -0.35038  -0.34379  -0.34120
 Alpha  occ. eigenvalues --   -0.31643  -0.31475  -0.30409  -0.30128  -0.28803
 Alpha  occ. eigenvalues --   -0.27721  -0.26407
 Alpha virt. eigenvalues --   -0.12353  -0.10957  -0.07098  -0.06901  -0.06451
 Alpha virt. eigenvalues --   -0.04991  -0.03908  -0.02282  -0.01576  -0.01410
 Alpha virt. eigenvalues --   -0.00681  -0.00435   0.00326   0.00904   0.01446

 Mulliken charges:
               1
     1  N   -0.760010
     2  H    0.415597
     3  H    0.435554
     4  H    0.412890
     5  C   -0.118425
     6  H    0.206563
     7  C    0.668077
     8  C   -0.101247
     9  H    0.153811
    10  O   -0.539104
    11  C   -0.486908
    12  H    0.225118
    13  H    0.127635
    14  H    0.188965
    15  C   -0.497776
    16  H    0.212826
    17  H    0.149468
    18  H    0.189537
    19  N   -0.571086
    20  H    0.356580
    21  C   -0.100154
    22  H    0.199234
    23  C    0.658177
    24  C   -0.463712
    25  H    0.197201
    26  H    0.168640
    27  H    0.184093
    28  O   -0.534384
    29  N   -0.585361
    30  H    0.357381
    31  C   -0.094479
    32  H    0.194514
    33  C    0.640673
    34  C   -0.057052
    35  H    0.165668
    36  H    0.149933
    37  O   -0.539592
    38  O   -0.626089
    39  H    0.413442
    40  N   -0.601667
    41  H    0.353043
    42  C   -0.076831
    43  H    0.178134
    44  C    0.622566
    45  C   -0.252620
    46  H    0.146595
    47  H    0.141536
    48  O   -0.562739
    49  C   -0.066692
    50  H    0.133885
    51  C   -0.443909
    52  H    0.147142
    53  H    0.140717
    54  H    0.135805
    55  C   -0.460897
    56  H    0.138122
    57  H    0.171051
    58  H    0.131607
    59  N   -0.608885
    60  H    0.355625
    61  C   -0.034708
    62  H    0.168488
    63  C    0.582097
    64  C   -0.272060
    65  H    0.167706
    66  H    0.128608
    67  O   -0.596460
    68  C   -0.288783
    69  H    0.144881
    70  H    0.177750
    71  C   -0.153993
    72  H    0.186922
    73  H    0.163742
    74  N   -0.559937
    75  H    0.352947
    76  N   -0.743118
    77  H    0.342037
    78  H    0.417749
    79  N   -0.732440
    80  H    0.350066
    81  H    0.372903
    82  C    0.733579
    83  O   -0.625767
 Sum of Mulliken charges =   1.00000

 Dipole moment (field-independent basis, Debye):
    X=            -18.8504    Y=              3.9142    Z=             12.4364  Tot=             22.9199
 Quadrupole moment (field-independent basis, Debye-Ang):
   XX=             68.2474   YY=           -172.0417   ZZ=           -113.7533
   XY=             77.1793   XZ=           -165.3980   YZ=            -51.9107

 Normal termination of Gaussian 16 at Thu Jun 30 14:29:14 2022.
