 Gaussian 16, Revision C.01,
 Gaussian 16:  ES64L-G16RevC.01  3-Jul-2019

 -------------------------------------------------------------------
 # B3LYP/6-31G* guess=read geom=check nosymm integral(ultrafinegrid)
 -------------------------------------------------------------------

 ------------------------------------------------------
 Candidate Structure: Conf:549 Charge calc in gas phase
 ------------------------------------------------------
 Structure from the checkpoint file:  "conf-549.chk"
 Charge =  1 Multiplicity = 1

                          Input orientation:
 ---------------------------------------------------------------------
 Center     Atomic      Atomic             Coordinates (Angstroms)
 Number     Number       Type             X           Y           Z
 ---------------------------------------------------------------------
      1          7           0       -7.728838    0.773733    6.023412
      2          1           0       -7.491838    0.995977    6.994566
      3          1           0       -7.547971    1.634975    5.425279
      4          1           0       -8.708489    0.481212    5.986579
      5          6           0       -6.782115   -0.235439    5.395046
      6          1           0       -6.293014   -0.790855    6.200013
      7          6           0       -5.786084    0.705632    4.653285
      8          6           0       -7.566738   -1.203583    4.470052
      9          1           0       -8.034633   -0.592158    3.684756
     10          8           0       -6.180028    1.858759    4.407315
     11          6           0       -6.622495   -2.215848    3.798081
     12          1           0       -6.098857   -2.827484    4.543259
     13          1           0       -5.876148   -1.744036    3.155692
     14          1           0       -7.209237   -2.895711    3.173794
     15          6           0       -8.665487   -1.956311    5.244133
     16          1           0       -8.240473   -2.548776    6.062905
     17          1           0       -9.448317   -1.309802    5.664626
     18          1           0       -9.180258   -2.645773    4.568999
     19          7           0       -4.592679    0.216785    4.351776
     20          1           0       -4.337757   -0.764643    4.498939
     21          6           0       -3.578916    0.918489    3.560462
     22          1           0       -4.074257    1.409669    2.715330
     23          6           0       -2.661572   -0.217154    3.040277
     24          6           0       -2.822149    1.965922    4.391799
     25          1           0       -2.076135    2.480686    3.778964
     26          1           0       -3.521521    2.715352    4.772053
     27          1           0       -2.307658    1.493952    5.234760
     28          8           0       -2.836630   -1.374622    3.439646
     29          7           0       -1.712465    0.152968    2.172301
     30          1           0       -1.551930    1.128325    1.923595
     31          6           0       -0.680268   -0.735577    1.661505
     32          1           0       -0.350681   -1.413298    2.455773
     33          6           0        0.466380    0.172881    1.198983
     34          6           0       -1.198976   -1.602914    0.473144
     35          1           0       -2.023704   -2.214567    0.851723
     36          1           0       -1.591450   -0.932484   -0.304129
     37          8           0        0.296605    1.385698    1.070507
     38          8           0       -0.202456   -2.466178   -0.025305
     39          1           0        0.284906   -1.987184   -0.734345
     40          7           0        1.626493   -0.476708    0.924188
     41          1           0        1.541570   -1.488690    0.875097
     42          6           0        2.624663    0.120818    0.048880
     43          1           0        2.646360    1.189997    0.273406
     44          6           0        2.180507   -0.054319   -1.425641
     45          6           0        4.012193   -0.509118    0.287788
     46          1           0        4.718010   -0.075319   -0.432300
     47          1           0        3.950820   -1.579897    0.044208
     48          8           0        1.292918   -0.855232   -1.757813
     49          6           0        4.575600   -0.339604    1.713118
     50          1           0        3.846671   -0.767090    2.415761
     51          6           0        5.885837   -1.130329    1.848423
     52          1           0        6.653500   -0.741322    1.167419
     53          1           0        5.740985   -2.192281    1.616938
     54          1           0        6.281512   -1.060587    2.867786
     55          6           0        4.787196    1.135214    2.086353
     56          1           0        5.476822    1.623884    1.385682
     57          1           0        3.850060    1.703238    2.089895
     58          1           0        5.221802    1.219911    3.088669
     59          7           0        2.841036    0.706636   -2.310911
     60          1           0        3.588947    1.334569   -2.025658
     61          6           0        2.687518    0.613328   -3.758628
     62          1           0        2.601566   -0.441998   -4.034021
     63          6           0        3.988626    1.196146   -4.352530
     64          6           0        1.409457    1.365421   -4.217543
     65          1           0        1.480051    2.396012   -3.848397
     66          1           0        0.575957    0.892215   -3.685401
     67          8           0        4.225528    0.929989   -5.625282
     68          6           0        1.092672    1.401114   -5.723973
     69          1           0        0.139501    1.932027   -5.838289
     70          1           0        1.840392    1.994304   -6.263446
     71          6           0        0.963592    0.034876   -6.414391
     72          1           0        0.455855    0.182326   -7.382664
     73          1           0        0.313943   -0.618874   -5.808054
     74          7           0        2.279159   -0.567358   -6.609641
     75          1           0        3.496290    0.326780   -6.027080
     76          7           0        1.375498   -2.422165   -7.790748
     77          1           0        1.551434   -2.921465   -8.653282
     78          1           0        0.447592   -2.027283   -7.733370
     79          7           0        3.666479   -2.110512   -7.648397
     80          1           0        4.423963   -1.610575   -7.199116
     81          1           0        3.787642   -3.116042   -7.634821
     82          6           0        2.409221   -1.645913   -7.311705
     83          8           0        4.735684    1.870561   -3.665891
 ---------------------------------------------------------------------

 SCF Done:  E(RB3LYP) =  -1868.02893252     A.U. after    2 cycles

 Alpha  occ. eigenvalues --  -19.26949 -19.22048 -19.21093 -19.20019 -19.19733
 Alpha  occ. eigenvalues --  -19.18936 -19.17273 -14.60121 -14.49452 -14.45386
 Alpha  occ. eigenvalues --  -14.42885 -14.42656 -14.42120 -14.41577 -14.37569
 Alpha  occ. eigenvalues --  -10.43731 -10.40920 -10.39067 -10.36455 -10.36403
 Alpha  occ. eigenvalues --  -10.35713 -10.35538 -10.34948 -10.34932 -10.31662
 Alpha  occ. eigenvalues --  -10.30980 -10.30350 -10.30130 -10.29940 -10.29016
 Alpha  occ. eigenvalues --  -10.28519 -10.27741 -10.25188 -10.24644 -10.24589
 Alpha  occ. eigenvalues --  -10.24387 -10.22504 -10.22361  -1.19416  -1.14247
 Alpha  occ. eigenvalues --   -1.13702  -1.12932  -1.11647  -1.10113  -1.07614
 Alpha  occ. eigenvalues --   -1.06077  -1.05497  -1.04826  -1.01898  -0.99834
 Alpha  occ. eigenvalues --   -0.98706  -0.95498  -0.94844  -0.94115  -0.89477
 Alpha  occ. eigenvalues --   -0.87312  -0.85821  -0.85156  -0.83407  -0.81776
 Alpha  occ. eigenvalues --   -0.81120  -0.78533  -0.77344  -0.75169  -0.74034
 Alpha  occ. eigenvalues --   -0.73540  -0.73294  -0.73099  -0.71461  -0.70520
 Alpha  occ. eigenvalues --   -0.69985  -0.68024  -0.67555  -0.66661  -0.65951
 Alpha  occ. eigenvalues --   -0.65047  -0.64316  -0.63953  -0.63626  -0.62702
 Alpha  occ. eigenvalues --   -0.61135  -0.60712  -0.60219  -0.59920  -0.59389
 Alpha  occ. eigenvalues --   -0.58801  -0.58541  -0.57325  -0.55793  -0.55657
 Alpha  occ. eigenvalues --   -0.55174  -0.54705  -0.54466  -0.54217  -0.53930
 Alpha  occ. eigenvalues --   -0.53328  -0.53147  -0.52645  -0.52394  -0.52089
 Alpha  occ. eigenvalues --   -0.51238  -0.51064  -0.50797  -0.50458  -0.50303
 Alpha  occ. eigenvalues --   -0.49468  -0.49172  -0.49022  -0.48849  -0.48377
 Alpha  occ. eigenvalues --   -0.47762  -0.47544  -0.47412  -0.47345  -0.47299
 Alpha  occ. eigenvalues --   -0.46507  -0.46253  -0.45978  -0.45804  -0.45053
 Alpha  occ. eigenvalues --   -0.44602  -0.43964  -0.43528  -0.43137  -0.41804
 Alpha  occ. eigenvalues --   -0.41620  -0.41496  -0.41198  -0.40263  -0.39692
 Alpha  occ. eigenvalues --   -0.39495  -0.39215  -0.38369  -0.38075  -0.37980
 Alpha  occ. eigenvalues --   -0.36658  -0.36194  -0.34590  -0.34273  -0.34145
 Alpha  occ. eigenvalues --   -0.33692  -0.33245  -0.32642  -0.31950  -0.31453
 Alpha  occ. eigenvalues --   -0.30962  -0.30046
 Alpha virt. eigenvalues --   -0.12764  -0.11264  -0.07634  -0.06765  -0.05619
 Alpha virt. eigenvalues --   -0.04577  -0.04487  -0.03083  -0.02523  -0.02010
 Alpha virt. eigenvalues --   -0.01276  -0.00048  -0.00001   0.00612   0.01829

 Mulliken charges:
               1
     1  N   -0.759763
     2  H    0.416063
     3  H    0.433161
     4  H    0.408907
     5  C   -0.101881
     6  H    0.206169
     7  C    0.647459
     8  C   -0.109680
     9  H    0.171044
    10  O   -0.545683
    11  C   -0.474680
    12  H    0.170433
    13  H    0.184679
    14  H    0.188907
    15  C   -0.475882
    16  H    0.177741
    17  H    0.140434
    18  H    0.203429
    19  N   -0.605144
    20  H    0.380779
    21  C   -0.060304
    22  H    0.198969
    23  C    0.631329
    24  C   -0.456842
    25  H    0.184349
    26  H    0.184978
    27  H    0.172152
    28  O   -0.548307
    29  N   -0.624248
    30  H    0.365599
    31  C   -0.070035
    32  H    0.190942
    33  C    0.603208
    34  C   -0.034173
    35  H    0.166814
    36  H    0.142063
    37  O   -0.538041
    38  O   -0.650384
    39  H    0.444125
    40  N   -0.588533
    41  H    0.345435
    42  C   -0.091940
    43  H    0.195583
    44  C    0.647567
    45  C   -0.280501
    46  H    0.156968
    47  H    0.143259
    48  O   -0.575313
    49  C   -0.065432
    50  H    0.132606
    51  C   -0.446451
    52  H    0.149942
    53  H    0.143888
    54  H    0.150886
    55  C   -0.458431
    56  H    0.149332
    57  H    0.150692
    58  H    0.152519
    59  N   -0.607270
    60  H    0.363251
    61  C   -0.070689
    62  H    0.184637
    63  C    0.601622
    64  C   -0.263979
    65  H    0.155153
    66  H    0.165295
    67  O   -0.616882
    68  C   -0.301795
    69  H    0.147610
    70  H    0.168629
    71  C   -0.147168
    72  H    0.137756
    73  H    0.145375
    74  N   -0.568110
    75  H    0.462199
    76  N   -0.761028
    77  H    0.347592
    78  H    0.351696
    79  N   -0.755845
    80  H    0.355593
    81  H    0.339616
    82  C    0.681261
    83  O   -0.485281
 Sum of Mulliken charges =   1.00000

 Dipole moment (field-independent basis, Debye):
    X=            -27.2910    Y=             -3.7846    Z=             14.8594  Tot=             31.3038
 Quadrupole moment (field-independent basis, Debye-Ang):
   XX=             -6.9622   YY=           -224.0329   ZZ=            -16.5108
   XY=            -19.8336   XZ=           -162.9450   YZ=             39.3007

 Normal termination of Gaussian 16 at Thu Jun 30 14:28:53 2022.
