 Gaussian 16, Revision C.01,
 Gaussian 16:  ES64L-G16RevC.01  3-Jul-2019

 -------------------------------------------------------------------
 # B3LYP/6-31G* guess=read geom=check nosymm integral(ultrafinegrid)
 -------------------------------------------------------------------

 ------------------------------------------------------
 Candidate Structure: Conf:112 Charge calc in gas phase
 ------------------------------------------------------
 Structure from the checkpoint file:  "conf-112.chk"
 Charge =  1 Multiplicity = 1

                          Input orientation:
 ---------------------------------------------------------------------
 Center     Atomic      Atomic             Coordinates (Angstroms)
 Number     Number       Type             X           Y           Z
 ---------------------------------------------------------------------
      1          7           0       -9.584665    2.048124    4.405870
      2          1           0       -9.708011    1.690071    5.357151
      3          1           0       -8.954330    2.906248    4.444388
      4          1           0      -10.505673    2.265681    4.017597
      5          6           0       -8.769364    1.120407    3.520627
      6          1           0       -8.809251    0.115709    3.950324
      7          6           0       -7.350508    1.751205    3.649434
      8          6           0       -9.341975    1.114934    2.078005
      9          1           0       -9.272068    2.144852    1.698849
     10          8           0       -7.296010    2.936676    4.021951
     11          6           0       -8.515154    0.202055    1.155548
     12          1           0       -8.520755   -0.835049    1.513409
     13          1           0       -7.476939    0.523506    1.051823
     14          1           0       -8.959300    0.204008    0.156062
     15          6           0      -10.816723    0.670058    2.058351
     16          1           0      -10.932828   -0.340539    2.467431
     17          1           0      -11.499442    1.336744    2.603575
     18          1           0      -11.178697    0.653220    1.026434
     19          7           0       -6.312454    0.981374    3.364413
     20          1           0       -6.407282    0.035246    2.980431
     21          6           0       -4.924858    1.444553    3.281905
     22          1           0       -4.914201    2.427459    2.798272
     23          6           0       -4.243232    0.401625    2.360080
     24          6           0       -4.264199    1.542060    4.664986
     25          1           0       -3.230224    1.887498    4.572080
     26          1           0       -4.807025    2.257339    5.289162
     27          1           0       -4.256898    0.566142    5.160633
     28          8           0       -4.863264   -0.621568    2.036772
     29          7           0       -2.997061    0.688221    1.981179
     30          1           0       -2.520090    1.542876    2.261693
     31          6           0       -2.195809   -0.149145    1.102357
     32          1           0       -2.251263   -1.191017    1.441643
     33          6           0       -0.759911    0.392056    1.219197
     34          6           0       -2.683434   -0.067344   -0.372521
     35          1           0       -2.147598   -0.826591   -0.964429
     36          1           0       -3.743775   -0.338054   -0.383829
     37          8           0       -0.528164    1.445166    1.808730
     38          8           0       -2.552589    1.220138   -0.910248
     39          1           0       -1.624331    1.321614   -1.213957
     40          7           0        0.196507   -0.354574    0.609018
     41          1           0       -0.131169   -1.089717   -0.006124
     42          6           0        1.468555    0.247275    0.215318
     43          1           0        1.861266    0.773139    1.088705
     44          6           0        1.203451    1.269082   -0.921187
     45          6           0        2.427648   -0.885789   -0.219523
     46          1           0        2.047419   -1.309602   -1.160662
     47          1           0        2.345715   -1.677891    0.537717
     48          8           0        0.172275    1.203485   -1.607921
     49          6           0        3.919892   -0.533074   -0.393725
     50          1           0        4.017948    0.269814   -1.134644
     51          6           0        4.564784   -0.053450    0.916012
     52          1           0        4.488868   -0.822247    1.696309
     53          1           0        4.103310    0.861972    1.304632
     54          1           0        5.626638    0.164966    0.761539
     55          6           0        4.668322   -1.757923   -0.943113
     56          1           0        4.616774   -2.601106   -0.241831
     57          1           0        4.246926   -2.090163   -1.899144
     58          1           0        5.726051   -1.525351   -1.107166
     59          7           0        2.162996    2.181885   -1.118488
     60          1           0        3.053401    2.147855   -0.621365
     61          6           0        2.232086    3.072436   -2.273263
     62          1           0        1.868458    2.538132   -3.156057
     63          6           0        3.727437    3.449251   -2.446573
     64          6           0        1.372020    4.350295   -2.080195
     65          1           0        0.414256    4.041060   -1.651279
     66          1           0        1.151276    4.767026   -3.069552
     67          8           0        3.977630    4.180691   -3.462999
     68          6           0        2.043894    5.429684   -1.194152
     69          1           0        1.300036    5.903603   -0.542520
     70          1           0        2.777528    4.952405   -0.534098
     71          6           0        2.754953    6.518831   -2.034498
     72          1           0        2.070436    7.348020   -2.246852
     73          1           0        3.075612    6.100058   -2.986537
     74          7           0        3.941108    7.091936   -1.379888
     75          1           0        3.792407    7.534494   -0.482161
     76          7           0        5.593504    6.026120   -2.656484
     77          1           0        6.580749    5.970204   -2.869535
     78          1           0        4.969006    5.200288   -3.032196
     79          7           0        6.162614    7.526104   -0.956661
     80          1           0        5.933243    8.448765   -0.613707
     81          1           0        7.138271    7.384051   -1.174872
     82          6           0        5.227988    6.851982   -1.695721
     83          8           0        4.523036    3.109801   -1.549655
 ---------------------------------------------------------------------

 SCF Done:  E(RB3LYP) =  -1868.01495278     A.U. after    1 cycles

 Alpha  occ. eigenvalues --  -19.26303 -19.21043 -19.19009 -19.18059 -19.16881
 Alpha  occ. eigenvalues --  -19.13590 -19.13277 -14.59522 -14.48706 -14.45669
 Alpha  occ. eigenvalues --  -14.45449 -14.44254 -14.42463 -14.42384 -14.39913
 Alpha  occ. eigenvalues --  -10.43054 -10.41047 -10.40307 -10.38012 -10.35754
 Alpha  occ. eigenvalues --  -10.34332 -10.34041 -10.33690 -10.31174 -10.31136
 Alpha  occ. eigenvalues --  -10.30304 -10.29434 -10.29312 -10.28944 -10.28645
 Alpha  occ. eigenvalues --  -10.27807 -10.26025 -10.24394 -10.24232 -10.23633
 Alpha  occ. eigenvalues --  -10.23270 -10.21780 -10.21548  -1.18768  -1.13504
 Alpha  occ. eigenvalues --   -1.12814  -1.10942  -1.09477  -1.08315  -1.06841
 Alpha  occ. eigenvalues --   -1.06061  -1.05326  -1.00781  -0.99204  -0.99137
 Alpha  occ. eigenvalues --   -0.98594  -0.96704  -0.96197  -0.94872  -0.88715
 Alpha  occ. eigenvalues --   -0.86372  -0.85144  -0.84611  -0.82711  -0.81150
 Alpha  occ. eigenvalues --   -0.80098  -0.78236  -0.76581  -0.74583  -0.73442
 Alpha  occ. eigenvalues --   -0.73400  -0.72568  -0.72409  -0.70644  -0.70164
 Alpha  occ. eigenvalues --   -0.69907  -0.69208  -0.67340  -0.66721  -0.65747
 Alpha  occ. eigenvalues --   -0.65406  -0.64298  -0.63468  -0.63320  -0.61795
 Alpha  occ. eigenvalues --   -0.61053  -0.60937  -0.59108  -0.58795  -0.58363
 Alpha  occ. eigenvalues --   -0.57892  -0.56962  -0.56817  -0.56509  -0.55136
 Alpha  occ. eigenvalues --   -0.54551  -0.54223  -0.54164  -0.54025  -0.53680
 Alpha  occ. eigenvalues --   -0.52386  -0.52227  -0.51937  -0.51586  -0.51312
 Alpha  occ. eigenvalues --   -0.50806  -0.50620  -0.50594  -0.49961  -0.49426
 Alpha  occ. eigenvalues --   -0.48464  -0.48222  -0.48085  -0.47680  -0.47524
 Alpha  occ. eigenvalues --   -0.47319  -0.47014  -0.46775  -0.46476  -0.45815
 Alpha  occ. eigenvalues --   -0.45618  -0.45367  -0.44858  -0.44473  -0.44184
 Alpha  occ. eigenvalues --   -0.43239  -0.42794  -0.42520  -0.42197  -0.41731
 Alpha  occ. eigenvalues --   -0.41115  -0.40882  -0.40558  -0.39434  -0.38701
 Alpha  occ. eigenvalues --   -0.38254  -0.37706  -0.37666  -0.37080  -0.37012
 Alpha  occ. eigenvalues --   -0.36250  -0.35323  -0.34693  -0.33452  -0.33418
 Alpha  occ. eigenvalues --   -0.32431  -0.30941  -0.30875  -0.30501  -0.28881
 Alpha  occ. eigenvalues --   -0.28211  -0.27434
 Alpha virt. eigenvalues --   -0.12093  -0.10737  -0.06702  -0.06209  -0.05572
 Alpha virt. eigenvalues --   -0.04838  -0.03943  -0.03008  -0.02791  -0.01397
 Alpha virt. eigenvalues --   -0.00690   0.00654   0.00872   0.01280   0.01361

 Mulliken charges:
               1
     1  N   -0.760167
     2  H    0.414634
     3  H    0.432497
     4  H    0.407878
     5  C   -0.102034
     6  H    0.204878
     7  C    0.647175
     8  C   -0.109447
     9  H    0.171572
    10  O   -0.547702
    11  C   -0.474961
    12  H    0.168363
    13  H    0.189066
    14  H    0.188495
    15  C   -0.475685
    16  H    0.176543
    17  H    0.139083
    18  H    0.203062
    19  N   -0.603121
    20  H    0.380212
    21  C   -0.062949
    22  H    0.201091
    23  C    0.640053
    24  C   -0.452968
    25  H    0.182807
    26  H    0.180938
    27  H    0.170547
    28  O   -0.559245
    29  N   -0.607959
    30  H    0.367617
    31  C   -0.064973
    32  H    0.176916
    33  C    0.616159
    34  C   -0.044924
    35  H    0.128126
    36  H    0.166449
    37  O   -0.534345
    38  O   -0.648178
    39  H    0.450512
    40  N   -0.595898
    41  H    0.335288
    42  C   -0.068401
    43  H    0.186003
    44  C    0.640764
    45  C   -0.283281
    46  H    0.143620
    47  H    0.150508
    48  O   -0.583849
    49  C   -0.094709
    50  H    0.157231
    51  C   -0.448797
    52  H    0.140139
    53  H    0.140464
    54  H    0.160508
    55  C   -0.446016
    56  H    0.139940
    57  H    0.145896
    58  H    0.154819
    59  N   -0.601635
    60  H    0.367876
    61  C   -0.055172
    62  H    0.175387
    63  C    0.600941
    64  C   -0.263521
    65  H    0.163600
    66  H    0.155293
    67  O   -0.628652
    68  C   -0.292500
    69  H    0.138934
    70  H    0.167007
    71  C   -0.172996
    72  H    0.162664
    73  H    0.223668
    74  N   -0.602100
    75  H    0.342467
    76  N   -0.768653
    77  H    0.342563
    78  H    0.452943
    79  N   -0.763534
    80  H    0.355929
    81  H    0.359466
    82  C    0.780733
    83  O   -0.570950
 Sum of Mulliken charges =   1.00000

 Dipole moment (field-independent basis, Debye):
    X=            -25.2310    Y=             16.0003    Z=             15.5113  Tot=             33.6632
 Quadrupole moment (field-independent basis, Debye-Ang):
   XX=            173.0228   YY=            -97.2945   ZZ=           -171.7302
   XY=             29.6021   XZ=           -143.6317   YZ=             15.0630

 Normal termination of Gaussian 16 at Thu Jun 30 14:15:32 2022.
