 Gaussian 16, Revision C.01,
 Gaussian 16:  ES64L-G16RevC.01  3-Jul-2019

 -------------------------------------------------------------------
 # B3LYP/6-31G* guess=read geom=check nosymm integral(ultrafinegrid)
 -------------------------------------------------------------------

 ------------------------------------------------------
 Candidate Structure: Conf:914 Charge calc in gas phase
 ------------------------------------------------------
 Structure from the checkpoint file:  "conf-914.chk"
 Charge =  1 Multiplicity = 1

                          Input orientation:
 ---------------------------------------------------------------------
 Center     Atomic      Atomic             Coordinates (Angstroms)
 Number     Number       Type             X           Y           Z
 ---------------------------------------------------------------------
      1          7           0        0.552780    3.852205    3.388273
      2          1           0        1.348626    3.966924    2.608960
      3          1           0        1.027237    3.746273    4.287046
      4          1           0        0.095078    2.958023    3.147494
      5          6           0       -0.431557    4.999942    3.435893
      6          1           0       -0.866333    5.004074    4.439385
      7          6           0       -1.609345    4.622400    2.516021
      8          6           0        0.264366    6.346904    3.159653
      9          1           0        0.638023    6.332560    2.128308
     10          8           0       -2.633167    4.146016    3.021663
     11          6           0       -0.751041    7.490364    3.309095
     12          1           0       -1.140559    7.544422    4.333067
     13          1           0       -1.601452    7.376622    2.628637
     14          1           0       -0.272410    8.448622    3.084697
     15          6           0        1.467896    6.552871    4.095097
     16          1           0        1.173914    6.485464    5.151010
     17          1           0        2.270961    5.832591    3.903227
     18          1           0        1.893897    7.548800    3.939022
     19          7           0       -1.444160    4.788992    1.186921
     20          1           0       -0.502794    4.953464    0.798120
     21          6           0       -2.512143    4.424812    0.246970
     22          1           0       -3.458571    4.607134    0.766444
     23          6           0       -2.421915    2.910848   -0.063259
     24          6           0       -2.418753    5.282957   -1.009567
     25          1           0       -3.217134    5.021486   -1.710720
     26          1           0       -2.525960    6.338326   -0.744770
     27          1           0       -1.451509    5.143156   -1.501566
     28          8           0       -2.094847    2.491261   -1.182544
     29          7           0       -2.701574    2.110403    0.994683
     30          1           0       -2.887414    2.607750    1.867898
     31          6           0       -2.250565    0.723373    1.116554
     32          1           0       -2.587682    0.380257    2.101530
     33          6           0       -0.696282    0.702723    1.188198
     34          6           0       -2.924795   -0.190962    0.082951
     35          1           0       -4.010113   -0.070001    0.188536
     36          1           0       -2.645645    0.098690   -0.935313
     37          8           0       -0.107352    1.592502    1.816531
     38          8           0       -2.519848   -1.529686    0.374427
     39          1           0       -3.031130   -2.137278   -0.182092
     40          7           0       -0.046081   -0.297316    0.564556
     41          1           0       -0.603990   -1.061121    0.188325
     42          6           0        1.421742   -0.412526    0.572534
     43          1           0        1.765170   -0.127076    1.570702
     44          6           0        1.961141    0.583789   -0.486555
     45          6           0        1.824802   -1.855296    0.247824
     46          1           0        1.438995   -2.092516   -0.751507
     47          1           0        1.320954   -2.519690    0.963280
     48          8           0        1.811398    0.323601   -1.691980
     49          6           0        3.341779   -2.132443    0.275122
     50          1           0        3.821587   -1.446421   -0.437900
     51          6           0        3.963463   -1.900292    1.661187
     52          1           0        3.485602   -2.535301    2.418280
     53          1           0        3.877414   -0.858728    1.992465
     54          1           0        5.030723   -2.146438    1.650144
     55          6           0        3.611967   -3.566042   -0.206409
     56          1           0        3.154520   -4.301070    0.468053
     57          1           0        3.207401   -3.734550   -1.211069
     58          1           0        4.687403   -3.771148   -0.239088
     59          7           0        2.528649    1.692006    0.014000
     60          1           0        2.533065    1.776946    1.026463
     61          6           0        2.762300    3.030385   -0.589697
     62          1           0        3.839501    3.234994   -0.537631
     63          6           0        2.041051    3.983609    0.423209
     64          6           0        2.239121    3.235418   -2.009110
     65          1           0        2.200154    4.320100   -2.143762
     66          1           0        1.196968    2.920412   -2.008747
     67          8           0        1.154170    4.760323    0.018192
     68          6           0        3.049888    2.603941   -3.166614
     69          1           0        3.680784    3.377951   -3.619627
     70          1           0        3.727322    1.829314   -2.794579
     71          6           0        2.204735    1.931378   -4.277643
     72          1           0        1.990754    0.897004   -4.012754
     73          1           0        2.759921    1.906845   -5.219001
     74          7           0        0.921659    2.598319   -4.564130
     75          1           0        0.952998    3.424576   -5.146698
     76          7           0       -0.368789    1.317563   -3.091960
     77          1           0       -1.132498    1.387904   -2.421758
     78          1           0        0.456258    0.832158   -2.720284
     79          7           0       -1.278224    3.198211   -4.066853
     80          1           0       -1.145230    4.086382   -4.529476
     81          1           0       -1.972211    3.190013   -3.324347
     82          6           0       -0.215989    2.377886   -3.890053
     83          8           0        2.412589    3.800318    1.631125
 ---------------------------------------------------------------------

 SCF Done:  E(RB3LYP) =  -1868.06631743     A.U. after    3 cycles

 Alpha  occ. eigenvalues --  -19.26590 -19.24401 -19.23055 -19.22396 -19.21632
 Alpha  occ. eigenvalues --  -19.20112 -19.19817 -14.50959 -14.49821 -14.48881
 Alpha  occ. eigenvalues --  -14.46735 -14.46705 -14.46673 -14.45994 -14.45758
 Alpha  occ. eigenvalues --  -10.45103 -10.40533 -10.40109 -10.39474 -10.38838
 Alpha  occ. eigenvalues --  -10.37647 -10.34938 -10.34626 -10.34618 -10.33888
 Alpha  occ. eigenvalues --  -10.33302 -10.33064 -10.32076 -10.29140 -10.28274
 Alpha  occ. eigenvalues --  -10.28079 -10.27614 -10.27343 -10.26955 -10.26554
 Alpha  occ. eigenvalues --  -10.26151 -10.24864 -10.24353  -1.15702  -1.14589
 Alpha  occ. eigenvalues --   -1.14157  -1.13818  -1.13532  -1.13397  -1.12769
 Alpha  occ. eigenvalues --   -1.06613  -1.04491  -1.03754  -1.03411  -1.02917
 Alpha  occ. eigenvalues --   -1.02221  -1.01663  -1.01091  -0.90532  -0.89987
 Alpha  occ. eigenvalues --   -0.88875  -0.88148  -0.86135  -0.84732  -0.82674
 Alpha  occ. eigenvalues --   -0.80708  -0.78476  -0.77238  -0.77010  -0.75716
 Alpha  occ. eigenvalues --   -0.75223  -0.74434  -0.73064  -0.71361  -0.71073
 Alpha  occ. eigenvalues --   -0.69963  -0.69446  -0.67981  -0.67827  -0.66674
 Alpha  occ. eigenvalues --   -0.66356  -0.65798  -0.65098  -0.64579  -0.63699
 Alpha  occ. eigenvalues --   -0.63190  -0.62232  -0.61857  -0.61368  -0.60529
 Alpha  occ. eigenvalues --   -0.60253  -0.59340  -0.58934  -0.58706  -0.57971
 Alpha  occ. eigenvalues --   -0.57766  -0.57213  -0.56596  -0.55731  -0.55424
 Alpha  occ. eigenvalues --   -0.55187  -0.54235  -0.53707  -0.53560  -0.53179
 Alpha  occ. eigenvalues --   -0.52653  -0.52465  -0.51628  -0.51442  -0.50916
 Alpha  occ. eigenvalues --   -0.50663  -0.50458  -0.50020  -0.49872  -0.49261
 Alpha  occ. eigenvalues --   -0.48856  -0.48616  -0.48459  -0.48349  -0.47947
 Alpha  occ. eigenvalues --   -0.47574  -0.47198  -0.46899  -0.46750  -0.46135
 Alpha  occ. eigenvalues --   -0.45783  -0.45456  -0.45394  -0.45083  -0.44070
 Alpha  occ. eigenvalues --   -0.43985  -0.43902  -0.42993  -0.42654  -0.42438
 Alpha  occ. eigenvalues --   -0.40923  -0.40404  -0.40208  -0.39960  -0.39624
 Alpha  occ. eigenvalues --   -0.38636  -0.38319  -0.38019  -0.37556  -0.37165
 Alpha  occ. eigenvalues --   -0.36382  -0.36053  -0.35603  -0.35136  -0.34571
 Alpha  occ. eigenvalues --   -0.34223  -0.32773
 Alpha virt. eigenvalues --   -0.11057  -0.10020  -0.09564  -0.08727  -0.08124
 Alpha virt. eigenvalues --   -0.05716  -0.04846  -0.03964  -0.03402  -0.01784
 Alpha virt. eigenvalues --   -0.01147  -0.00060   0.00872   0.01140   0.01923

 Mulliken charges:
               1
     1  N   -0.826292
     2  H    0.464601
     3  H    0.383070
     4  H    0.419796
     5  C   -0.058697
     6  H    0.192559
     7  C    0.586992
     8  C   -0.105144
     9  H    0.175180
    10  O   -0.536765
    11  C   -0.458955
    12  H    0.159578
    13  H    0.158694
    14  H    0.170387
    15  C   -0.477952
    16  H    0.150324
    17  H    0.160595
    18  H    0.178817
    19  N   -0.614477
    20  H    0.417353
    21  C   -0.076523
    22  H    0.201866
    23  C    0.642680
    24  C   -0.470446
    25  H    0.158616
    26  H    0.179071
    27  H    0.169399
    28  O   -0.573464
    29  N   -0.602041
    30  H    0.391572
    31  C   -0.079670
    32  H    0.205997
    33  C    0.642904
    34  C   -0.069452
    35  H    0.169489
    36  H    0.161411
    37  O   -0.575274
    38  O   -0.626182
    39  H    0.422546
    40  N   -0.626844
    41  H    0.376603
    42  C   -0.035631
    43  H    0.166331
    44  C    0.647177
    45  C   -0.290213
    46  H    0.155751
    47  H    0.150336
    48  O   -0.590487
    49  C   -0.085465
    50  H    0.141260
    51  C   -0.450880
    52  H    0.149534
    53  H    0.134361
    54  H    0.162090
    55  C   -0.446336
    56  H    0.148599
    57  H    0.148198
    58  H    0.157288
    59  N   -0.597316
    60  H    0.362400
    61  C   -0.038867
    62  H    0.178192
    63  C    0.618968
    64  C   -0.276080
    65  H    0.169436
    66  H    0.144913
    67  O   -0.566242
    68  C   -0.265656
    69  H    0.150886
    70  H    0.177965
    71  C   -0.184955
    72  H    0.208958
    73  H    0.182875
    74  N   -0.576274
    75  H    0.350680
    76  N   -0.792433
    77  H    0.400749
    78  H    0.424042
    79  N   -0.763739
    80  H    0.357655
    81  H    0.390498
    82  C    0.750547
    83  O   -0.631037
 Sum of Mulliken charges =   1.00000

 Dipole moment (field-independent basis, Debye):
    X=             -1.0099    Y=             11.4820    Z=             -3.5520  Tot=             12.0612
 Quadrupole moment (field-independent basis, Debye-Ang):
   XX=           -200.5151   YY=           -154.0319   ZZ=           -156.2876
   XY=             -0.8333   XZ=              2.5681   YZ=             -9.4633

 Normal termination of Gaussian 16 at Thu Jun 30 14:29:27 2022.
