 Gaussian 16, Revision C.01,
 Gaussian 16:  ES64L-G16RevC.01  3-Jul-2019

 -------------------------------------------------------------------
 # B3LYP/6-31G* guess=read geom=check nosymm integral(ultrafinegrid)
 -------------------------------------------------------------------

 ------------------------------------------------------
 Candidate Structure: Conf:746 Charge calc in gas phase
 ------------------------------------------------------
 Structure from the checkpoint file:  "conf-746.chk"
 Charge =  1 Multiplicity = 1

                          Input orientation:
 ---------------------------------------------------------------------
 Center     Atomic      Atomic             Coordinates (Angstroms)
 Number     Number       Type             X           Y           Z
 ---------------------------------------------------------------------
      1          7           0       -9.036722    2.781815    4.804347
      2          1           0       -9.328672    2.228349    5.613452
      3          1           0       -8.272557    3.473175    5.091076
      4          1           0       -9.852087    3.282577    4.440822
      5          6           0       -8.320873    1.969307    3.740437
      6          1           0       -8.321252    0.927229    4.071328
      7          6           0       -6.875287    2.545034    3.800546
      8          6           0       -9.007646    2.084081    2.360228
      9          1           0       -8.365050    1.508188    1.681723
     10          8           0       -6.677818    3.521111    4.544303
     11          6           0      -10.392137    1.415916    2.366304
     12          1           0      -11.110214    1.947361    3.005907
     13          1           0      -10.341359    0.375233    2.704860
     14          1           0      -10.812747    1.417423    1.356580
     15          6           0       -9.063928    3.529871    1.839520
     16          1           0       -9.729720    4.168944    2.436251
     17          1           0       -8.076744    4.001924    1.814415
     18          1           0       -9.463704    3.537518    0.821600
     19          7           0       -5.964416    1.940414    3.053460
     20          1           0       -6.182400    1.169978    2.414005
     21          6           0       -4.556250    2.332263    2.955538
     22          1           0       -4.503188    3.406578    2.743192
     23          6           0       -4.032090    1.532280    1.736320
     24          6           0       -3.777528    2.022462    4.244188
     25          1           0       -2.732582    2.332462    4.149611
     26          1           0       -4.215476    2.567050    5.084408
     27          1           0       -3.798712    0.949685    4.460298
     28          8           0       -4.764355    0.704890    1.184059
     29          7           0       -2.770693    1.797959    1.364926
     30          1           0       -2.169735    2.420879    1.902305
     31          6           0       -2.032160    1.018143    0.382210
     32          1           0       -2.433546    0.001230    0.347977
     33          6           0       -0.564349    1.057242    0.835385
     34          6           0       -2.147325    1.649937   -1.034525
     35          1           0       -3.207852    1.687557   -1.300374
     36          1           0       -1.767492    2.682651   -0.977844
     37          8           0       -0.163179    1.999758    1.519567
     38          8           0       -1.494233    0.893110   -2.032586
     39          1           0       -0.520288    0.888204   -1.856819
     40          7           0        0.211961    0.048762    0.381218
     41          1           0       -0.218124   -0.623785   -0.242956
     42          6           0        1.667219    0.137194    0.325095
     43          1           0        1.984081    0.750170    1.171627
     44          6           0        2.100628    0.842590   -0.980206
     45          6           0        2.304920   -1.267749    0.402438
     46          1           0        3.379126   -1.172386    0.199802
     47          1           0        1.893124   -1.871469   -0.421027
     48          8           0        1.262704    0.999431   -1.914129
     49          6           0        2.096003   -2.008627    1.738313
     50          1           0        1.015662   -2.054565    1.943935
     51          6           0        2.616470   -3.448716    1.610771
     52          1           0        3.692314   -3.457900    1.398392
     53          1           0        2.111979   -3.988867    0.800532
     54          1           0        2.453950   -4.007778    2.539299
     55          6           0        2.777763   -1.287937    2.911591
     56          1           0        3.853338   -1.176267    2.727848
     57          1           0        2.360802   -0.289476    3.088606
     58          1           0        2.654219   -1.859107    3.838869
     59          7           0        3.373340    1.195685   -1.032483
     60          1           0        4.023836    0.812209   -0.295379
     61          6           0        4.238439    1.221397   -2.223637
     62          1           0        3.762038    0.643058   -3.024150
     63          6           0        5.550299    0.419640   -1.748256
     64          6           0        4.652689    2.595134   -2.762354
     65          1           0        5.575493    2.399617   -3.317927
     66          1           0        4.919799    3.259029   -1.928526
     67          8           0        6.428118    0.306419   -2.606905
     68          6           0        3.655759    3.285355   -3.707963
     69          1           0        4.180243    4.035589   -4.315945
     70          1           0        3.254146    2.542331   -4.410250
     71          6           0        2.494384    3.976995   -2.985191
     72          1           0        2.845543    4.852698   -2.430822
     73          1           0        2.016015    3.314293   -2.262671
     74          7           0        1.449293    4.456516   -3.915317
     75          1           0        1.675940    5.275950   -4.464676
     76          7           0        0.193272    2.494300   -3.903280
     77          1           0       -0.743898    2.105379   -3.848725
     78          1           0        0.869778    2.001631   -3.298169
     79          7           0       -0.556366    4.334108   -5.087074
     80          1           0       -0.434489    5.287983   -5.394900
     81          1           0       -1.127662    3.745738   -5.677200
     82          6           0        0.382659    3.748225   -4.299112
     83          8           0        5.494752    0.027212   -0.543246
 ---------------------------------------------------------------------

 SCF Done:  E(RB3LYP) =  -1867.98704815     A.U. after    2 cycles

 Alpha  occ. eigenvalues --  -19.27973 -19.23234 -19.22524 -19.20496 -19.20049
 Alpha  occ. eigenvalues --  -19.09115 -19.07744 -14.60664 -14.50351 -14.49149
 Alpha  occ. eigenvalues --  -14.49067 -14.46616 -14.46567 -14.44368 -14.39580
 Alpha  occ. eigenvalues --  -10.44781 -10.44591 -10.41560 -10.40259 -10.37452
 Alpha  occ. eigenvalues --  -10.35967 -10.35702 -10.35191 -10.32522 -10.32450
 Alpha  occ. eigenvalues --  -10.31946 -10.31910 -10.31380 -10.29792 -10.29267
 Alpha  occ. eigenvalues --  -10.26707 -10.25404 -10.24496 -10.23796 -10.23738
 Alpha  occ. eigenvalues --  -10.22379 -10.21461 -10.21308  -1.20298  -1.15271
 Alpha  occ. eigenvalues --   -1.14503  -1.13286  -1.12517  -1.10309  -1.09485
 Alpha  occ. eigenvalues --   -1.07041  -1.03114  -1.02764  -1.02125  -1.00994
 Alpha  occ. eigenvalues --   -1.00714  -0.96892  -0.96403  -0.93272  -0.90425
 Alpha  occ. eigenvalues --   -0.87125  -0.86491  -0.86043  -0.84238  -0.83030
 Alpha  occ. eigenvalues --   -0.81118  -0.79379  -0.78311  -0.75607  -0.75237
 Alpha  occ. eigenvalues --   -0.74775  -0.74594  -0.72659  -0.72574  -0.72294
 Alpha  occ. eigenvalues --   -0.71496  -0.70575  -0.70130  -0.68852  -0.67887
 Alpha  occ. eigenvalues --   -0.67317  -0.66505  -0.65293  -0.63545  -0.62707
 Alpha  occ. eigenvalues --   -0.62499  -0.61454  -0.61212  -0.60782  -0.60383
 Alpha  occ. eigenvalues --   -0.59860  -0.59797  -0.58691  -0.58111  -0.57009
 Alpha  occ. eigenvalues --   -0.56809  -0.56411  -0.55919  -0.55274  -0.54746
 Alpha  occ. eigenvalues --   -0.54466  -0.53910  -0.53326  -0.53137  -0.52372
 Alpha  occ. eigenvalues --   -0.52117  -0.51652  -0.51225  -0.50718  -0.50585
 Alpha  occ. eigenvalues --   -0.50189  -0.49897  -0.49437  -0.49334  -0.48757
 Alpha  occ. eigenvalues --   -0.48710  -0.48505  -0.48117  -0.47768  -0.47268
 Alpha  occ. eigenvalues --   -0.46931  -0.46425  -0.45558  -0.45162  -0.44093
 Alpha  occ. eigenvalues --   -0.43655  -0.42779  -0.42413  -0.42275  -0.41852
 Alpha  occ. eigenvalues --   -0.40916  -0.40633  -0.40317  -0.39914  -0.39560
 Alpha  occ. eigenvalues --   -0.38986  -0.38059  -0.37858  -0.37777  -0.37339
 Alpha  occ. eigenvalues --   -0.37141  -0.36933  -0.36590  -0.36180  -0.35199
 Alpha  occ. eigenvalues --   -0.34814  -0.34089  -0.32969  -0.31574  -0.24024
 Alpha  occ. eigenvalues --   -0.23949  -0.21826
 Alpha virt. eigenvalues --   -0.13375  -0.12229  -0.09319  -0.08771  -0.07727
 Alpha virt. eigenvalues --   -0.06601  -0.05423  -0.05099  -0.04866  -0.03395
 Alpha virt. eigenvalues --   -0.01724  -0.01512  -0.00936  -0.00580   0.00051

 Mulliken charges:
               1
     1  N   -0.763996
     2  H    0.417553
     3  H    0.436920
     4  H    0.410234
     5  C   -0.099714
     6  H    0.216733
     7  C    0.656415
     8  C   -0.125915
     9  H    0.190473
    10  O   -0.548220
    11  C   -0.462416
    12  H    0.141058
    13  H    0.174760
    14  H    0.199860
    15  C   -0.477268
    16  H    0.144403
    17  H    0.184691
    18  H    0.199706
    19  N   -0.617080
    20  H    0.379185
    21  C   -0.052065
    22  H    0.196566
    23  C    0.625087
    24  C   -0.462090
    25  H    0.185291
    26  H    0.191898
    27  H    0.173905
    28  O   -0.542495
    29  N   -0.618103
    30  H    0.365603
    31  C   -0.076186
    32  H    0.189361
    33  C    0.598667
    34  C   -0.030384
    35  H    0.165002
    36  H    0.131149
    37  O   -0.535802
    38  O   -0.675312
    39  H    0.444027
    40  N   -0.583462
    41  H    0.340851
    42  C   -0.091287
    43  H    0.204707
    44  C    0.625446
    45  C   -0.305445
    46  H    0.212086
    47  H    0.130622
    48  O   -0.628121
    49  C   -0.065727
    50  H    0.112885
    51  C   -0.447550
    52  H    0.168335
    53  H    0.138018
    54  H    0.144285
    55  C   -0.460046
    56  H    0.173033
    57  H    0.140286
    58  H    0.145806
    59  N   -0.576482
    60  H    0.376566
    61  C   -0.096404
    62  H    0.144975
    63  C    0.596811
    64  C   -0.270341
    65  H    0.199742
    66  H    0.138118
    67  O   -0.552876
    68  C   -0.269657
    69  H    0.140887
    70  H    0.147777
    71  C   -0.185523
    72  H    0.180603
    73  H    0.200245
    74  N   -0.587720
    75  H    0.350642
    76  N   -0.792614
    77  H    0.373550
    78  H    0.437423
    79  N   -0.761672
    80  H    0.365185
    81  H    0.374443
    82  C    0.787844
    83  O   -0.607745
 Sum of Mulliken charges =   1.00000

 Dipole moment (field-independent basis, Debye):
    X=            -46.0381    Y=             20.4189    Z=              7.2905  Tot=             50.8880
 Quadrupole moment (field-independent basis, Debye-Ang):
   XX=              8.0491   YY=           -143.0773   ZZ=            -97.6791
   XY=            -73.4898   XZ=           -123.5194   YZ=            -29.2909

 Normal termination of Gaussian 16 at Thu Jun 30 14:28:56 2022.
