 Gaussian 16, Revision C.01,
 Gaussian 16:  ES64L-G16RevC.01  3-Jul-2019

 -------------------------------------------------------------------
 # B3LYP/6-31G* guess=read geom=check nosymm integral(ultrafinegrid)
 -------------------------------------------------------------------

 ------------------------------------------------------
 Candidate Structure: Conf:472 Charge calc in gas phase
 ------------------------------------------------------
 Structure from the checkpoint file:  "conf-472.chk"
 Charge =  1 Multiplicity = 1

                          Input orientation:
 ---------------------------------------------------------------------
 Center     Atomic      Atomic             Coordinates (Angstroms)
 Number     Number       Type             X           Y           Z
 ---------------------------------------------------------------------
      1          7           0       -8.301684    1.044832    5.353619
      2          1           0       -8.271451    0.561742    6.256121
      3          1           0       -7.725918    1.935946    5.427970
      4          1           0       -9.278942    1.238934    5.121273
      5          6           0       -7.565477    0.298219    4.253625
      6          1           0       -7.495954   -0.753835    4.543446
      7          6           0       -6.175829    1.001884    4.288061
      8          6           0       -8.325711    0.439357    2.908098
      9          1           0       -8.363401    1.512254    2.669489
     10          8           0       -6.131013    2.131894    4.804060
     11          6           0       -7.580680   -0.283866    1.772460
     12          1           0       -7.481994   -1.356477    1.980583
     13          1           0       -6.584328    0.122878    1.587586
     14          1           0       -8.152758   -0.183792    0.845683
     15          6           0       -9.763355   -0.104234    3.012074
     16          1           0       -9.768731   -1.165335    3.287875
     17          1           0      -10.401676    0.434755    3.726033
     18          1           0      -10.259267   -0.011836    2.041665
     19          7           0       -5.145256    0.343460    3.779437
     20          1           0       -5.240660   -0.552647    3.291748
     21          6           0       -3.795430    0.892224    3.627674
     22          1           0       -3.875834    1.918974    3.253056
     23          6           0       -3.147471   -0.009541    2.546568
     24          6           0       -3.019104    0.888466    4.953684
     25          1           0       -2.018016    1.308311    4.817096
     26          1           0       -3.543105    1.499629    5.693421
     27          1           0       -2.914300   -0.130751    5.338672
     28          8           0       -3.757783   -1.003242    2.134757
     29          7           0       -1.931112    0.361975    2.128808
     30          1           0       -1.428634    1.146642    2.541646
     31          6           0       -1.108535   -0.419162    1.218375
     32          1           0       -1.240545   -1.485763    1.426136
     33          6           0        0.338269    0.021859    1.469411
     34          6           0       -1.492372   -0.165098   -0.272777
     35          1           0       -2.529247   -0.489652   -0.403612
     36          1           0       -1.439396    0.915598   -0.466455
     37          8           0        0.583923    1.059072    2.086305
     38          8           0       -0.685319   -0.903596   -1.160939
     39          1           0        0.109376   -0.362207   -1.370689
     40          7           0        1.278746   -0.789866    0.924573
     41          1           0        0.917974   -1.474470    0.265707
     42          6           0        2.622204   -0.292483    0.647448
     43          1           0        2.972051    0.218455    1.547580
     44          6           0        2.547804    0.721108   -0.518561
     45          6           0        3.534212   -1.495332    0.309176
     46          1           0        3.195413   -1.918460   -0.647387
     47          1           0        3.344169   -2.259129    1.075235
     48          8           0        1.649273    0.660985   -1.372887
     49          6           0        5.052915   -1.232711    0.239084
     50          1           0        5.248612   -0.443366   -0.497665
     51          6           0        5.632183   -0.777175    1.587611
     52          1           0        5.466553   -1.537032    2.362491
     53          1           0        5.191834    0.161334    1.945670
     54          1           0        6.711020   -0.610960    1.504191
     55          6           0        5.765913   -2.503642   -0.249062
     56          1           0        5.614514   -3.335504    0.450998
     57          1           0        5.395189   -2.819994   -1.231097
     58          1           0        6.844314   -2.334119   -0.336990
     59          7           0        3.523201    1.645716   -0.551256
     60          1           0        4.300403    1.588645    0.102202
     61          6           0        3.805587    2.499208   -1.699368
     62          1           0        3.427740    1.999740   -2.595755
     63          6           0        5.336757    2.601811   -1.814528
     64          6           0        3.176898    3.910775   -1.579865
     65          1           0        3.745320    4.608395   -2.203916
     66          1           0        3.299164    4.246733   -0.543660
     67          8           0        5.786359    3.139820   -2.937039
     68          6           0        1.698025    3.971837   -1.982496
     69          1           0        1.124049    3.223165   -1.424979
     70          1           0        1.295802    4.955564   -1.703125
     71          6           0        1.445335    3.737714   -3.480653
     72          1           0        0.362859    3.700941   -3.657341
     73          1           0        1.850464    2.775982   -3.802016
     74          7           0        2.003176    4.756633   -4.363885
     75          1           0        1.566071    5.667540   -4.364136
     76          7           0        4.004420    3.683879   -4.911726
     77          1           0        4.663062    3.624154   -5.687942
     78          1           0        5.037566    3.331401   -3.592534
     79          7           0        3.244912    5.609407   -6.097154
     80          1           0        2.400735    5.859268   -6.597764
     81          1           0        4.062744    5.554790   -6.689182
     82          6           0        3.130927    4.624742   -5.124753
     83          8           0        6.068795    2.232566   -0.914906
 ---------------------------------------------------------------------

 SCF Done:  E(RB3LYP) =  -1868.02332314     A.U. after    1 cycles

 Alpha  occ. eigenvalues --  -19.27045 -19.22189 -19.21607 -19.20193 -19.19845
 Alpha  occ. eigenvalues --  -19.19217 -19.17601 -14.60239 -14.49562 -14.45556
 Alpha  occ. eigenvalues --  -14.42955 -14.42522 -14.42182 -14.42077 -14.36406
 Alpha  occ. eigenvalues --  -10.43834 -10.41015 -10.39215 -10.36445 -10.36303
 Alpha  occ. eigenvalues --  -10.35954 -10.35809 -10.35077 -10.35040 -10.31747
 Alpha  occ. eigenvalues --  -10.31095 -10.30533 -10.30227 -10.30122 -10.29122
 Alpha  occ. eigenvalues --  -10.28643 -10.28222 -10.25110 -10.24773 -10.24495
 Alpha  occ. eigenvalues --  -10.24298 -10.22296 -10.22005  -1.19511  -1.14380
 Alpha  occ. eigenvalues --   -1.13835  -1.13310  -1.11783  -1.10331  -1.07788
 Alpha  occ. eigenvalues --   -1.06188  -1.05379  -1.05031  -1.02043  -0.99917
 Alpha  occ. eigenvalues --   -0.99034  -0.95902  -0.95596  -0.91483  -0.89597
 Alpha  occ. eigenvalues --   -0.87290  -0.85931  -0.85474  -0.83533  -0.81868
 Alpha  occ. eigenvalues --   -0.81003  -0.79025  -0.77475  -0.75268  -0.74144
 Alpha  occ. eigenvalues --   -0.74007  -0.73259  -0.73062  -0.71403  -0.70626
 Alpha  occ. eigenvalues --   -0.70130  -0.68240  -0.67448  -0.66830  -0.66062
 Alpha  occ. eigenvalues --   -0.65061  -0.64807  -0.64084  -0.64055  -0.62018
 Alpha  occ. eigenvalues --   -0.61713  -0.60929  -0.60041  -0.59619  -0.59139
 Alpha  occ. eigenvalues --   -0.59009  -0.58633  -0.57439  -0.56516  -0.55953
 Alpha  occ. eigenvalues --   -0.55381  -0.54819  -0.54349  -0.54157  -0.53441
 Alpha  occ. eigenvalues --   -0.53142  -0.53082  -0.52755  -0.52502  -0.51901
 Alpha  occ. eigenvalues --   -0.51329  -0.51032  -0.50645  -0.50447  -0.49891
 Alpha  occ. eigenvalues --   -0.49517  -0.49282  -0.49007  -0.48569  -0.48365
 Alpha  occ. eigenvalues --   -0.48334  -0.47848  -0.47536  -0.47476  -0.47146
 Alpha  occ. eigenvalues --   -0.46600  -0.46320  -0.46176  -0.45431  -0.44999
 Alpha  occ. eigenvalues --   -0.44393  -0.43394  -0.43233  -0.43080  -0.42153
 Alpha  occ. eigenvalues --   -0.41587  -0.41431  -0.41297  -0.40317  -0.39863
 Alpha  occ. eigenvalues --   -0.39616  -0.39286  -0.38337  -0.37867  -0.37741
 Alpha  occ. eigenvalues --   -0.36851  -0.36306  -0.34987  -0.34547  -0.34326
 Alpha  occ. eigenvalues --   -0.33800  -0.32884  -0.32686  -0.32371  -0.31780
 Alpha  occ. eigenvalues --   -0.31222  -0.29796
 Alpha virt. eigenvalues --   -0.12875  -0.11351  -0.07773  -0.06858  -0.05955
 Alpha virt. eigenvalues --   -0.04735  -0.04623  -0.02865  -0.02483  -0.02129
 Alpha virt. eigenvalues --   -0.01377  -0.00337  -0.00147   0.00488   0.01727

 Mulliken charges:
               1
     1  N   -0.759431
     2  H    0.416313
     3  H    0.432926
     4  H    0.409012
     5  C   -0.102122
     6  H    0.206361
     7  C    0.647537
     8  C   -0.109598
     9  H    0.170883
    10  O   -0.545776
    11  C   -0.474418
    12  H    0.170873
    13  H    0.183996
    14  H    0.189022
    15  C   -0.476163
    16  H    0.178088
    17  H    0.140607
    18  H    0.203588
    19  N   -0.605518
    20  H    0.380945
    21  C   -0.059674
    22  H    0.198194
    23  C    0.630899
    24  C   -0.456980
    25  H    0.183875
    26  H    0.185321
    27  H    0.172669
    28  O   -0.547447
    29  N   -0.623697
    30  H    0.364543
    31  C   -0.069660
    32  H    0.191254
    33  C    0.606585
    34  C   -0.033511
    35  H    0.167466
    36  H    0.139223
    37  O   -0.541049
    38  O   -0.648777
    39  H    0.442290
    40  N   -0.598724
    41  H    0.347153
    42  C   -0.075662
    43  H    0.187582
    44  C    0.646091
    45  C   -0.279950
    46  H    0.147951
    47  H    0.156396
    48  O   -0.575835
    49  C   -0.096099
    50  H    0.149700
    51  C   -0.449892
    52  H    0.143349
    53  H    0.136354
    54  H    0.168043
    55  C   -0.446074
    56  H    0.142670
    57  H    0.145896
    58  H    0.158945
    59  N   -0.596569
    60  H    0.366993
    61  C   -0.089583
    62  H    0.196832
    63  C    0.608338
    64  C   -0.266975
    65  H    0.162549
    66  H    0.157362
    67  O   -0.608776
    68  C   -0.267482
    69  H    0.163449
    70  H    0.130967
    71  C   -0.140121
    72  H    0.148733
    73  H    0.195086
    74  N   -0.593006
    75  H    0.330405
    76  N   -0.737158
    77  H    0.297578
    78  H    0.473756
    79  N   -0.757744
    80  H    0.336346
    81  H    0.340437
    82  C    0.664630
    83  O   -0.482588
 Sum of Mulliken charges =   1.00000

 Dipole moment (field-independent basis, Debye):
    X=            -30.4230    Y=              7.3263    Z=             12.1090  Tot=             33.5538
 Quadrupole moment (field-independent basis, Debye-Ang):
   XX=             24.9746   YY=           -188.9264   ZZ=            -82.4638
   XY=            -19.3539   XZ=           -163.5625   YZ=            -37.9908

 Normal termination of Gaussian 16 at Thu Jun 30 14:28:43 2022.
