 Gaussian 16, Revision C.01,
 Gaussian 16:  ES64L-G16RevC.01  3-Jul-2019

 -------------------------------------------------------------------
 # B3LYP/6-31G* guess=read geom=check nosymm integral(ultrafinegrid)
 -------------------------------------------------------------------

 ------------------------------------------------------
 Candidate Structure: Conf:126 Charge calc in gas phase
 ------------------------------------------------------
 Structure from the checkpoint file:  "conf-126.chk"
 Charge =  1 Multiplicity = 1

                          Input orientation:
 ---------------------------------------------------------------------
 Center     Atomic      Atomic             Coordinates (Angstroms)
 Number     Number       Type             X           Y           Z
 ---------------------------------------------------------------------
      1          7           0       -3.339748    1.803030    3.721176
      2          1           0       -2.965556    2.663763    4.124762
      3          1           0       -3.200832    1.000178    4.359129
      4          1           0       -2.835477    1.557732    2.823874
      5          6           0       -4.834826    1.861220    3.475835
      6          1           0       -5.274963    2.184003    4.426940
      7          6           0       -5.160922    0.348746    3.300823
      8          6           0       -5.219554    2.858172    2.363474
      9          1           0       -5.028882    2.379387    1.394260
     10          8           0       -4.530297   -0.437850    4.007196
     11          6           0       -6.713702    3.219027    2.482192
     12          1           0       -6.894320    3.811530    3.386854
     13          1           0       -7.376042    2.348030    2.535025
     14          1           0       -7.024697    3.821213    1.623585
     15          6           0       -4.373630    4.143808    2.414543
     16          1           0       -4.437823    4.632847    3.395644
     17          1           0       -3.320528    3.962379    2.172674
     18          1           0       -4.746279    4.859003    1.675385
     19          7           0       -6.041538   -0.045479    2.360455
     20          1           0       -6.534520    0.638212    1.802868
     21          6           0       -6.168774   -1.471180    2.008256
     22          1           0       -6.309999   -2.037169    2.931637
     23          6           0       -4.856894   -2.028714    1.398058
     24          6           0       -7.358523   -1.684952    1.070530
     25          1           0       -7.425153   -2.745678    0.816726
     26          1           0       -8.295695   -1.386489    1.551450
     27          1           0       -7.240471   -1.122125    0.136740
     28          8           0       -4.580060   -3.209783    1.505339
     29          7           0       -4.093665   -1.118988    0.714201
     30          1           0       -4.327029   -0.140646    0.814017
     31          6           0       -2.692842   -1.348835    0.427597
     32          1           0       -2.381256   -2.259858    0.949955
     33          6           0       -1.889114   -0.148540    0.938864
     34          6           0       -2.437604   -1.578937   -1.095457
     35          1           0       -3.044844   -2.441390   -1.386330
     36          1           0       -2.792744   -0.705006   -1.658519
     37          8           0       -2.461995    0.895612    1.337995
     38          8           0       -1.082927   -1.868124   -1.368282
     39          1           0       -0.632565   -1.033939   -1.630116
     40          7           0       -0.559986   -0.288465    0.872776
     41          1           0       -0.257952   -1.123019    0.369223
     42          6           0        0.376825    0.830506    0.876205
     43          1           0       -0.108173    1.655341    1.402678
     44          6           0        0.622411    1.270197   -0.595062
     45          6           0        1.694566    0.444281    1.579058
     46          1           0        2.383812    1.295251    1.512554
     47          1           0        2.163266   -0.369419    1.008194
     48          8           0        0.211023    0.597513   -1.553306
     49          6           0        1.556445    0.014627    3.053387
     50          1           0        0.869687   -0.842570    3.093856
     51          6           0        2.920372   -0.446412    3.589385
     52          1           0        3.648052    0.374574    3.575717
     53          1           0        3.329370   -1.265276    2.986957
     54          1           0        2.836631   -0.801217    4.622500
     55          6           0        0.977300    1.129501    3.938148
     56          1           0        1.604314    2.029531    3.902647
     57          1           0       -0.036958    1.416752    3.628784
     58          1           0        0.922884    0.804342    4.983135
     59          7           0        1.312149    2.406608   -0.728942
     60          1           0        1.708588    2.914188    0.067356
     61          6           0        1.897816    2.898614   -1.974748
     62          1           0        2.299404    2.047043   -2.535113
     63          6           0        3.080174    3.820470   -1.517367
     64          6           0        0.817207    3.605770   -2.849853
     65          1           0        0.647100    4.621626   -2.467998
     66          1           0       -0.108150    3.050969   -2.671300
     67          8           0        3.911869    4.144406   -2.431499
     68          6           0        1.048038    3.627395   -4.385497
     69          1           0        1.761584    2.844171   -4.671597
     70          1           0        0.109124    3.369579   -4.888463
     71          6           0        1.509466    4.960524   -4.995096
     72          1           0        0.798188    5.760818   -4.749511
     73          1           0        1.536524    4.863685   -6.089080
     74          7           0        2.834209    5.302753   -4.480559
     75          1           0        3.271116    4.602107   -3.827768
     76          7           0        2.833793    7.582058   -4.990127
     77          1           0        3.207127    8.506351   -4.831499
     78          1           0        2.397254    7.419871   -5.885668
     79          7           0        4.247889    6.701519   -3.344964
     80          1           0        4.435437    5.893034   -2.726144
     81          1           0        4.836910    7.520070   -3.324346
     82          6           0        3.311727    6.527011   -4.285768
     83          8           0        3.107350    4.157247   -0.323888
 ---------------------------------------------------------------------

 SCF Done:  E(RB3LYP) =  -1868.03388790     A.U. after    2 cycles

 Alpha  occ. eigenvalues --  -19.25224 -19.24396 -19.21542 -19.20243 -19.20237
 Alpha  occ. eigenvalues --  -19.16009 -19.15246 -14.57004 -14.49519 -14.47652
 Alpha  occ. eigenvalues --  -14.46427 -14.45179 -14.44857 -14.44243 -14.42632
 Alpha  occ. eigenvalues --  -10.42686 -10.42337 -10.40359 -10.39317 -10.37668
 Alpha  occ. eigenvalues --  -10.36982 -10.33884 -10.33844 -10.33539 -10.32589
 Alpha  occ. eigenvalues --  -10.32354 -10.31594 -10.31514 -10.30720 -10.30449
 Alpha  occ. eigenvalues --  -10.28911 -10.28364 -10.27239 -10.27137 -10.27060
 Alpha  occ. eigenvalues --  -10.26266 -10.26012 -10.24244  -1.17915  -1.15218
 Alpha  occ. eigenvalues --   -1.12387  -1.11699  -1.11457  -1.11081  -1.09139
 Alpha  occ. eigenvalues --   -1.08835  -1.05659  -1.03231  -1.01402  -1.01271
 Alpha  occ. eigenvalues --   -1.00046  -0.99052  -0.98843  -0.94506  -0.89782
 Alpha  occ. eigenvalues --   -0.88441  -0.87126  -0.85471  -0.84456  -0.82959
 Alpha  occ. eigenvalues --   -0.81425  -0.80716  -0.76341  -0.75627  -0.75405
 Alpha  occ. eigenvalues --   -0.74343  -0.73086  -0.72999  -0.72789  -0.72212
 Alpha  occ. eigenvalues --   -0.71457  -0.69538  -0.68656  -0.68031  -0.67402
 Alpha  occ. eigenvalues --   -0.67206  -0.65706  -0.65055  -0.64859  -0.64186
 Alpha  occ. eigenvalues --   -0.63305  -0.62326  -0.61041  -0.59977  -0.59896
 Alpha  occ. eigenvalues --   -0.59458  -0.59104  -0.58451  -0.57196  -0.57042
 Alpha  occ. eigenvalues --   -0.56760  -0.55924  -0.55444  -0.55162  -0.54828
 Alpha  occ. eigenvalues --   -0.54420  -0.54190  -0.53671  -0.52939  -0.52634
 Alpha  occ. eigenvalues --   -0.52487  -0.51886  -0.51622  -0.51188  -0.50966
 Alpha  occ. eigenvalues --   -0.50699  -0.50596  -0.50256  -0.49545  -0.49055
 Alpha  occ. eigenvalues --   -0.48742  -0.48452  -0.48049  -0.47935  -0.47570
 Alpha  occ. eigenvalues --   -0.47315  -0.47216  -0.46801  -0.46569  -0.46500
 Alpha  occ. eigenvalues --   -0.46287  -0.45646  -0.45520  -0.44605  -0.44154
 Alpha  occ. eigenvalues --   -0.43413  -0.42812  -0.41973  -0.41169  -0.41010
 Alpha  occ. eigenvalues --   -0.40588  -0.40422  -0.40330  -0.39875  -0.39158
 Alpha  occ. eigenvalues --   -0.38351  -0.38207  -0.37413  -0.36398  -0.35025
 Alpha  occ. eigenvalues --   -0.34000  -0.33642  -0.33392  -0.33088  -0.31066
 Alpha  occ. eigenvalues --   -0.30491  -0.29605
 Alpha virt. eigenvalues --   -0.12490  -0.09870  -0.07636  -0.07081  -0.06627
 Alpha virt. eigenvalues --   -0.05923  -0.05093  -0.03602  -0.03313  -0.01232
 Alpha virt. eigenvalues --   -0.01213  -0.00766   0.00031   0.00181   0.01102

 Mulliken charges:
               1
     1  N   -0.785066
     2  H    0.400294
     3  H    0.420241
     4  H    0.459942
     5  C   -0.100882
     6  H    0.215354
     7  C    0.644883
     8  C   -0.111533
     9  H    0.166148
    10  O   -0.514292
    11  C   -0.475980
    12  H    0.175951
    13  H    0.158070
    14  H    0.187297
    15  C   -0.485582
    16  H    0.160630
    17  H    0.162689
    18  H    0.193092
    19  N   -0.640447
    20  H    0.353580
    21  C   -0.031340
    22  H    0.216368
    23  C    0.606533
    24  C   -0.488363
    25  H    0.211867
    26  H    0.176610
    27  H    0.158388
    28  O   -0.486781
    29  N   -0.603374
    30  H    0.330698
    31  C   -0.088355
    32  H    0.215166
    33  C    0.616810
    34  C   -0.031950
    35  H    0.181602
    36  H    0.139047
    37  O   -0.624846
    38  O   -0.644916
    39  H    0.446729
    40  N   -0.558258
    41  H    0.365768
    42  C   -0.096594
    43  H    0.169432
    44  C    0.639412
    45  C   -0.281294
    46  H    0.170784
    47  H    0.156223
    48  O   -0.573103
    49  C   -0.068417
    50  H    0.135811
    51  C   -0.448646
    52  H    0.155485
    53  H    0.155857
    54  H    0.154199
    55  C   -0.450976
    56  H    0.160556
    57  H    0.094704
    58  H    0.157749
    59  N   -0.610635
    60  H    0.362575
    61  C   -0.054940
    62  H    0.172280
    63  C    0.600102
    64  C   -0.273804
    65  H    0.142237
    66  H    0.167262
    67  O   -0.630902
    68  C   -0.305975
    69  H    0.172741
    70  H    0.160024
    71  C   -0.142836
    72  H    0.160975
    73  H    0.162674
    74  N   -0.613810
    75  H    0.415963
    76  N   -0.755361
    77  H    0.363715
    78  H    0.370990
    79  N   -0.777776
    80  H    0.418107
    81  H    0.351566
    82  C    0.770282
    83  O   -0.548427
 Sum of Mulliken charges =   1.00000

 Dipole moment (field-independent basis, Debye):
    X=            -12.5136    Y=             22.1908    Z=              0.5725  Tot=             25.4823
 Quadrupole moment (field-independent basis, Debye-Ang):
   XX=           -120.1664   YY=           -106.4884   ZZ=           -131.1067
   XY=             -3.2645   XZ=            -62.6831   YZ=            -52.0889

 Normal termination of Gaussian 16 at Thu Jun 30 14:15:57 2022.
