 Gaussian 16, Revision C.01,
 Gaussian 16:  ES64L-G16RevC.01  3-Jul-2019

 -------------------------------------------------------------------
 # B3LYP/6-31G* guess=read geom=check nosymm integral(ultrafinegrid)
 -------------------------------------------------------------------

 ------------------------------------------------------
 Candidate Structure: Conf:123 Charge calc in gas phase
 ------------------------------------------------------
 Structure from the checkpoint file:  "conf-123.chk"
 Charge =  1 Multiplicity = 1

                          Input orientation:
 ---------------------------------------------------------------------
 Center     Atomic      Atomic             Coordinates (Angstroms)
 Number     Number       Type             X           Y           Z
 ---------------------------------------------------------------------
      1          7           0       -7.675258   -2.012622    6.348640
      2          1           0       -7.441740   -2.921524    6.759417
      3          1           0       -7.026998   -1.281185    6.763280
      4          1           0       -8.657714   -1.808564    6.549326
      5          6           0       -7.338764   -1.923625    4.869214
      6          1           0       -7.301656   -2.939880    4.467187
      7          6           0       -5.927252   -1.266523    4.917604
      8          6           0       -8.414043   -1.086591    4.127157
      9          1           0       -8.413757   -0.085131    4.581440
     10          8           0       -5.636434   -0.636542    5.947329
     11          6           0       -8.067236   -0.940124    2.635494
     12          1           0       -8.013884   -1.918129    2.141008
     13          1           0       -7.123034   -0.416878    2.469255
     14          1           0       -8.853665   -0.365998    2.137411
     15          6           0       -9.815667   -1.707778    4.276164
     16          1           0       -9.846497   -2.724180    3.866299
     17          1           0      -10.185516   -1.748391    5.309997
     18          1           0      -10.542748   -1.105347    3.724248
     19          7           0       -5.131623   -1.435300    3.869468
     20          1           0       -5.430254   -1.906672    3.012829
     21          6           0       -3.805991   -0.825670    3.734678
     22          1           0       -3.872998    0.226421    4.033973
     23          6           0       -3.489891   -0.916997    2.223909
     24          6           0       -2.753466   -1.537995    4.600613
     25          1           0       -1.773904   -1.063460    4.490273
     26          1           0       -3.039066   -1.478863    5.653904
     27          1           0       -2.660745   -2.589552    4.311147
     28          8           0       -4.248330   -1.533223    1.465412
     29          7           0       -2.365923   -0.299474    1.831987
     30          1           0       -1.688201    0.081265    2.498241
     31          6           0       -1.769152   -0.468178    0.517331
     32          1           0       -1.870840   -1.516561    0.205126
     33          6           0       -0.267785   -0.116340    0.717078
     34          6           0       -2.478308    0.415903   -0.534001
     35          1           0       -3.560348    0.352468   -0.375483
     36          1           0       -2.167441    1.458318   -0.428125
     37          8           0        0.118130    0.248738    1.832637
     38          8           0       -2.150734    0.033797   -1.876878
     39          1           0       -2.583223   -0.815399   -2.063778
     40          7           0        0.508443   -0.228064   -0.364707
     41          1           0        0.127373   -0.506297   -1.264209
     42          6           0        1.940431    0.092831   -0.388188
     43          1           0        2.114890    0.899224    0.327166
     44          6           0        2.235243    0.559742   -1.824257
     45          6           0        2.774208   -1.152050   -0.003172
     46          1           0        2.531817   -1.945711   -0.722430
     47          1           0        2.412951   -1.485311    0.979363
     48          8           0        1.619388   -0.025368   -2.759134
     49          6           0        4.304590   -0.968825    0.061302
     50          1           0        4.657038   -0.652289   -0.929812
     51          6           0        4.740326    0.095595    1.081799
     52          1           0        4.296381   -0.098125    2.067502
     53          1           0        4.475560    1.112242    0.774146
     54          1           0        5.829324    0.083751    1.200180
     55          6           0        4.957843   -2.324164    0.376561
     56          1           0        4.658035   -2.684556    1.369546
     57          1           0        4.676017   -3.089390   -0.356974
     58          1           0        6.050004   -2.240011    0.370849
     59          7           0        3.118576    1.528585   -1.932646
     60          1           0        3.556150    2.007826   -1.103847
     61          6           0        3.780569    2.163007   -3.076376
     62          1           0        4.487503    1.449717   -3.522041
     63          6           0        4.650619    3.331508   -2.399570
     64          6           0        2.864396    2.726443   -4.165812
     65          1           0        3.415247    3.570471   -4.595675
     66          1           0        1.965877    3.137547   -3.685143
     67          8           0        5.170768    4.123684   -3.193570
     68          6           0        2.489544    1.715792   -5.258845
     69          1           0        3.366014    1.520085   -5.890495
     70          1           0        2.232151    0.752917   -4.810646
     71          6           0        1.374470    2.173178   -6.210393
     72          1           0        1.021213    1.334363   -6.821334
     73          1           0        1.750196    2.938852   -6.893993
     74          7           0        0.191232    2.807442   -5.579318
     75          1           0        0.046626    3.786586   -5.783783
     76          7           0       -0.439515    1.123593   -4.076067
     77          1           0       -1.150273    0.780313   -3.432412
     78          1           0        0.510200    0.782629   -3.832015
     79          7           0       -1.814190    2.954059   -4.450057
     80          1           0       -2.214181    3.547497   -5.162571
     81          1           0       -2.449152    2.599387   -3.749980
     82          6           0       -0.662798    2.273694   -4.700551
     83          8           0        4.676189    3.271115   -1.135626
 ---------------------------------------------------------------------

 SCF Done:  E(RB3LYP) =  -1867.97435784     A.U. after    2 cycles

 Alpha  occ. eigenvalues --  -19.28326 -19.28072 -19.24009 -19.20334 -19.17408
 Alpha  occ. eigenvalues --  -19.07912 -19.06627 -14.61250 -14.50829 -14.48355
 Alpha  occ. eigenvalues --  -14.47766 -14.46918 -14.45507 -14.43713 -14.38968
 Alpha  occ. eigenvalues --  -10.44937 -10.43743 -10.42079 -10.40857 -10.37567
 Alpha  occ. eigenvalues --  -10.36285 -10.36097 -10.35134 -10.33981 -10.33848
 Alpha  occ. eigenvalues --  -10.32689 -10.31522 -10.30958 -10.29565 -10.28937
 Alpha  occ. eigenvalues --  -10.25685 -10.23814 -10.23637 -10.23511 -10.22827
 Alpha  occ. eigenvalues --  -10.21783 -10.21003 -10.20105  -1.20581  -1.15897
 Alpha  occ. eigenvalues --   -1.15067  -1.14777  -1.12217  -1.12200  -1.08162
 Alpha  occ. eigenvalues --   -1.07379  -1.03659  -1.01644  -1.01036  -1.00154
 Alpha  occ. eigenvalues --   -0.99836  -0.96686  -0.95751  -0.92210  -0.90873
 Alpha  occ. eigenvalues --   -0.87594  -0.86123  -0.85390  -0.84742  -0.83011
 Alpha  occ. eigenvalues --   -0.80541  -0.78884  -0.78737  -0.76771  -0.76155
 Alpha  occ. eigenvalues --   -0.75096  -0.74881  -0.72374  -0.71707  -0.71640
 Alpha  occ. eigenvalues --   -0.71374  -0.70691  -0.69397  -0.69168  -0.68075
 Alpha  occ. eigenvalues --   -0.67376  -0.65594  -0.65180  -0.64504  -0.63680
 Alpha  occ. eigenvalues --   -0.61955  -0.61160  -0.61063  -0.60781  -0.60109
 Alpha  occ. eigenvalues --   -0.59767  -0.59382  -0.58791  -0.58373  -0.57984
 Alpha  occ. eigenvalues --   -0.56777  -0.56261  -0.55675  -0.55539  -0.54632
 Alpha  occ. eigenvalues --   -0.54370  -0.53906  -0.53643  -0.53307  -0.52464
 Alpha  occ. eigenvalues --   -0.52182  -0.52047  -0.51584  -0.51306  -0.50287
 Alpha  occ. eigenvalues --   -0.50011  -0.49692  -0.49458  -0.49040  -0.48851
 Alpha  occ. eigenvalues --   -0.48600  -0.48526  -0.48129  -0.47800  -0.47001
 Alpha  occ. eigenvalues --   -0.46524  -0.46324  -0.45394  -0.45205  -0.44261
 Alpha  occ. eigenvalues --   -0.43754  -0.42643  -0.42571  -0.41773  -0.41289
 Alpha  occ. eigenvalues --   -0.41173  -0.40493  -0.40123  -0.39816  -0.39004
 Alpha  occ. eigenvalues --   -0.38571  -0.38103  -0.37640  -0.37450  -0.37089
 Alpha  occ. eigenvalues --   -0.36782  -0.36392  -0.36256  -0.35763  -0.35070
 Alpha  occ. eigenvalues --   -0.34545  -0.32956  -0.31375  -0.29908  -0.22917
 Alpha  occ. eigenvalues --   -0.22804  -0.20990
 Alpha virt. eigenvalues --   -0.13987  -0.12236  -0.09586  -0.08590  -0.07773
 Alpha virt. eigenvalues --   -0.06750  -0.05836  -0.05366  -0.03789  -0.03146
 Alpha virt. eigenvalues --   -0.02883  -0.02437  -0.01153  -0.01100  -0.00509

 Mulliken charges:
               1
     1  N   -0.758442
     2  H    0.418233
     3  H    0.434554
     4  H    0.410785
     5  C   -0.102465
     6  H    0.206142
     7  C    0.650164
     8  C   -0.109353
     9  H    0.173479
    10  O   -0.540633
    11  C   -0.474222
    12  H    0.168597
    13  H    0.179487
    14  H    0.189833
    15  C   -0.476427
    16  H    0.178339
    17  H    0.143487
    18  H    0.204262
    19  N   -0.607843
    20  H    0.376802
    21  C   -0.056893
    22  H    0.203734
    23  C    0.624534
    24  C   -0.462525
    25  H    0.192953
    26  H    0.190008
    27  H    0.171367
    28  O   -0.555704
    29  N   -0.627179
    30  H    0.378784
    31  C   -0.070634
    32  H    0.179834
    33  C    0.620250
    34  C   -0.052190
    35  H    0.170905
    36  H    0.179452
    37  O   -0.541765
    38  O   -0.631115
    39  H    0.419657
    40  N   -0.614071
    41  H    0.346546
    42  C   -0.048409
    43  H    0.191929
    44  C    0.608620
    45  C   -0.252749
    46  H    0.138327
    47  H    0.144556
    48  O   -0.628836
    49  C   -0.081718
    50  H    0.146378
    51  C   -0.466503
    52  H    0.133151
    53  H    0.181816
    54  H    0.157084
    55  C   -0.444349
    56  H    0.136440
    57  H    0.137770
    58  H    0.154654
    59  N   -0.614386
    60  H    0.394322
    61  C   -0.067740
    62  H    0.155283
    63  C    0.588641
    64  C   -0.270626
    65  H    0.191712
    66  H    0.109106
    67  O   -0.567882
    68  C   -0.318807
    69  H    0.165793
    70  H    0.180645
    71  C   -0.149471
    72  H    0.178736
    73  H    0.176873
    74  N   -0.596875
    75  H    0.361277
    76  N   -0.810182
    77  H    0.384846
    78  H    0.449150
    79  N   -0.764244
    80  H    0.365476
    81  H    0.363351
    82  C    0.771568
    83  O   -0.615454
 Sum of Mulliken charges =   1.00000

 Dipole moment (field-independent basis, Debye):
    X=            -46.3129    Y=            -11.3225    Z=             12.4493  Tot=             49.2755
 Quadrupole moment (field-independent basis, Debye-Ang):
   XX=            -24.5209   YY=           -223.6617   ZZ=            -41.0671
   XY=              0.4875   XZ=           -132.9198   YZ=            -70.9156

 Normal termination of Gaussian 16 at Thu Jun 30 14:15:51 2022.
