 Gaussian 16, Revision C.01,
 Gaussian 16:  ES64L-G16RevC.01  3-Jul-2019

 -------------------------------------------------------------------
 # B3LYP/6-31G* guess=read geom=check nosymm integral(ultrafinegrid)
 -------------------------------------------------------------------

 ------------------------------------------------------
 Candidate Structure: Conf:771 Charge calc in gas phase
 ------------------------------------------------------
 Structure from the checkpoint file:  "conf-771.chk"
 Charge =  1 Multiplicity = 1

                          Input orientation:
 ---------------------------------------------------------------------
 Center     Atomic      Atomic             Coordinates (Angstroms)
 Number     Number       Type             X           Y           Z
 ---------------------------------------------------------------------
      1          7           0       -5.780208    1.965125    3.468819
      2          1           0       -6.388862    2.761916    3.667389
      3          1           0       -4.992635    1.931337    4.133877
      4          1           0       -5.324251    2.069595    2.508624
      5          6           0       -6.493467    0.634420    3.601948
      6          1           0       -6.883478    0.610947    4.626519
      7          6           0       -5.294550   -0.351789    3.526396
      8          6           0       -7.660407    0.480265    2.603294
      9          1           0       -7.242049    0.207129    1.624244
     10          8           0       -4.242183    0.013397    4.061627
     11          6           0       -8.611378   -0.634690    3.084185
     12          1           0       -9.135954   -0.322449    3.994808
     13          1           0       -8.104192   -1.577747    3.313401
     14          1           0       -9.366058   -0.839547    2.319531
     15          6           0       -8.452540    1.788240    2.420501
     16          1           0       -8.829200    2.169943    3.378637
     17          1           0       -7.867848    2.573917    1.928233
     18          1           0       -9.323680    1.603934    1.785265
     19          7           0       -5.426904   -1.503011    2.846257
     20          1           0       -6.281272   -1.682715    2.334621
     21          6           0       -4.243536   -2.289770    2.425155
     22          1           0       -3.502739   -2.181944    3.220095
     23          6           0       -3.759471   -1.601722    1.123235
     24          6           0       -4.609783   -3.750192    2.205927
     25          1           0       -3.714290   -4.317902    1.938548
     26          1           0       -5.035002   -4.180784    3.116946
     27          1           0       -5.319052   -3.854785    1.379671
     28          8           0       -4.119032   -1.984910    0.019085
     29          7           0       -3.007297   -0.477893    1.324217
     30          1           0       -2.876829   -0.144452    2.273805
     31          6           0       -2.801980    0.478715    0.237696
     32          1           0       -2.657923   -0.095791   -0.681031
     33          6           0       -1.571640    1.331083    0.580952
     34          6           0       -4.032171    1.394528    0.047177
     35          1           0       -3.872445    2.057053   -0.813492
     36          1           0       -4.913900    0.780374   -0.152333
     37          8           0       -1.682327    2.220402    1.451302
     38          8           0       -4.292848    2.183108    1.219368
     39          1           0       -3.388464    2.489090    1.505069
     40          7           0       -0.441661    1.050584   -0.067509
     41          1           0       -0.436645    0.405738   -0.857833
     42          6           0        0.808378    1.801200    0.040198
     43          1           0        0.570309    2.819924    0.359328
     44          6           0        1.393748    1.795641   -1.391032
     45          6           0        1.814744    1.143970    1.015038
     46          1           0        2.771077    1.675597    0.917657
     47          1           0        1.993806    0.120699    0.659178
     48          8           0        1.025803    0.942025   -2.202601
     49          6           0        1.412019    1.112793    2.502586
     50          1           0        0.422599    0.639791    2.580285
     51          6           0        2.410585    0.243254    3.283090
     52          1           0        3.422018    0.666064    3.234981
     53          1           0        2.456471   -0.776596    2.883222
     54          1           0        2.130038    0.178198    4.340394
     55          6           0        1.318422    2.518847    3.113338
     56          1           0        2.274554    3.050530    3.022098
     57          1           0        0.537801    3.119904    2.637062
     58          1           0        1.078028    2.458340    4.181062
     59          7           0        2.324951    2.730585   -1.644595
     60          1           0        2.606221    3.411485   -0.944549
     61          6           0        3.104278    2.790630   -2.875554
     62          1           0        3.341021    1.774501   -3.200994
     63          6           0        4.394947    3.544075   -2.555317
     64          6           0        2.318847    3.518601   -4.009839
     65          1           0        1.832193    4.397641   -3.566282
     66          1           0        1.518706    2.838967   -4.319212
     67          8           0        5.356365    3.245427   -3.405821
     68          6           0        3.163832    3.950499   -5.229021
     69          1           0        3.966195    3.229297   -5.406465
     70          1           0        2.527446    3.948876   -6.123136
     71          6           0        3.770662    5.362335   -5.054591
     72          1           0        4.143698    5.521034   -4.042012
     73          1           0        2.982640    6.110677   -5.212663
     74          7           0        4.872717    5.672633   -5.956969
     75          1           0        4.680078    5.651596   -6.949186
     76          7           0        6.609686    5.255489   -4.445559
     77          1           0        7.592168    5.464616   -4.287544
     78          1           0        5.959676    4.070550   -3.633525
     79          7           0        7.026434    6.115108   -6.626554
     80          1           0        6.693886    6.910084   -7.159166
     81          1           0        8.009010    6.177070   -6.395804
     82          6           0        6.196385    5.665306   -5.607743
     83          8           0        4.440621    4.373654   -1.658783
 ---------------------------------------------------------------------

 SCF Done:  E(RB3LYP) =  -1868.02748135     A.U. after    1 cycles

 Alpha  occ. eigenvalues --  -19.27023 -19.26243 -19.22689 -19.22167 -19.20705
 Alpha  occ. eigenvalues --  -19.19081 -19.18065 -14.57587 -14.50449 -14.46557
 Alpha  occ. eigenvalues --  -14.45895 -14.42928 -14.42000 -14.41917 -14.36570
 Alpha  occ. eigenvalues --  -10.43716 -10.40025 -10.39537 -10.39277 -10.36262
 Alpha  occ. eigenvalues --  -10.36213 -10.36008 -10.34938 -10.34878 -10.34540
 Alpha  occ. eigenvalues --  -10.34169 -10.31550 -10.31200 -10.30689 -10.29199
 Alpha  occ. eigenvalues --  -10.28005 -10.27957 -10.26044 -10.25653 -10.25156
 Alpha  occ. eigenvalues --  -10.24364 -10.23365 -10.23239  -1.18760  -1.15268
 Alpha  occ. eigenvalues --   -1.14064  -1.13098  -1.12929  -1.11899  -1.10883
 Alpha  occ. eigenvalues --   -1.06473  -1.05173  -1.04688  -1.02937  -1.02081
 Alpha  occ. eigenvalues --   -0.99408  -0.95751  -0.95098  -0.91577  -0.89535
 Alpha  occ. eigenvalues --   -0.88378  -0.86198  -0.85644  -0.84992  -0.82617
 Alpha  occ. eigenvalues --   -0.81797  -0.79472  -0.77466  -0.75037  -0.74255
 Alpha  occ. eigenvalues --   -0.73840  -0.73568  -0.73165  -0.72795  -0.72095
 Alpha  occ. eigenvalues --   -0.68966  -0.68759  -0.68547  -0.67833  -0.66552
 Alpha  occ. eigenvalues --   -0.65884  -0.65732  -0.64092  -0.63666  -0.62976
 Alpha  occ. eigenvalues --   -0.62746  -0.61274  -0.60978  -0.60383  -0.59724
 Alpha  occ. eigenvalues --   -0.59369  -0.58340  -0.57651  -0.56887  -0.56870
 Alpha  occ. eigenvalues --   -0.56175  -0.55753  -0.54931  -0.54806  -0.54281
 Alpha  occ. eigenvalues --   -0.53925  -0.53364  -0.53104  -0.52857  -0.52286
 Alpha  occ. eigenvalues --   -0.52110  -0.51644  -0.51202  -0.51136  -0.50941
 Alpha  occ. eigenvalues --   -0.50558  -0.50041  -0.49738  -0.49136  -0.48694
 Alpha  occ. eigenvalues --   -0.48577  -0.48469  -0.48342  -0.47683  -0.47594
 Alpha  occ. eigenvalues --   -0.47325  -0.47009  -0.46762  -0.46655  -0.46295
 Alpha  occ. eigenvalues --   -0.45968  -0.45239  -0.45075  -0.44345  -0.43628
 Alpha  occ. eigenvalues --   -0.42759  -0.42456  -0.40826  -0.40771  -0.40271
 Alpha  occ. eigenvalues --   -0.40095  -0.40017  -0.39850  -0.39492  -0.39134
 Alpha  occ. eigenvalues --   -0.38946  -0.37386  -0.35671  -0.35530  -0.34953
 Alpha  occ. eigenvalues --   -0.34839  -0.34424  -0.33286  -0.32603  -0.32245
 Alpha  occ. eigenvalues --   -0.31186  -0.29774
 Alpha virt. eigenvalues --   -0.13737  -0.08948  -0.08428  -0.07464  -0.05057
 Alpha virt. eigenvalues --   -0.04983  -0.03593  -0.03491  -0.02484  -0.02023
 Alpha virt. eigenvalues --   -0.01505   0.00037   0.00086   0.00590   0.01053

 Mulliken charges:
               1
     1  N   -0.780092
     2  H    0.402309
     3  H    0.418141
     4  H    0.455359
     5  C   -0.101806
     6  H    0.219776
     7  C    0.647198
     8  C   -0.117291
     9  H    0.162350
    10  O   -0.537037
    11  C   -0.475353
    12  H    0.176965
    13  H    0.162724
    14  H    0.191759
    15  C   -0.488695
    16  H    0.164805
    17  H    0.160977
    18  H    0.200015
    19  N   -0.596602
    20  H    0.359872
    21  C   -0.076477
    22  H    0.202202
    23  C    0.615663
    24  C   -0.464239
    25  H    0.191416
    26  H    0.171400
    27  H    0.181514
    28  O   -0.502520
    29  N   -0.613092
    30  H    0.365110
    31  C   -0.082227
    32  H    0.202543
    33  C    0.635751
    34  C   -0.046000
    35  H    0.171765
    36  H    0.170803
    37  O   -0.577252
    38  O   -0.690890
    39  H    0.444094
    40  N   -0.585692
    41  H    0.368788
    42  C   -0.083697
    43  H    0.182803
    44  C    0.627225
    45  C   -0.255145
    46  H    0.154364
    47  H    0.151645
    48  O   -0.545147
    49  C   -0.068311
    50  H    0.120343
    51  C   -0.446353
    52  H    0.152409
    53  H    0.144813
    54  H    0.147992
    55  C   -0.459718
    56  H    0.145779
    57  H    0.160520
    58  H    0.145980
    59  N   -0.618231
    60  H    0.353878
    61  C   -0.013902
    62  H    0.189734
    63  C    0.581837
    64  C   -0.281901
    65  H    0.143966
    66  H    0.172157
    67  O   -0.608500
    68  C   -0.277334
    69  H    0.179554
    70  H    0.137093
    71  C   -0.155485
    72  H    0.201095
    73  H    0.151630
    74  N   -0.602870
    75  H    0.331839
    76  N   -0.749339
    77  H    0.299230
    78  H    0.467053
    79  N   -0.759224
    80  H    0.337987
    81  H    0.338942
    82  C    0.700761
    83  O   -0.503509
 Sum of Mulliken charges =   1.00000

 Dipole moment (field-independent basis, Debye):
    X=            -18.5814    Y=             10.4110    Z=              4.4621  Tot=             21.7616
 Quadrupole moment (field-independent basis, Debye-Ang):
   XX=            -10.1772   YY=           -161.0481   ZZ=           -128.9305
   XY=             23.1858   XZ=           -127.5704   YZ=            -52.3985

 Normal termination of Gaussian 16 at Thu Jun 30 14:28:43 2022.
