 Gaussian 16, Revision C.01,
 Gaussian 16:  ES64L-G16RevC.01  3-Jul-2019

 -------------------------------------------------------------------
 # B3LYP/6-31G* guess=read geom=check nosymm integral(ultrafinegrid)
 -------------------------------------------------------------------

 ------------------------------------------------------
 Candidate Structure: Conf:879 Charge calc in gas phase
 ------------------------------------------------------
 Structure from the checkpoint file:  "conf-879.chk"
 Charge =  1 Multiplicity = 1

                          Input orientation:
 ---------------------------------------------------------------------
 Center     Atomic      Atomic             Coordinates (Angstroms)
 Number     Number       Type             X           Y           Z
 ---------------------------------------------------------------------
      1          7           0       -7.459028   -2.638117    2.359519
      2          1           0       -7.015033   -3.505603    2.044568
      3          1           0       -7.349109   -2.566195    3.414500
      4          1           0       -8.442605   -2.655623    2.078401
      5          6           0       -6.728389   -1.390719    1.890388
      6          1           0       -6.127000   -1.656396    1.016648
      7          6           0       -5.839451   -1.076089    3.130346
      8          6           0       -7.747343   -0.277999    1.527190
      9          1           0       -8.324693   -0.059146    2.437293
     10          8           0       -6.196249   -1.562546    4.216765
     11          6           0       -7.029238    1.010031    1.087759
     12          1           0       -6.403525    0.836316    0.203535
     13          1           0       -6.402924    1.439268    1.872539
     14          1           0       -7.774854    1.762507    0.815669
     15          6           0       -8.711347   -0.737735    0.417111
     16          1           0       -8.167761   -0.999828   -0.498218
     17          1           0       -9.344548   -1.592958    0.691613
     18          1           0       -9.400028    0.075795    0.172101
     19          7           0       -4.763304   -0.327891    2.935561
     20          1           0       -4.554273    0.121580    2.039472
     21          6           0       -3.881766    0.156313    4.000995
     22          1           0       -4.501911    0.506943    4.833960
     23          6           0       -3.145078    1.356615    3.358333
     24          6           0       -2.924235   -0.937094    4.499510
     25          1           0       -2.297485   -0.561059    5.313808
     26          1           0       -3.497626   -1.784685    4.884048
     27          1           0       -2.269552   -1.280355    3.692439
     28          8           0       -3.333039    1.621150    2.163976
     29          7           0       -2.331253    2.054078    4.161369
     30          1           0       -2.149396    1.780045    5.122912
     31          6           0       -1.512116    3.180160    3.703817
     32          1           0       -2.078205    3.726256    2.943387
     33          6           0       -0.182927    2.647957    3.113545
     34          6           0       -1.227948    4.059118    4.932294
     35          1           0       -0.536730    4.864384    4.652340
     36          1           0       -2.159251    4.509923    5.288330
     37          8           0        0.833693    2.587913    3.817573
     38          8           0       -0.718206    3.262682    5.988922
     39          1           0        0.143822    2.944350    5.648748
     40          7           0       -0.249233    2.239473    1.835582
     41          1           0       -1.088468    2.403294    1.282336
     42          6           0        0.887541    1.766582    1.053948
     43          1           0        1.798445    2.185914    1.490154
     44          6           0        0.669867    2.311559   -0.375411
     45          6           0        0.976500    0.222121    1.003287
     46          1           0        1.765284   -0.048741    0.288143
     47          1           0        0.032663   -0.143531    0.575254
     48          8           0       -0.465034    2.619413   -0.756325
     49          6           0        1.249941   -0.493386    2.340813
     50          1           0        0.498385   -0.156173    3.069347
     51          6           0        1.081350   -2.010131    2.156108
     52          1           0        1.807410   -2.401532    1.432336
     53          1           0        0.079000   -2.264147    1.786932
     54          1           0        1.239132   -2.542235    3.101464
     55          6           0        2.638217   -0.164197    2.908751
     56          1           0        3.427654   -0.429678    2.193465
     57          1           0        2.730007    0.896999    3.156205
     58          1           0        2.822713   -0.730946    3.828886
     59          7           0        1.772086    2.374870   -1.138464
     60          1           0        2.688029    2.065565   -0.813375
     61          6           0        1.781058    2.685836   -2.564299
     62          1           0        0.910831    2.219684   -3.037821
     63          6           0        3.090012    2.047995   -3.122230
     64          6           0        1.690631    4.231037   -2.755398
     65          1           0        2.642237    4.679864   -2.439227
     66          1           0        0.938190    4.561616   -2.033289
     67          8           0        3.998916    1.811207   -2.312865
     68          6           0        1.265615    4.774925   -4.143816
     69          1           0        0.701846    4.012148   -4.696683
     70          1           0        0.569434    5.608853   -3.995561
     71          6           0        2.387918    5.313372   -5.047160
     72          1           0        2.977096    6.065832   -4.506599
     73          1           0        1.943402    5.803448   -5.923889
     74          7           0        3.256894    4.215343   -5.471489
     75          1           0        2.925271    3.256773   -5.207504
     76          7           0        5.226651    5.438618   -5.771104
     77          1           0        6.225111    5.443044   -5.920002
     78          1           0        4.717137    6.208968   -6.178560
     79          7           0        5.261430    3.111827   -5.472313
     80          1           0        4.741534    2.322760   -5.032404
     81          1           0        6.266567    3.086618   -5.553109
     82          6           0        4.583694    4.259477   -5.575974
     83          8           0        3.120929    1.852832   -4.389634
 ---------------------------------------------------------------------

 SCF Done:  E(RB3LYP) =  -1868.02124202     A.U. after    1 cycles

 Alpha  occ. eigenvalues --  -19.26950 -19.22456 -19.20717 -19.18791 -19.16397
 Alpha  occ. eigenvalues --  -19.13851 -19.13093 -14.60116 -14.49503 -14.46135
 Alpha  occ. eigenvalues --  -14.46040 -14.43292 -14.42688 -14.42299 -14.39796
 Alpha  occ. eigenvalues --  -10.43737 -10.40877 -10.40707 -10.39409 -10.35841
 Alpha  occ. eigenvalues --  -10.35148 -10.34877 -10.33462 -10.31576 -10.31297
 Alpha  occ. eigenvalues --  -10.31282 -10.30495 -10.30040 -10.29895 -10.28793
 Alpha  occ. eigenvalues --  -10.28643 -10.26495 -10.25351 -10.24248 -10.24175
 Alpha  occ. eigenvalues --  -10.23988 -10.22778 -10.21479  -1.19416  -1.14492
 Alpha  occ. eigenvalues --   -1.13843  -1.10754  -1.09488  -1.08335  -1.07898
 Alpha  occ. eigenvalues --   -1.06657  -1.06147  -1.02187  -0.99291  -0.98712
 Alpha  occ. eigenvalues --   -0.97920  -0.97329  -0.96158  -0.95449  -0.89573
 Alpha  occ. eigenvalues --   -0.86577  -0.85769  -0.85112  -0.83473  -0.81693
 Alpha  occ. eigenvalues --   -0.80919  -0.78448  -0.77509  -0.75142  -0.74005
 Alpha  occ. eigenvalues --   -0.73298  -0.72976  -0.72678  -0.71841  -0.71114
 Alpha  occ. eigenvalues --   -0.70458  -0.69756  -0.68463  -0.66841  -0.66273
 Alpha  occ. eigenvalues --   -0.65596  -0.64561  -0.63933  -0.63171  -0.62502
 Alpha  occ. eigenvalues --   -0.62005  -0.61046  -0.60125  -0.59120  -0.58581
 Alpha  occ. eigenvalues --   -0.58026  -0.57660  -0.57346  -0.57251  -0.56532
 Alpha  occ. eigenvalues --   -0.55389  -0.54866  -0.54582  -0.53718  -0.53493
 Alpha  occ. eigenvalues --   -0.53237  -0.53086  -0.52499  -0.52312  -0.51783
 Alpha  occ. eigenvalues --   -0.51168  -0.50737  -0.50168  -0.49679  -0.49482
 Alpha  occ. eigenvalues --   -0.49209  -0.48958  -0.48721  -0.48498  -0.48293
 Alpha  occ. eigenvalues --   -0.48187  -0.47676  -0.47491  -0.47308  -0.46671
 Alpha  occ. eigenvalues --   -0.46200  -0.45973  -0.45677  -0.44928  -0.44595
 Alpha  occ. eigenvalues --   -0.43873  -0.43512  -0.43129  -0.42867  -0.41515
 Alpha  occ. eigenvalues --   -0.41470  -0.41305  -0.40550  -0.40283  -0.39802
 Alpha  occ. eigenvalues --   -0.39464  -0.38752  -0.37861  -0.37618  -0.37458
 Alpha  occ. eigenvalues --   -0.37040  -0.36645  -0.36432  -0.34127  -0.33209
 Alpha  occ. eigenvalues --   -0.32237  -0.31647  -0.30580  -0.30343  -0.29033
 Alpha  occ. eigenvalues --   -0.28006  -0.27312
 Alpha virt. eigenvalues --   -0.12781  -0.11214  -0.08191  -0.06730  -0.05357
 Alpha virt. eigenvalues --   -0.04932  -0.04470  -0.02312  -0.02207  -0.02035
 Alpha virt. eigenvalues --   -0.01254  -0.00629   0.00532   0.00615   0.01451

 Mulliken charges:
               1
     1  N   -0.759378
     2  H    0.416538
     3  H    0.433157
     4  H    0.409281
     5  C   -0.102567
     6  H    0.207444
     7  C    0.647906
     8  C   -0.109910
     9  H    0.171194
    10  O   -0.544703
    11  C   -0.475119
    12  H    0.172510
    13  H    0.183852
    14  H    0.189054
    15  C   -0.475787
    16  H    0.178390
    17  H    0.140096
    18  H    0.203478
    19  N   -0.606110
    20  H    0.383224
    21  C   -0.058991
    22  H    0.201484
    23  C    0.639183
    24  C   -0.460927
    25  H    0.178736
    26  H    0.187212
    27  H    0.180388
    28  O   -0.549591
    29  N   -0.603245
    30  H    0.359603
    31  C   -0.093266
    32  H    0.183733
    33  C    0.638034
    34  C   -0.051493
    35  H    0.162649
    36  H    0.157535
    37  O   -0.549097
    38  O   -0.638596
    39  H    0.426287
    40  N   -0.598993
    41  H    0.367999
    42  C   -0.073517
    43  H    0.182286
    44  C    0.621488
    45  C   -0.252109
    46  H    0.155163
    47  H    0.131496
    48  O   -0.562154
    49  C   -0.067808
    50  H    0.117641
    51  C   -0.444591
    52  H    0.153410
    53  H    0.121424
    54  H    0.144256
    55  C   -0.460504
    56  H    0.143404
    57  H    0.175546
    58  H    0.142630
    59  N   -0.614182
    60  H    0.356305
    61  C   -0.040343
    62  H    0.162336
    63  C    0.589483
    64  C   -0.272051
    65  H    0.142015
    66  H    0.171904
    67  O   -0.549651
    68  C   -0.304211
    69  H    0.167329
    70  H    0.156362
    71  C   -0.145494
    72  H    0.160190
    73  H    0.160297
    74  N   -0.610795
    75  H    0.409256
    76  N   -0.754669
    77  H    0.361268
    78  H    0.368365
    79  N   -0.770460
    80  H    0.418034
    81  H    0.347231
    82  C    0.766886
    83  O   -0.644661
 Sum of Mulliken charges =   1.00000

 Dipole moment (field-independent basis, Debye):
    X=            -21.6741    Y=              2.3235    Z=             -0.5499  Tot=             21.8052
 Quadrupole moment (field-independent basis, Debye-Ang):
   XX=             32.1609   YY=           -134.3130   ZZ=           -158.1727
   XY=            104.0771   XZ=           -106.2359   YZ=            -77.7567

 Normal termination of Gaussian 16 at Thu Jun 30 14:28:40 2022.
