 Gaussian 16, Revision C.01,
 Gaussian 16:  ES64L-G16RevC.01  3-Jul-2019

 -------------------------------------------------------------------
 # B3LYP/6-31G* guess=read geom=check nosymm integral(ultrafinegrid)
 -------------------------------------------------------------------

 ------------------------------------------------------
 Candidate Structure: Conf:586 Charge calc in gas phase
 ------------------------------------------------------
 Structure from the checkpoint file:  "conf-586.chk"
 Charge =  1 Multiplicity = 1

                          Input orientation:
 ---------------------------------------------------------------------
 Center     Atomic      Atomic             Coordinates (Angstroms)
 Number     Number       Type             X           Y           Z
 ---------------------------------------------------------------------
      1          7           0       -4.756835    4.691973    3.843317
      2          1           0       -5.284810    5.104056    4.617347
      3          1           0       -4.098621    3.953708    4.231717
      4          1           0       -4.232089    5.430718    3.367088
      5          6           0       -5.620700    3.879329    2.892298
      6          1           0       -6.664130    4.142433    3.086146
      7          6           0       -5.328627    2.426398    3.358906
      8          6           0       -5.258092    4.227438    1.422805
      9          1           0       -5.503015    5.296892    1.327592
     10          8           0       -4.337494    2.249634    4.084927
     11          6           0       -3.768900    4.027931    1.094628
     12          1           0       -3.448281    2.986227    1.186480
     13          1           0       -3.101346    4.639429    1.717016
     14          1           0       -3.589870    4.337710    0.060640
     15          6           0       -6.154632    3.465987    0.432099
     16          1           0       -5.840260    2.422955    0.326157
     17          1           0       -7.215761    3.514171    0.710302
     18          1           0       -6.064367    3.928887   -0.555212
     19          7           0       -6.172144    1.463488    2.984963
     20          1           0       -6.917498    1.683722    2.335105
     21          6           0       -5.982336    0.036661    3.329648
     22          1           0       -5.358691    0.033321    4.228155
     23          6           0       -5.215863   -0.685544    2.183936
     24          6           0       -7.329206   -0.621024    3.603741
     25          1           0       -7.175551   -1.668867    3.870097
     26          1           0       -7.844797   -0.117206    4.426769
     27          1           0       -7.962918   -0.610159    2.711346
     28          8           0       -5.727262   -1.611973    1.566531
     29          7           0       -3.983238   -0.185128    1.945621
     30          1           0       -3.591870    0.571543    2.502859
     31          6           0       -3.120645   -0.607317    0.856520
     32          1           0       -2.855161   -1.666731    0.973745
     33          6           0       -1.845326    0.262209    0.966677
     34          6           0       -3.775778   -0.459295   -0.525452
     35          1           0       -3.053907   -0.780333   -1.289212
     36          1           0       -4.652466   -1.113992   -0.571091
     37          8           0       -1.828908    1.257995    1.699408
     38          8           0       -4.139023    0.910312   -0.711281
     39          1           0       -4.415305    1.013376   -1.634464
     40          7           0       -0.808001   -0.159257    0.226819
     41          1           0       -0.928835   -0.905993   -0.456657
     42          6           0        0.396784    0.619765   -0.041411
     43          1           0        0.174606    1.673700    0.148739
     44          6           0        0.699269    0.397225   -1.542894
     45          6           0        1.605212    0.162425    0.808435
     46          1           0        2.494554    0.699056    0.450724
     47          1           0        1.776092   -0.900496    0.590373
     48          8           0        0.200183   -0.569263   -2.136247
     49          6           0        1.479559    0.360188    2.331689
     50          1           0        0.549170   -0.121730    2.663006
     51          6           0        2.651558   -0.338515    3.038762
     52          1           0        3.611288    0.101771    2.739257
     53          1           0        2.686337   -1.407974    2.799326
     54          1           0        2.567894   -0.240854    4.127278
     55          6           0        1.411144    1.843465    2.724838
     56          1           0        2.294893    2.387074    2.365588
     57          1           0        0.514763    2.325216    2.322700
     58          1           0        1.379477    1.949695    3.815797
     59          7           0        1.534053    1.285575   -2.096688
     60          1           0        1.991152    2.028407   -1.560614
     61          6           0        2.159565    1.150742   -3.407509
     62          1           0        2.494105    0.112788   -3.535002
     63          6           0        3.413946    2.090149   -3.368470
     64          6           0        1.143124    1.465989   -4.535548
     65          1           0        0.912764    2.540260   -4.531998
     66          1           0        0.220612    0.941819   -4.268404
     67          8           0        4.234604    2.004252   -4.341905
     68          6           0        1.567263    0.998549   -5.942345
     69          1           0        2.148755    0.073232   -5.845670
     70          1           0        0.676249    0.735819   -6.527032
     71          6           0        2.391605    2.031716   -6.732587
     72          1           0        3.090059    2.550341   -6.074624
     73          1           0        1.745158    2.784268   -7.193492
     74          7           0        3.173563    1.425163   -7.825073
     75          1           0        2.673587    1.190651   -8.673037
     76          7           0        4.875601    0.668008   -6.427975
     77          1           0        5.818314    0.306630   -6.362982
     78          1           0        4.483575    1.138826   -5.520541
     79          7           0        4.883319    0.137082   -8.705087
     80          1           0        4.704198    0.524759   -9.621436
     81          1           0        5.798661   -0.277005   -8.597725
     82          6           0        4.324574    0.756786   -7.622570
     83          8           0        3.504321    2.857014   -2.398421
 ---------------------------------------------------------------------

 SCF Done:  E(RB3LYP) =  -1868.00217448     A.U. after    1 cycles

 Alpha  occ. eigenvalues --  -19.26824 -19.23418 -19.19632 -19.19341 -19.16834
 Alpha  occ. eigenvalues --  -19.13291 -19.12409 -14.59660 -14.50205 -14.46869
 Alpha  occ. eigenvalues --  -14.46460 -14.43818 -14.43498 -14.42569 -14.39718
 Alpha  occ. eigenvalues --  -10.43603 -10.42190 -10.40464 -10.36979 -10.36373
 Alpha  occ. eigenvalues --  -10.33890 -10.33720 -10.33700 -10.31366 -10.31333
 Alpha  occ. eigenvalues --  -10.30974 -10.29436 -10.29366 -10.28986 -10.28594
 Alpha  occ. eigenvalues --  -10.27057 -10.26445 -10.25230 -10.23984 -10.23812
 Alpha  occ. eigenvalues --  -10.23670 -10.21706 -10.21619  -1.19284  -1.13631
 Alpha  occ. eigenvalues --   -1.11906  -1.10874  -1.10765  -1.10103  -1.08419
 Alpha  occ. eigenvalues --   -1.06265  -1.06234  -1.00401  -1.00074  -0.99249
 Alpha  occ. eigenvalues --   -0.98772  -0.97589  -0.96039  -0.94469  -0.88426
 Alpha  occ. eigenvalues --   -0.86436  -0.85417  -0.84791  -0.83806  -0.80821
 Alpha  occ. eigenvalues --   -0.80363  -0.78666  -0.75805  -0.74621  -0.74110
 Alpha  occ. eigenvalues --   -0.73732  -0.73056  -0.72617  -0.72102  -0.71414
 Alpha  occ. eigenvalues --   -0.69997  -0.68619  -0.67954  -0.66893  -0.65818
 Alpha  occ. eigenvalues --   -0.65269  -0.64610  -0.64423  -0.62748  -0.62180
 Alpha  occ. eigenvalues --   -0.61854  -0.60809  -0.60545  -0.59938  -0.59582
 Alpha  occ. eigenvalues --   -0.59070  -0.58332  -0.57930  -0.56040  -0.55718
 Alpha  occ. eigenvalues --   -0.54631  -0.54348  -0.53812  -0.53594  -0.53505
 Alpha  occ. eigenvalues --   -0.52923  -0.52222  -0.52068  -0.51868  -0.51311
 Alpha  occ. eigenvalues --   -0.51046  -0.50717  -0.50331  -0.49681  -0.49309
 Alpha  occ. eigenvalues --   -0.48736  -0.48349  -0.47757  -0.47574  -0.47111
 Alpha  occ. eigenvalues --   -0.47029  -0.46745  -0.46661  -0.46407  -0.46266
 Alpha  occ. eigenvalues --   -0.46120  -0.45483  -0.45060  -0.44665  -0.43945
 Alpha  occ. eigenvalues --   -0.43498  -0.42879  -0.42817  -0.42608  -0.42196
 Alpha  occ. eigenvalues --   -0.41967  -0.41627  -0.41100  -0.40536  -0.39988
 Alpha  occ. eigenvalues --   -0.39927  -0.38470  -0.37554  -0.37228  -0.37140
 Alpha  occ. eigenvalues --   -0.37023  -0.36250  -0.34764  -0.33800  -0.33276
 Alpha  occ. eigenvalues --   -0.32851  -0.32125  -0.30773  -0.30424  -0.28393
 Alpha  occ. eigenvalues --   -0.27786  -0.26832
 Alpha virt. eigenvalues --   -0.12615  -0.10825  -0.07077  -0.06777  -0.06184
 Alpha virt. eigenvalues --   -0.05231  -0.04339  -0.03897  -0.02635  -0.01845
 Alpha virt. eigenvalues --   -0.01018  -0.00465   0.00156   0.00334   0.01260

 Mulliken charges:
               1
     1  N   -0.759931
     2  H    0.415307
     3  H    0.441371
     4  H    0.413816
     5  C   -0.111870
     6  H    0.205757
     7  C    0.658237
     8  C   -0.103672
     9  H    0.155168
    10  O   -0.542515
    11  C   -0.490856
    12  H    0.236243
    13  H    0.128601
    14  H    0.185022
    15  C   -0.496821
    16  H    0.207004
    17  H    0.145743
    18  H    0.184528
    19  N   -0.579380
    20  H    0.356546
    21  C   -0.095324
    22  H    0.208552
    23  C    0.635516
    24  C   -0.453451
    25  H    0.199543
    26  H    0.156479
    27  H    0.170507
    28  O   -0.511600
    29  N   -0.641133
    30  H    0.377781
    31  C   -0.043165
    32  H    0.186929
    33  C    0.629003
    34  C   -0.063135
    35  H    0.153662
    36  H    0.185747
    37  O   -0.554201
    38  O   -0.625242
    39  H    0.406587
    40  N   -0.600539
    41  H    0.357907
    42  C   -0.075169
    43  H    0.173171
    44  C    0.618916
    45  C   -0.256543
    46  H    0.155982
    47  H    0.143204
    48  O   -0.568230
    49  C   -0.065549
    50  H    0.129794
    51  C   -0.445640
    52  H    0.148168
    53  H    0.142794
    54  H    0.143981
    55  C   -0.459162
    56  H    0.143706
    57  H    0.156120
    58  H    0.138229
    59  N   -0.618027
    60  H    0.360129
    61  C   -0.052499
    62  H    0.152642
    63  C    0.599773
    64  C   -0.269418
    65  H    0.140314
    66  H    0.167107
    67  O   -0.629443
    68  C   -0.271936
    69  H    0.153246
    70  H    0.137827
    71  C   -0.191565
    72  H    0.229830
    73  H    0.164093
    74  N   -0.591369
    75  H    0.345027
    76  N   -0.774191
    77  H    0.347366
    78  H    0.455072
    79  N   -0.762836
    80  H    0.361056
    81  H    0.361447
    82  C    0.779696
    83  O   -0.545835
 Sum of Mulliken charges =   1.00000

 Dipole moment (field-independent basis, Debye):
    X=            -16.3093    Y=             14.2645    Z=             -5.2540  Tot=             22.2952
 Quadrupole moment (field-independent basis, Debye-Ang):
   XX=            -67.7602   YY=           -160.2546   ZZ=             -6.8725
   XY=           -110.7153   XZ=           -138.1543   YZ=             50.2910

 Normal termination of Gaussian 16 at Thu Jun 30 14:28:41 2022.
