 Gaussian 16, Revision C.01,
 Gaussian 16:  ES64L-G16RevC.01  3-Jul-2019

 -------------------------------------------------------------------
 # B3LYP/6-31G* guess=read geom=check nosymm integral(ultrafinegrid)
 -------------------------------------------------------------------

 ------------------------------------------------------
 Candidate Structure: Conf:474 Charge calc in gas phase
 ------------------------------------------------------
 Structure from the checkpoint file:  "conf-474.chk"
 Charge =  1 Multiplicity = 1

                          Input orientation:
 ---------------------------------------------------------------------
 Center     Atomic      Atomic             Coordinates (Angstroms)
 Number     Number       Type             X           Y           Z
 ---------------------------------------------------------------------
      1          7           0       -9.071626    0.684048    6.326057
      2          1           0       -9.095120    0.163353    7.206832
      3          1           0       -8.453374    1.548432    6.444315
      4          1           0      -10.028508    0.945810    6.074055
      5          6           0       -8.344051   -0.052813    5.213768
      6          1           0       -8.198254   -1.086128    5.538199
      7          6           0       -6.989395    0.713365    5.160581
      8          6           0       -9.182085   -0.018772    3.907634
      9          1           0      -10.175875   -0.396640    4.194651
     10          8           0       -6.928114    1.799535    5.764162
     11          6           0       -9.340487    1.400748    3.338955
     12          1           0       -8.379789    1.805035    3.003428
     13          1           0       -9.767393    2.113397    4.056222
     14          1           0      -10.010957    1.377219    2.475142
     15          6           0       -8.626466   -0.992155    2.854741
     16          1           0       -7.665860   -0.664725    2.445342
     17          1           0       -8.504605   -2.003815    3.258734
     18          1           0       -9.329071   -1.056695    2.018693
     19          7           0       -6.006005    0.152751    4.475426
     20          1           0       -6.124123   -0.709126    3.934233
     21          6           0       -4.707373    0.773580    4.204337
     22          1           0       -4.870509    1.827242    3.951814
     23          6           0       -4.187628    0.009864    2.959151
     24          6           0       -3.755923    0.673636    5.406393
     25          1           0       -2.795935    1.146698    5.178809
     26          1           0       -4.189992    1.186208    6.269225
     27          1           0       -3.569662   -0.372969    5.667075
     28          8           0       -4.808449   -0.979413    2.548912
     29          7           0       -3.067526    0.488183    2.408226
     30          1           0       -2.543565    1.261864    2.816660
     31          6           0       -2.361513   -0.144925    1.304728
     32          1           0       -2.379782   -1.232468    1.430341
     33          6           0       -0.925196    0.393636    1.361628
     34          6           0       -3.016459    0.190906   -0.070838
     35          1           0       -4.042909   -0.188286   -0.043678
     36          1           0       -3.051587    1.283451   -0.183962
     37          8           0       -0.645339    1.363168    2.068628
     38          8           0       -2.342660   -0.430685   -1.139620
     39          1           0       -1.643604    0.190499   -1.453958
     40          7           0       -0.046485   -0.263118    0.564147
     41          1           0       -0.480110   -0.897391   -0.102006
     42          6           0        1.184815    0.374749    0.117869
     43          1           0        1.540166    0.992417    0.946384
     44          6           0        0.867610    1.311536   -1.078613
     45          6           0        2.243145   -0.681740   -0.258567
     46          1           0        3.131675   -0.162688   -0.639724
     47          1           0        1.855804   -1.273604   -1.100721
     48          8           0       -0.232472    1.291504   -1.655370
     49          6           0        2.661802   -1.630413    0.882465
     50          1           0        1.756902   -2.134773    1.249446
     51          6           0        3.616627   -2.704172    0.338930
     52          1           0        4.542793   -2.253010   -0.039385
     53          1           0        3.160926   -3.268702   -0.483174
     54          1           0        3.891820   -3.417833    1.123722
     55          6           0        3.298513   -0.880948    2.062504
     56          1           0        4.183952   -0.317774    1.739483
     57          1           0        2.602797   -0.176593    2.532263
     58          1           0        3.620978   -1.585493    2.837592
     59          7           0        1.867103    2.122317   -1.443946
     60          1           0        2.773011    2.117868   -0.976543
     61          6           0        1.872460    2.979876   -2.623322
     62          1           0        1.356702    2.472460   -3.442036
     63          6           0        3.353552    3.210800   -3.005517
     64          6           0        1.161170    4.333440   -2.331725
     65          1           0        1.444297    4.652658   -1.319532
     66          1           0        0.083665    4.141691   -2.306356
     67          8           0        3.524237    3.558958   -4.225368
     68          6           0        1.479635    5.459131   -3.339923
     69          1           0        1.623017    5.032359   -4.335709
     70          1           0        0.634995    6.158553   -3.392292
     71          6           0        2.748654    6.238093   -2.937466
     72          1           0        3.528196    5.573991   -2.562777
     73          1           0        2.513746    6.933188   -2.121996
     74          7           0        3.339318    7.036157   -4.020660
     75          1           0        2.805935    7.826792   -4.357534
     76          7           0        5.025928    5.551459   -4.658151
     77          1           0        5.942794    5.457099   -5.075689
     78          1           0        4.465222    4.610418   -4.408987
     79          7           0        4.936273    7.725206   -5.530107
     80          1           0        4.858486    8.684604   -5.221890
     81          1           0        5.733998    7.520932   -6.114521
     82          6           0        4.446943    6.732057   -4.725211
     83          8           0        4.204027    3.136691   -2.103065
 ---------------------------------------------------------------------

 SCF Done:  E(RB3LYP) =  -1868.02245740     A.U. after    1 cycles

 Alpha  occ. eigenvalues --  -19.26684 -19.21485 -19.18890 -19.18795 -19.17206
 Alpha  occ. eigenvalues --  -19.13493 -19.12857 -14.59702 -14.49009 -14.45415
 Alpha  occ. eigenvalues --  -14.45174 -14.44762 -14.41832 -14.41810 -14.40119
 Alpha  occ. eigenvalues --  -10.43355 -10.40618 -10.40445 -10.38495 -10.35466
 Alpha  occ. eigenvalues --  -10.34492 -10.34469 -10.33848 -10.30885 -10.30402
 Alpha  occ. eigenvalues --  -10.30132 -10.29619 -10.29407 -10.28769 -10.28690
 Alpha  occ. eigenvalues --  -10.28064 -10.25910 -10.24010 -10.23795 -10.23656
 Alpha  occ. eigenvalues --  -10.23394 -10.21719 -10.21534  -1.19075  -1.13735
 Alpha  occ. eigenvalues --   -1.13166  -1.10630  -1.09097  -1.08486  -1.06647
 Alpha  occ. eigenvalues --   -1.06435  -1.05689  -1.01241  -0.98892  -0.98776
 Alpha  occ. eigenvalues --   -0.98464  -0.96463  -0.96116  -0.94961  -0.88866
 Alpha  occ. eigenvalues --   -0.86246  -0.85158  -0.84643  -0.82640  -0.81178
 Alpha  occ. eigenvalues --   -0.80308  -0.78049  -0.76927  -0.75238  -0.73543
 Alpha  occ. eigenvalues --   -0.73223  -0.72597  -0.72385  -0.70743  -0.70076
 Alpha  occ. eigenvalues --   -0.69238  -0.68912  -0.66948  -0.66400  -0.66164
 Alpha  occ. eigenvalues --   -0.65033  -0.64130  -0.63298  -0.62626  -0.62358
 Alpha  occ. eigenvalues --   -0.61800  -0.60753  -0.59838  -0.59303  -0.58377
 Alpha  occ. eigenvalues --   -0.58002  -0.57834  -0.56805  -0.56578  -0.55096
 Alpha  occ. eigenvalues --   -0.55003  -0.54468  -0.54026  -0.53678  -0.52928
 Alpha  occ. eigenvalues --   -0.52658  -0.52138  -0.51794  -0.51326  -0.50633
 Alpha  occ. eigenvalues --   -0.50463  -0.50283  -0.49975  -0.49666  -0.49562
 Alpha  occ. eigenvalues --   -0.48682  -0.48436  -0.48158  -0.47806  -0.47559
 Alpha  occ. eigenvalues --   -0.47077  -0.47001  -0.46960  -0.46633  -0.46232
 Alpha  occ. eigenvalues --   -0.45818  -0.45233  -0.44812  -0.44254  -0.43919
 Alpha  occ. eigenvalues --   -0.43062  -0.42861  -0.42636  -0.42167  -0.41721
 Alpha  occ. eigenvalues --   -0.41194  -0.40860  -0.40462  -0.39197  -0.39076
 Alpha  occ. eigenvalues --   -0.38385  -0.37928  -0.37345  -0.37131  -0.37031
 Alpha  occ. eigenvalues --   -0.35999  -0.35932  -0.35575  -0.33283  -0.33098
 Alpha  occ. eigenvalues --   -0.32544  -0.31623  -0.30854  -0.30302  -0.28992
 Alpha  occ. eigenvalues --   -0.27758  -0.26977
 Alpha virt. eigenvalues --   -0.12160  -0.11099  -0.07102  -0.06697  -0.05586
 Alpha virt. eigenvalues --   -0.04706  -0.04428  -0.02752  -0.02400  -0.00997
 Alpha virt. eigenvalues --   -0.00486   0.00671   0.01212   0.01444   0.01808

 Mulliken charges:
               1
     1  N   -0.763403
     2  H    0.415792
     3  H    0.435747
     4  H    0.410762
     5  C   -0.104269
     6  H    0.211262
     7  C    0.651140
     8  C   -0.111720
     9  H    0.158044
    10  O   -0.549949
    11  C   -0.468885
    12  H    0.185306
    13  H    0.140921
    14  H    0.194828
    15  C   -0.479404
    16  H    0.191083
    17  H    0.167099
    18  H    0.189668
    19  N   -0.606789
    20  H    0.384799
    21  C   -0.060887
    22  H    0.196495
    23  C    0.632204
    24  C   -0.455496
    25  H    0.184332
    26  H    0.183870
    27  H    0.172542
    28  O   -0.550370
    29  N   -0.623584
    30  H    0.364831
    31  C   -0.071196
    32  H    0.189866
    33  C    0.604229
    34  C   -0.031924
    35  H    0.163127
    36  H    0.142179
    37  O   -0.541855
    38  O   -0.650676
    39  H    0.446595
    40  N   -0.586961
    41  H    0.344809
    42  C   -0.094241
    43  H    0.194030
    44  C    0.641791
    45  C   -0.279494
    46  H    0.159030
    47  H    0.143561
    48  O   -0.578153
    49  C   -0.064347
    50  H    0.130998
    51  C   -0.445996
    52  H    0.149095
    53  H    0.144462
    54  H    0.147426
    55  C   -0.457996
    56  H    0.147373
    57  H    0.150861
    58  H    0.148907
    59  N   -0.603370
    60  H    0.355061
    61  C   -0.014045
    62  H    0.172558
    63  C    0.585668
    64  C   -0.281801
    65  H    0.142016
    66  H    0.163634
    67  O   -0.633906
    68  C   -0.269175
    69  H    0.183772
    70  H    0.128178
    71  C   -0.173717
    72  H    0.216566
    73  H    0.159499
    74  N   -0.597259
    75  H    0.343618
    76  N   -0.765743
    77  H    0.338691
    78  H    0.459201
    79  N   -0.762128
    80  H    0.356242
    81  H    0.358330
    82  C    0.763067
    83  O   -0.566428
 Sum of Mulliken charges =   1.00000

 Dipole moment (field-independent basis, Debye):
    X=            -26.1327    Y=             14.0395    Z=             15.1869  Tot=             33.3266
 Quadrupole moment (field-independent basis, Debye-Ang):
   XX=            117.6150   YY=            -98.9846   ZZ=            -58.4641
   XY=             51.1425   XZ=           -237.0547   YZ=            -74.3094

 Normal termination of Gaussian 16 at Thu Jun 30 14:28:40 2022.
