 Gaussian 16, Revision C.01,
 Gaussian 16:  ES64L-G16RevC.01  3-Jul-2019

 ----------------------------------------------------------------------
 # B3LYP/6-31G* empiricaldispersion=gd3bj guess=read geom=check nosymm
 integral(ultrafinegrid)
 ----------------------------------------------------------------------

 -----------------------------------------------------
 Candidate Structure: Conf:18 Charge calc in gas phase
 -----------------------------------------------------
 Structure from the checkpoint file:  "conf-18.chk"
 Charge =  1 Multiplicity = 1

                          Input orientation:
 ---------------------------------------------------------------------
 Center     Atomic      Atomic             Coordinates (Angstroms)
 Number     Number       Type             X           Y           Z
 ---------------------------------------------------------------------
      1          7           0       -1.866195   -8.273456   -0.118320
      2          1           0       -2.160635   -8.774597    0.722595
      3          1           0       -2.666664   -8.257623   -0.831922
      4          1           0       -1.032262   -8.723024   -0.502032
      5          6           0       -1.661539   -6.781697    0.099847
      6          1           0       -1.676652   -6.569430    1.169254
      7          6           0       -2.887988   -6.182683   -0.627645
      8          6           0       -0.342167   -6.315341   -0.519044
      9          1           0        0.471348   -6.978065   -0.197417
     10          1           0       -0.401935   -6.343500   -1.610828
     11          8           0       -3.573292   -6.945042   -1.335505
     12          6           0        0.067708   -4.858942   -0.102736
     13          8           0        1.151728   -4.483997   -0.558268
     14          8           0       -0.746139   -4.240235    0.660302
     15          7           0       -3.072588   -4.882484   -0.443164
     16          1           0       -2.264265   -4.426397    0.048896
     17          6           0       -3.825573   -4.098215   -1.400470
     18          1           0       -4.790748   -4.580792   -1.582369
     19          6           0       -3.032126   -4.057975   -2.731185
     20          6           0       -4.051378   -2.684188   -0.801585
     21          1           0       -3.074134   -2.213674   -0.641646
     22          1           0       -4.501225   -2.831965    0.187023
     23          8           0       -1.885896   -4.513098   -2.809122
     24          6           0       -4.919662   -1.808566   -1.669881
     25          6           0       -4.370438   -0.753885   -2.410475
     26          1           0       -3.320499   -0.504188   -2.287176
     27          6           0       -6.270622   -2.120263   -1.866255
     28          1           0       -6.725273   -2.933313   -1.305172
     29          6           0       -5.124234   -0.053910   -3.345802
     30          1           0       -4.678879    0.728671   -3.948847
     31          6           0       -7.042212   -1.426316   -2.796003
     32          1           0       -8.083837   -1.697658   -2.951997
     33          8           0       -7.147093    0.273086   -4.522211
     34          1           0       -8.070386   -0.024417   -4.528671
     35          6           0       -6.463582   -0.399366   -3.549034
     36          7           0       -3.663531   -3.479509   -3.770873
     37          1           0       -4.589239   -3.095109   -3.634086
     38          6           0       -3.000833   -3.190314   -5.043945
     39          1           0       -2.408808   -4.072304   -5.305870
     40          6           0       -2.061246   -1.983209   -4.821416
     41          6           0       -4.039975   -2.867049   -6.129812
     42          1           0       -3.530459   -2.923098   -7.099409
     43          1           0       -4.338635   -1.823472   -6.000622
     44          8           0       -2.419317   -0.831884   -5.094689
     45          6           0       -5.258155   -3.758843   -6.095037
     46          6           0       -6.525803   -3.208461   -5.866476
     47          1           0       -6.624952   -2.132478   -5.754312
     48          6           0       -5.161999   -5.146389   -6.250934
     49          1           0       -4.191599   -5.603809   -6.427870
     50          6           0       -7.662510   -4.009017   -5.792068
     51          1           0       -8.645606   -3.581970   -5.621844
     52          6           0       -6.288687   -5.960879   -6.178597
     53          1           0       -6.193502   -7.037828   -6.302501
     54          8           0       -8.689127   -6.135434   -5.857913
     55          1           0       -8.474331   -7.067598   -6.016837
     56          6           0       -7.546289   -5.392444   -5.945950
     57          7           0       -0.873423   -2.275844   -4.245650
     58          1           0       -0.768588   -3.225534   -3.894317
     59          6           0       -0.078207   -1.233116   -3.580658
     60          1           0       -0.793607   -0.497293   -3.191816
     61          6           0        0.819653   -0.468300   -4.583539
     62          6           0        0.744655   -1.820384   -2.415757
     63          1           0        0.279388   -2.737515   -2.049202
     64          1           0        1.740441   -2.078967   -2.783230
     65          8           0        2.052638   -0.474301   -4.504341
     66          6           0        0.827329   -0.819927   -1.286424
     67          6           0        1.667564    0.296850   -1.369563
     68          1           0        2.352300    0.401375   -2.204258
     69          6           0       -0.009722   -0.959339   -0.169336
     70          1           0       -0.581388   -1.875002   -0.040847
     71          6           0        1.621144    1.287353   -0.386882
     72          1           0        2.271323    2.150485   -0.492379
     73          6           0       -0.060224    0.034360    0.806795
     74          1           0       -0.727239   -0.080733    1.656794
     75          6           0        0.738373    1.175911    0.691160
     76          1           0        0.656002    1.973795    1.425831
     77          7           0        0.142135    0.235250   -5.512785
     78          1           0       -0.876934    0.178429   -5.498499
     79          6           0        0.805670    1.013317   -6.559874
     80          1           0        1.733772    0.486698   -6.807197
     81          6           0        1.172468    2.404475   -5.995516
     82          6           0       -0.096024    1.129682   -7.780435
     83          1           0        0.410184    1.687726   -8.571905
     84          1           0       -0.355346    0.134886   -8.154874
     85          1           0       -1.011777    1.673355   -7.531644
     86          8           0        0.608329    3.436486   -6.343558
     87          7           0        2.161791    2.367954   -5.061660
     88          1           0        2.483940    1.459493   -4.725524
     89          6           0        2.453882    3.536730   -4.249334
     90          1           0        2.473051    4.403217   -4.916060
     91          6           0        3.822429    3.303565   -3.620732
     92          6           0        1.377335    3.745752   -3.161149
     93          1           0        0.434552    3.935841   -3.686677
     94          1           0        1.265678    2.798357   -2.625033
     95          8           0        4.094415    2.228610   -3.071832
     96          6           0        1.647462    4.876805   -2.156226
     97          1           0        2.612524    4.677526   -1.663931
     98          6           0        1.733220    6.253481   -2.828046
     99          1           0        0.806540    6.475812   -3.370422
    100          1           0        1.887533    7.043490   -2.084763
    101          1           0        2.556496    6.320211   -3.547717
    102          6           0        0.559526    4.879997   -1.074087
    103          1           0       -0.419528    5.106379   -1.513746
    104          1           0        0.764067    5.639166   -0.309949
    105          1           0        0.481971    3.904809   -0.581813
    106          7           0        4.700058    4.331672   -3.684340
    107          1           0        4.417396    5.182204   -4.151303
    108          6           0        6.097453    4.232060   -3.247248
    109          1           0        6.448560    3.237356   -3.544149
    110          6           0        6.198671    4.330856   -1.708075
    111          6           0        6.926666    5.318119   -3.918006
    112          1           0        7.977661    5.214832   -3.638603
    113          1           0        6.599440    6.309230   -3.590438
    114          1           0        6.844177    5.242285   -5.006543
    115          8           0        6.620134    5.324312   -1.126625
    116          7           0        5.802545    3.197728   -1.064136
    117          1           0        5.266066    2.509048   -1.598903
    118          6           0        5.771816    3.144110    0.381318
    119          1           0        6.661183    3.660667    0.750921
    120          6           0        5.782240    1.675376    0.799045
    121          6           0        4.510822    3.874746    0.947310
    122          1           0        3.686442    3.702550    0.250014
    123          1           0        4.720951    4.946650    0.934511
    124          8           0        4.787454    0.963440    0.639791
    125          6           0        4.084706    3.433899    2.309155
    126          6           0        4.395786    3.842532    3.579542
    127          1           0        5.024960    4.648279    3.921236
    128          7           0        3.220229    2.358376    2.469514
    129          1           0        2.941808    1.738241    1.710088
    130          6           0        3.038845    2.109245    3.765772
    131          1           0        2.476553    1.297136    4.194949
    132          7           0        3.725272    3.012830    4.458276
    133          7           0        6.914542    1.237379    1.383719
    134          1           0        7.758472    1.794970    1.385940
    135          6           0        7.008241   -0.077418    1.991808
    136          1           0        7.052636   -0.855062    1.218454
    137          6           0        5.780834   -0.265403    2.899038
    138          6           0        8.282204   -0.125717    2.850702
    139          1           0        8.119532    0.550710    3.702845
    140          8           0        5.446011    0.648472    3.655877
    141          6           0        8.582413   -1.534303    3.349567
    142          1           0        7.758230   -1.924036    3.955772
    143          1           0        8.749859   -2.209418    2.503802
    144          1           0        9.484865   -1.534847    3.971087
    145          8           0        9.326784    0.381242    2.016599
    146          1           0       10.137371    0.430972    2.546208
    147          7           0        5.147604   -1.453989    2.836168
    148          1           0        5.401951   -2.071697    2.077291
    149          6           0        3.767306   -1.587615    3.329864
    150          1           0        3.297229   -0.611948    3.161466
    151          6           0        3.747240   -1.861705    4.854564
    152          6           0        2.975747   -2.622975    2.516758
    153          1           0        3.358706   -3.618803    2.773903
    154          8           0        3.563070   -2.978619    5.331401
    155          6           0        1.497730   -2.556615    2.929071
    156          1           0        1.109829   -1.540069    2.785465
    157          1           0        1.368065   -2.837889    3.977881
    158          1           0        0.890579   -3.217177    2.303564
    159          6           0        3.126056   -2.376411    1.007644
    160          1           0        2.918109   -1.330835    0.756069
    161          1           0        2.430096   -3.011232    0.452655
    162          1           0        4.133339   -2.604843    0.633612
    163          7           0        3.888057   -0.733502    5.596516
    164          1           0        4.291068    0.090155    5.154680
    165          6           0        3.858312   -0.712793    7.046241
    166          1           0        3.002800   -1.311869    7.377019
    167          6           0        3.648351    0.758767    7.492442
    168          6           0        5.141729   -1.353395    7.636328
    169          1           0        5.316617   -2.260612    7.052455
    170          1           0        5.995143   -0.684086    7.463074
    171          8           0        3.204562    0.971374    8.658717
    172          6           0        5.037607   -1.750877    9.117388
    173          1           0        5.704520   -2.597376    9.321798
    174          1           0        4.020093   -2.112555    9.309759
    175          6           0        5.363626   -0.617842   10.103071
    176          1           0        4.954747    0.333193    9.762718
    177          1           0        6.443163   -0.489986   10.217059
    178          7           0        4.825727   -0.875063   11.450065
    179          1           0        5.349866   -1.510584   12.037463
    180          7           0        2.655851   -0.251306   10.883576
    181          1           0        1.726984   -0.022532   11.210528
    182          1           0        2.907644    0.113740    9.902794
    183          7           0        3.114229   -1.165614   12.979622
    184          1           0        2.167686   -0.966313   13.270076
    185          1           0        3.790632   -1.195749   13.729747
    186          6           0        3.523235   -0.741636   11.750842
    187          8           0        3.972231    1.642812    6.666270
    188          1           0        3.853376    2.872386    5.477888
 ---------------------------------------------------------------------

 SCF Done:  E(RB3LYP) =  -4648.93896443     A.U. after    3 cycles

 Alpha  occ. eigenvalues --  -19.23172 -19.22340 -19.22227 -19.21103 -19.18649
 Alpha  occ. eigenvalues --  -19.18488 -19.18265 -19.18201 -19.17666 -19.17217
 Alpha  occ. eigenvalues --  -19.15905 -19.15559 -19.15445 -19.15249 -19.14585
 Alpha  occ. eigenvalues --  -19.13022 -19.11816 -14.53990 -14.48562 -14.48081
 Alpha  occ. eigenvalues --  -14.47881 -14.47638 -14.45360 -14.43122 -14.42965
 Alpha  occ. eigenvalues --  -14.42411 -14.42240 -14.41578 -14.41050 -14.40950
 Alpha  occ. eigenvalues --  -14.39360 -14.38882 -14.38472 -10.43512 -10.36976
 Alpha  occ. eigenvalues --  -10.35870 -10.35638 -10.35491 -10.35038 -10.34864
 Alpha  occ. eigenvalues --  -10.34154 -10.34075 -10.33615 -10.33442 -10.32623
 Alpha  occ. eigenvalues --  -10.32424 -10.32026 -10.31552 -10.31480 -10.31263
 Alpha  occ. eigenvalues --  -10.31193 -10.30430 -10.30418 -10.30344 -10.30275
 Alpha  occ. eigenvalues --  -10.29954 -10.29491 -10.29347 -10.29196 -10.27714
 Alpha  occ. eigenvalues --  -10.27703 -10.27623 -10.27607 -10.27063 -10.26678
 Alpha  occ. eigenvalues --  -10.25902 -10.25628 -10.25226 -10.24813 -10.24675
 Alpha  occ. eigenvalues --  -10.24656 -10.24571 -10.24429 -10.24248 -10.23859
 Alpha  occ. eigenvalues --  -10.23808 -10.23780 -10.23664 -10.23649 -10.23619
 Alpha  occ. eigenvalues --  -10.23569 -10.23509 -10.23481 -10.23279 -10.23178
 Alpha  occ. eigenvalues --  -10.23050 -10.23044 -10.22500 -10.22302 -10.22054
 Alpha  occ. eigenvalues --  -10.22023 -10.21907 -10.21751 -10.21699 -10.21272
 Alpha  occ. eigenvalues --  -10.19348 -10.18913  -1.13641  -1.13301  -1.12159
 Alpha  occ. eigenvalues --   -1.11427  -1.11193  -1.10411  -1.10252  -1.10207
 Alpha  occ. eigenvalues --   -1.09897  -1.09587  -1.09142  -1.08858  -1.08804
 Alpha  occ. eigenvalues --   -1.07690  -1.07610  -1.07034  -1.06276  -1.05791
 Alpha  occ. eigenvalues --   -1.01699  -1.00704  -1.00097  -0.99990  -0.99489
 Alpha  occ. eigenvalues --   -0.99237  -0.99073  -0.99007  -0.98870  -0.98134
 Alpha  occ. eigenvalues --   -0.97563  -0.97192  -0.96242  -0.95885  -0.95358
 Alpha  occ. eigenvalues --   -0.91147  -0.89995  -0.89429  -0.88404  -0.86784
 Alpha  occ. eigenvalues --   -0.86525  -0.85945  -0.85765  -0.84668  -0.83911
 Alpha  occ. eigenvalues --   -0.83540  -0.83499  -0.82816  -0.82007  -0.80907
 Alpha  occ. eigenvalues --   -0.80602  -0.80249  -0.79401  -0.79221  -0.78399
 Alpha  occ. eigenvalues --   -0.78332  -0.78177  -0.77917  -0.76405  -0.76318
 Alpha  occ. eigenvalues --   -0.75024  -0.74418  -0.74237  -0.73671  -0.72880
 Alpha  occ. eigenvalues --   -0.72144  -0.71741  -0.71217  -0.70731  -0.70580
 Alpha  occ. eigenvalues --   -0.70117  -0.69742  -0.69370  -0.69167  -0.68597
 Alpha  occ. eigenvalues --   -0.68191  -0.67774  -0.67497  -0.66979  -0.66924
 Alpha  occ. eigenvalues --   -0.66878  -0.66441  -0.66028  -0.65707  -0.64959
 Alpha  occ. eigenvalues --   -0.64725  -0.64358  -0.64339  -0.64303  -0.63976
 Alpha  occ. eigenvalues --   -0.63678  -0.63600  -0.63035  -0.61900  -0.61874
 Alpha  occ. eigenvalues --   -0.61725  -0.61602  -0.61306  -0.61125  -0.60751
 Alpha  occ. eigenvalues --   -0.60281  -0.59964  -0.59836  -0.59767  -0.59428
 Alpha  occ. eigenvalues --   -0.59022  -0.58953  -0.58467  -0.57764  -0.57601
 Alpha  occ. eigenvalues --   -0.57110  -0.56536  -0.56135  -0.55902  -0.55846
 Alpha  occ. eigenvalues --   -0.55759  -0.55594  -0.55235  -0.55084  -0.55003
 Alpha  occ. eigenvalues --   -0.54890  -0.54499  -0.54480  -0.53810  -0.53656
 Alpha  occ. eigenvalues --   -0.53510  -0.53364  -0.53250  -0.53185  -0.52914
 Alpha  occ. eigenvalues --   -0.52628  -0.52303  -0.52283  -0.52037  -0.51749
 Alpha  occ. eigenvalues --   -0.51601  -0.51468  -0.51288  -0.51076  -0.51024
 Alpha  occ. eigenvalues --   -0.50762  -0.50531  -0.50321  -0.49758  -0.49419
 Alpha  occ. eigenvalues --   -0.49210  -0.49129  -0.49005  -0.48979  -0.48703
 Alpha  occ. eigenvalues --   -0.48449  -0.48380  -0.48342  -0.47955  -0.47826
 Alpha  occ. eigenvalues --   -0.47712  -0.47525  -0.47467  -0.47378  -0.47157
 Alpha  occ. eigenvalues --   -0.47105  -0.46978  -0.46892  -0.46729  -0.46648
 Alpha  occ. eigenvalues --   -0.46606  -0.46262  -0.46104  -0.45869  -0.45611
 Alpha  occ. eigenvalues --   -0.45591  -0.45490  -0.45221  -0.45149  -0.45022
 Alpha  occ. eigenvalues --   -0.44928  -0.44894  -0.44675  -0.44558  -0.44516
 Alpha  occ. eigenvalues --   -0.44305  -0.44258  -0.44171  -0.43925  -0.43861
 Alpha  occ. eigenvalues --   -0.43784  -0.43733  -0.43626  -0.43379  -0.43312
 Alpha  occ. eigenvalues --   -0.43126  -0.42868  -0.42860  -0.42776  -0.42752
 Alpha  occ. eigenvalues --   -0.42432  -0.42320  -0.42045  -0.41778  -0.41686
 Alpha  occ. eigenvalues --   -0.41532  -0.41258  -0.41093  -0.41040  -0.40891
 Alpha  occ. eigenvalues --   -0.40839  -0.40752  -0.40695  -0.40108  -0.40070
 Alpha  occ. eigenvalues --   -0.39999  -0.39940  -0.39843  -0.39553  -0.39315
 Alpha  occ. eigenvalues --   -0.39210  -0.39185  -0.39093  -0.38932  -0.38302
 Alpha  occ. eigenvalues --   -0.38083  -0.37986  -0.37694  -0.37522  -0.37190
 Alpha  occ. eigenvalues --   -0.37064  -0.36931  -0.36831  -0.36558  -0.36162
 Alpha  occ. eigenvalues --   -0.35954  -0.35761  -0.35475  -0.34766  -0.34145
 Alpha  occ. eigenvalues --   -0.33953  -0.33860  -0.33641  -0.33094  -0.33032
 Alpha  occ. eigenvalues --   -0.32966  -0.32606  -0.32052  -0.31972  -0.31805
 Alpha  occ. eigenvalues --   -0.31520  -0.31211  -0.30968  -0.30779  -0.30583
 Alpha  occ. eigenvalues --   -0.30063  -0.29851  -0.29733  -0.29565  -0.29098
 Alpha  occ. eigenvalues --   -0.28858  -0.28711  -0.28291  -0.28142  -0.27918
 Alpha  occ. eigenvalues --   -0.27772  -0.27576  -0.27149  -0.27109  -0.26301
 Alpha  occ. eigenvalues --   -0.26065
 Alpha virt. eigenvalues --   -0.08278  -0.07913  -0.06210  -0.06068  -0.05958
 Alpha virt. eigenvalues --   -0.05887  -0.05551  -0.05379  -0.05034  -0.05022
 Alpha virt. eigenvalues --   -0.04878  -0.04655  -0.04591  -0.04239  -0.04023

 Mulliken charges:
               1
     1  N   -0.763792
     2  H    0.398454
     3  H    0.422080
     4  H    0.401680
     5  C   -0.108217
     6  H    0.215682
     7  C    0.643213
     8  C   -0.398293
     9  H    0.157219
    10  H    0.201094
    11  O   -0.566764
    12  C    0.648389
    13  O   -0.543028
    14  O   -0.622377
    15  N   -0.602817
    16  H    0.411423
    17  C   -0.081551
    18  H    0.189046
    19  C    0.640458
    20  C   -0.377855
    21  H    0.177700
    22  H    0.173661
    23  O   -0.556776
    24  C    0.122943
    25  C   -0.192115
    26  H    0.150240
    27  C   -0.199248
    28  H    0.136345
    29  C   -0.148559
    30  H    0.166282
    31  C   -0.183905
    32  H    0.133249
    33  O   -0.639692
    34  H    0.413376
    35  C    0.347661
    36  N   -0.592269
    37  H    0.367718
    38  C   -0.047034
    39  H    0.174755
    40  C    0.631980
    41  C   -0.404500
    42  H    0.168686
    43  H    0.197324
    44  O   -0.556339
    45  C    0.151246
    46  C   -0.206490
    47  H    0.145323
    48  C   -0.175394
    49  H    0.129285
    50  C   -0.161876
    51  H    0.134820
    52  C   -0.193498
    53  H    0.123849
    54  O   -0.639554
    55  H    0.410188
    56  C    0.351723
    57  N   -0.611326
    58  H    0.382156
    59  C   -0.062231
    60  H    0.178444
    61  C    0.633304
    62  C   -0.402808
    63  H    0.194080
    64  H    0.194677
    65  O   -0.546383
    66  C    0.139836
    67  C   -0.195920
    68  H    0.191054
    69  C   -0.189724
    70  H    0.181035
    71  C   -0.142490
    72  H    0.134630
    73  C   -0.137668
    74  H    0.130736
    75  C   -0.185805
    76  H    0.119511
    77  N   -0.618070
    78  H    0.385970
    79  C   -0.057348
    80  H    0.176611
    81  C    0.623007
    82  C   -0.457796
    83  H    0.168242
    84  H    0.149009
    85  H    0.173224
    86  O   -0.531431
    87  N   -0.646819
    88  H    0.393399
    89  C   -0.028936
    90  H    0.165436
    91  C    0.622347
    92  C   -0.276150
    93  H    0.169250
    94  H    0.158252
    95  O   -0.552611
    96  C   -0.096146
    97  H    0.120003
    98  C   -0.442009
    99  H    0.160930
   100  H    0.148101
   101  H    0.120424
   102  C   -0.455563
   103  H    0.151888
   104  H    0.136712
   105  H    0.149480
   106  N   -0.605431
   107  H    0.349577
   108  C   -0.051812
   109  H    0.185347
   110  C    0.621758
   111  C   -0.474485
   112  H    0.178561
   113  H    0.176121
   114  H    0.159877
   115  O   -0.525354
   116  N   -0.647875
   117  H    0.397650
   118  C   -0.012192
   119  H    0.170994
   120  C    0.639044
   121  C   -0.386127
   122  H    0.196745
   123  H    0.203870
   124  O   -0.555126
   125  C    0.305978
   126  C   -0.000895
   127  H    0.198607
   128  N   -0.587172
   129  H    0.414315
   130  C    0.312086
   131  H    0.235623
   132  N   -0.534897
   133  N   -0.615755
   134  H    0.359095
   135  C   -0.000328
   136  H    0.167815
   137  C    0.631068
   138  C    0.105589
   139  H    0.150861
   140  O   -0.559878
   141  C   -0.477911
   142  H    0.171705
   143  H    0.167661
   144  H    0.152006
   145  O   -0.637784
   146  H    0.406655
   147  N   -0.600878
   148  H    0.344775
   149  C   -0.035078
   150  H    0.133702
   151  C    0.625208
   152  C   -0.103812
   153  H    0.145725
   154  O   -0.540493
   155  C   -0.488217
   156  H    0.118356
   157  H    0.151585
   158  H    0.201529
   159  C   -0.508340
   160  H    0.159640
   161  H    0.233898
   162  H    0.106676
   163  N   -0.654444
   164  H    0.394315
   165  C   -0.042016
   166  H    0.154572
   167  C    0.604700
   168  C   -0.280484
   169  H    0.182002
   170  H    0.140028
   171  O   -0.607423
   172  C   -0.275082
   173  H    0.145154
   174  H    0.154797
   175  C   -0.196268
   176  H    0.223315
   177  H    0.170535
   178  N   -0.588049
   179  H    0.348599
   180  N   -0.777422
   181  H    0.350393
   182  H    0.452686
   183  N   -0.762749
   184  H    0.364196
   185  H    0.364858
   186  C    0.785658
   187  O   -0.592872
   188  H    0.421470
 Sum of Mulliken charges =   1.00000

 Dipole moment (field-independent basis, Debye):
    X=              8.5588    Y=            -14.4762    Z=             27.5081  Tot=             32.2414
 Quadrupole moment (field-independent basis, Debye-Ang):
   XX=           -390.9594   YY=           -388.4893   ZZ=           -182.1086
   XY=             65.2223   XZ=            133.7939   YZ=             -9.3562

 Normal termination of Gaussian 16 at Tue Aug  9 06:29:35 2022.
