 Gaussian 16, Revision C.01,
 Gaussian 16:  ES64L-G16RevC.01  3-Jul-2019

 ----------------------------------------------------------------------
 # B3LYP/6-31G* empiricaldispersion=gd3bj guess=read geom=check nosymm
 integral(ultrafinegrid)
 ----------------------------------------------------------------------

 ------------------------------------------------------
 Candidate Structure: Conf:204 Charge calc in gas phase
 ------------------------------------------------------
 Structure from the checkpoint file:  "conf-204.chk"
 Charge =  1 Multiplicity = 1

                          Input orientation:
 ---------------------------------------------------------------------
 Center     Atomic      Atomic             Coordinates (Angstroms)
 Number     Number       Type             X           Y           Z
 ---------------------------------------------------------------------
      1          7           0       -0.038484   -4.490921  -11.455497
      2          1           0       -0.855977   -4.623989  -12.049896
      3          1           0        0.040183   -2.814037  -11.051253
      4          1           0        0.752998   -5.006071  -11.829927
      5          6           0       -0.366445   -4.906907  -10.084987
      6          1           0       -0.135424   -5.966098   -9.898164
      7          6           0       -1.883429   -4.713709   -9.901619
      8          6           0        0.445705   -4.053108   -9.076360
      9          1           0        0.241100   -4.332873   -8.041143
     10          1           0        1.512233   -4.244876   -9.253651
     11          8           0       -2.575060   -4.272579  -10.810688
     12          6           0        0.228152   -2.536254   -9.173058
     13          8           0        0.266796   -1.822966   -8.190883
     14          8           0        0.026478   -2.046825  -10.396611
     15          7           0       -2.381146   -5.059714   -8.673596
     16          1           0       -1.691422   -5.216560   -7.944736
     17          6           0       -3.525683   -4.308532   -8.152665
     18          1           0       -4.092759   -3.957912   -9.015644
     19          6           0       -2.903341   -3.127955   -7.382111
     20          6           0       -4.440084   -5.139442   -7.226888
     21          1           0       -3.821479   -5.688236   -6.509167
     22          1           0       -4.988120   -5.870605   -7.830664
     23          8           0       -2.011179   -3.345178   -6.563417
     24          6           0       -5.339559   -4.160508   -6.508455
     25          6           0       -5.018788   -3.737458   -5.215204
     26          1           0       -4.255747   -4.270427   -4.655250
     27          6           0       -6.319276   -3.451677   -7.218468
     28          1           0       -6.604850   -3.781331   -8.215439
     29          6           0       -5.579220   -2.579611   -4.678561
     30          1           0       -5.281175   -2.220131   -3.699270
     31          6           0       -6.876799   -2.288810   -6.695524
     32          1           0       -7.593998   -1.705678   -7.264757
     33          8           0       -6.857812   -0.573087   -5.001438
     34          1           0       -6.401136    0.050392   -5.608504
     35          6           0       -6.458468   -1.818712   -5.446656
     36          7           0       -3.332845   -1.893125   -7.735985
     37          1           0       -4.166974   -1.802402   -8.299962
     38          6           0       -2.742666   -0.684354   -7.199558
     39          1           0       -1.860042   -1.004649   -6.643635
     40          6           0       -3.724276    0.056253   -6.293548
     41          6           0       -2.312063    0.280838   -8.332343
     42          1           0       -3.200144    0.546658   -8.916588
     43          1           0       -1.617029   -0.260485   -8.978090
     44          8           0       -4.863922    0.342335   -6.682287
     45          6           0       -1.667958    1.515442   -7.750481
     46          6           0       -2.404762    2.685237   -7.527387
     47          1           0       -3.439714    2.732675   -7.856010
     48          6           0       -0.337706    1.470193   -7.316355
     49          1           0        0.243356    0.569054   -7.493830
     50          6           0       -1.841468    3.781386   -6.878619
     51          1           0       -2.409239    4.690946   -6.711610
     52          6           0        0.233912    2.557310   -6.658663
     53          1           0        1.265443    2.506551   -6.314889
     54          8           0       -0.020970    4.797242   -5.753683
     55          1           0        0.909690    4.624605   -5.541693
     56          6           0       -0.522112    3.708657   -6.430306
     57          7           0       -3.229614    0.435761   -5.093893
     58          1           0       -2.238164    0.314845   -4.914845
     59          6           0       -3.870024    1.457436   -4.291337
     60          1           0       -4.631328    1.933422   -4.914660
     61          6           0       -2.793266    2.471920   -3.902529
     62          6           0       -4.556260    0.869511   -3.026452
     63          1           0       -5.292906    0.143412   -3.380938
     64          1           0       -3.799572    0.340365   -2.436353
     65          8           0       -1.619940    2.107929   -3.740168
     66          6           0       -5.216619    1.956007   -2.216632
     67          6           0       -4.614515    2.469081   -1.062729
     68          1           0       -3.705888    2.004715   -0.691139
     69          6           0       -6.390786    2.559857   -2.687744
     70          1           0       -6.885761    2.147890   -3.563979
     71          6           0       -5.147985    3.578526   -0.407999
     72          1           0       -4.654331    3.979239    0.471818
     73          6           0       -6.928256    3.671089   -2.035923
     74          1           0       -7.838198    4.129393   -2.412589
     75          6           0       -6.301658    4.190055   -0.900561
     76          1           0       -6.713923    5.060620   -0.399496
     77          7           0       -3.214533    3.739178   -3.721925
     78          1           0       -4.212785    3.911138   -3.714618
     79          6           0       -2.342336    4.844562   -3.310178
     80          1           0       -1.407066    4.734320   -3.867942
     81          6           0       -2.036414    4.739031   -1.804314
     82          6           0       -3.005213    6.169956   -3.654179
     83          1           0       -2.355139    7.000852   -3.371148
     84          1           0       -3.194587    6.224373   -4.729742
     85          1           0       -3.946748    6.285685   -3.108187
     86          8           0       -2.496268    5.529898   -0.973043
     87          7           0       -1.231775    3.700099   -1.475013
     88          1           0       -1.003797    3.045729   -2.227274
     89          6           0       -1.111038    3.235190   -0.094931
     90          1           0       -2.073627    3.432364    0.390153
     91          6           0       -0.054597    4.053905    0.668358
     92          6           0       -0.804223    1.737685   -0.078304
     93          1           0       -1.541563    1.242290   -0.723561
     94          1           0        0.178398    1.575683   -0.535296
     95          8           0        1.008971    3.570453    1.070461
     96          6           0       -0.820565    1.077807    1.312819
     97          1           0        0.031145    1.483288    1.869119
     98          6           0       -2.104254    1.384805    2.097469
     99          1           0       -2.999756    1.137056    1.514275
    100          1           0       -2.149724    0.787672    3.016994
    101          1           0       -2.172586    2.440771    2.383809
    102          6           0       -0.620750   -0.435061    1.165684
    103          1           0       -1.462548   -0.894743    0.633399
    104          1           0       -0.546019   -0.921247    2.146402
    105          1           0        0.293054   -0.663524    0.606125
    106          7           0       -0.410113    5.335149    0.902469
    107          1           0       -1.270294    5.675279    0.464426
    108          6           0        0.445798    6.237773    1.652269
    109          1           0        1.309633    6.532735    1.040509
    110          6           0        0.951029    5.483649    2.886305
    111          6           0       -0.347799    7.477701    2.068134
    112          1           0        0.296957    8.185973    2.596238
    113          1           0       -1.170752    7.189028    2.727578
    114          1           0       -0.756707    7.977926    1.184836
    115          8           0        0.139346    4.936795    3.656752
    116          7           0        2.275308    5.489802    3.089667
    117          1           0        2.897655    5.884937    2.389477
    118          6           0        2.958019    4.621152    4.024861
    119          1           0        2.463671    4.671911    4.999318
    120          6           0        4.406940    5.115550    4.112424
    121          6           0        3.035309    3.138541    3.503842
    122          1           0        4.043498    2.737658    3.650227
    123          1           0        2.840225    3.164995    2.427083
    124          8           0        4.913570    5.720949    3.172803
    125          6           0        2.074235    2.193809    4.138294
    126          6           0        2.235480    0.898271    4.552201
    127          1           0        3.105742    0.261873    4.554378
    128          7           0        0.744793    2.508333    4.364110
    129          1           0        0.359670    3.470433    4.129073
    130          6           0        0.108564    1.464686    4.883291
    131          1           0       -0.933206    1.422642    5.156890
    132          7           0        0.998348    0.467639    5.004231
    133          7           0        5.072150    4.732467    5.226354
    134          1           0        4.618543    4.079812    5.860623
    135          6           0        6.520479    4.541851    5.200820
    136          1           0        7.020321    5.499692    5.037062
    137          6           0        6.850929    3.532738    4.089690
    138          6           0        6.921475    3.927609    6.567174
    139          1           0        7.964652    3.588034    6.481780
    140          8           0        6.305156    2.410943    4.111683
    141          6           0        6.801737    4.915862    7.716385
    142          1           0        7.502107    5.746767    7.585116
    143          1           0        5.787631    5.322461    7.779360
    144          1           0        7.030069    4.409898    8.658380
    145          8           0        6.061500    2.823362    6.839368
    146          1           0        6.105819    2.258778    6.037491
    147          7           0        7.716858    3.929483    3.159129
    148          1           0        8.196376    4.822393    3.236155
    149          6           0        8.190384    3.110023    2.056373
    150          1           0        8.139671    2.061597    2.364281
    151          6           0        9.646572    3.536142    1.804564
    152          6           0        7.350821    3.301679    0.759947
    153          1           0        7.827490    2.667105    0.001011
    154          8           0       10.066439    4.611639    2.246224
    155          6           0        5.905070    2.828762    0.946414
    156          1           0        5.367001    3.505942    1.616763
    157          1           0        5.856317    1.819106    1.365833
    158          1           0        5.383751    2.831060   -0.017223
    159          6           0        7.382447    4.754593    0.269368
    160          1           0        6.902931    5.417010    0.999178
    161          1           0        6.833154    4.843051   -0.673695
    162          1           0        8.402499    5.112159    0.100097
    163          7           0       10.357788    2.682583    1.050748
    164          1           0        9.881290    1.933227    0.541581
    165          6           0       11.565536    3.056307    0.330771
    166          1           0       11.400569    4.023004   -0.165620
    167          6           0       11.764765    1.925970   -0.767069
    168          6           0       12.856132    3.095141    1.122220
    169          1           0       13.086607    2.046620    1.332723
    170          1           0       13.571799    3.429174    0.369196
    171          8           0       10.724707    1.363565   -1.142779
    172          6           0       13.122197    3.887082    2.397212
    173          1           0       12.606500    3.434885    3.250682
    174          1           0       12.762220    4.916971    2.327270
    175          6           0       14.664067    3.896840    2.631004
    176          1           0       14.918654    3.957455    3.691965
    177          1           0       15.113662    4.758654    2.131606
    178          7           0       15.330448    2.687525    2.060546
    179          1           0       14.825299    1.829608    2.250834
    180          7           0       16.818914    3.574946    0.536845
    181          1           0       17.094770    3.793547   -0.409153
    182          1           0       17.331722    3.997387    1.297221
    183          7           0       15.415675    1.833933   -0.132003
    184          1           0       15.994825    1.741922   -0.959787
    185          1           0       14.363370    1.696023   -0.354494
    186          6           0       15.836456    2.690618    0.794668
    187          8           0       12.961891    1.687050   -1.129817
    188          1           0        0.791624   -0.450894    5.374609
 ---------------------------------------------------------------------

 SCF Done:  E(RB3LYP) =  -4648.92035072     A.U. after    1 cycles

 Alpha  occ. eigenvalues --  -19.22664 -19.21996 -19.21293 -19.21211 -19.20412
 Alpha  occ. eigenvalues --  -19.19562 -19.19522 -19.19180 -19.19123 -19.18823
 Alpha  occ. eigenvalues --  -19.17593 -19.17512 -19.16968 -19.16025 -19.15661
 Alpha  occ. eigenvalues --  -19.12186 -19.11385 -14.54746 -14.51733 -14.47779
 Alpha  occ. eigenvalues --  -14.45626 -14.45608 -14.44467 -14.44283 -14.43279
 Alpha  occ. eigenvalues --  -14.43251 -14.42786 -14.42297 -14.41563 -14.40837
 Alpha  occ. eigenvalues --  -14.40543 -14.39568 -14.39315 -10.42432 -10.40865
 Alpha  occ. eigenvalues --  -10.38747 -10.37997 -10.36357 -10.36007 -10.35789
 Alpha  occ. eigenvalues --  -10.35775 -10.35474 -10.35459 -10.34802 -10.34322
 Alpha  occ. eigenvalues --  -10.34120 -10.33890 -10.33593 -10.32832 -10.31904
 Alpha  occ. eigenvalues --  -10.31717 -10.31096 -10.30860 -10.30294 -10.29999
 Alpha  occ. eigenvalues --  -10.29735 -10.29529 -10.29469 -10.29390 -10.28879
 Alpha  occ. eigenvalues --  -10.28850 -10.27748 -10.27503 -10.27282 -10.26247
 Alpha  occ. eigenvalues --  -10.26092 -10.25807 -10.25627 -10.25337 -10.25284
 Alpha  occ. eigenvalues --  -10.25152 -10.24940 -10.24899 -10.24673 -10.24658
 Alpha  occ. eigenvalues --  -10.24631 -10.24567 -10.24539 -10.24411 -10.24406
 Alpha  occ. eigenvalues --  -10.24329 -10.23888 -10.23648 -10.23580 -10.23048
 Alpha  occ. eigenvalues --  -10.22837 -10.22777 -10.22760 -10.22613 -10.22561
 Alpha  occ. eigenvalues --  -10.22561 -10.22556 -10.22454 -10.22273 -10.22234
 Alpha  occ. eigenvalues --  -10.22216 -10.21996  -1.18248  -1.14040  -1.13152
 Alpha  occ. eigenvalues --   -1.11970  -1.11405  -1.11314  -1.10949  -1.10804
 Alpha  occ. eigenvalues --   -1.10366  -1.10201  -1.09588  -1.09171  -1.08893
 Alpha  occ. eigenvalues --   -1.08391  -1.07624  -1.06851  -1.05051  -1.04746
 Alpha  occ. eigenvalues --   -1.03740  -1.02609  -1.01233  -1.00428  -1.00101
 Alpha  occ. eigenvalues --   -0.99885  -0.99752  -0.99004  -0.98639  -0.98359
 Alpha  occ. eigenvalues --   -0.97727  -0.97118  -0.97032  -0.95827  -0.95784
 Alpha  occ. eigenvalues --   -0.92040  -0.91361  -0.89332  -0.89185  -0.88682
 Alpha  occ. eigenvalues --   -0.87896  -0.86519  -0.85843  -0.85451  -0.85089
 Alpha  occ. eigenvalues --   -0.84241  -0.83910  -0.83259  -0.82519  -0.81354
 Alpha  occ. eigenvalues --   -0.81134  -0.80320  -0.80060  -0.79882  -0.79558
 Alpha  occ. eigenvalues --   -0.79054  -0.78571  -0.78474  -0.78328  -0.77147
 Alpha  occ. eigenvalues --   -0.76251  -0.76025  -0.75661  -0.74109  -0.73815
 Alpha  occ. eigenvalues --   -0.73589  -0.73328  -0.72651  -0.72077  -0.71752
 Alpha  occ. eigenvalues --   -0.71642  -0.70773  -0.69969  -0.69006  -0.68656
 Alpha  occ. eigenvalues --   -0.68014  -0.67829  -0.67604  -0.67143  -0.66542
 Alpha  occ. eigenvalues --   -0.66284  -0.66120  -0.65992  -0.65943  -0.65581
 Alpha  occ. eigenvalues --   -0.65131  -0.65083  -0.64702  -0.64323  -0.64204
 Alpha  occ. eigenvalues --   -0.63722  -0.63386  -0.63063  -0.62883  -0.62808
 Alpha  occ. eigenvalues --   -0.62511  -0.62394  -0.62334  -0.61955  -0.61472
 Alpha  occ. eigenvalues --   -0.60567  -0.60555  -0.60176  -0.59933  -0.59867
 Alpha  occ. eigenvalues --   -0.59407  -0.59215  -0.58937  -0.58635  -0.58269
 Alpha  occ. eigenvalues --   -0.58120  -0.57817  -0.57598  -0.57235  -0.56923
 Alpha  occ. eigenvalues --   -0.56887  -0.56644  -0.56584  -0.55915  -0.55350
 Alpha  occ. eigenvalues --   -0.55116  -0.55004  -0.54876  -0.54727  -0.53986
 Alpha  occ. eigenvalues --   -0.53777  -0.53725  -0.53690  -0.53408  -0.53333
 Alpha  occ. eigenvalues --   -0.52802  -0.52571  -0.52416  -0.51999  -0.51972
 Alpha  occ. eigenvalues --   -0.51932  -0.51769  -0.51687  -0.51571  -0.51213
 Alpha  occ. eigenvalues --   -0.51154  -0.51031  -0.50773  -0.50642  -0.50423
 Alpha  occ. eigenvalues --   -0.50100  -0.50006  -0.49989  -0.49837  -0.49497
 Alpha  occ. eigenvalues --   -0.49303  -0.49217  -0.48980  -0.48910  -0.48698
 Alpha  occ. eigenvalues --   -0.48490  -0.48110  -0.48090  -0.47896  -0.47830
 Alpha  occ. eigenvalues --   -0.47651  -0.47591  -0.47461  -0.47386  -0.47354
 Alpha  occ. eigenvalues --   -0.47166  -0.47038  -0.46783  -0.46673  -0.46489
 Alpha  occ. eigenvalues --   -0.46251  -0.46005  -0.45999  -0.45935  -0.45730
 Alpha  occ. eigenvalues --   -0.45625  -0.45564  -0.45401  -0.45336  -0.45306
 Alpha  occ. eigenvalues --   -0.45070  -0.45057  -0.45020  -0.44960  -0.44927
 Alpha  occ. eigenvalues --   -0.44792  -0.44467  -0.44338  -0.44211  -0.43987
 Alpha  occ. eigenvalues --   -0.43903  -0.43879  -0.43553  -0.43435  -0.43287
 Alpha  occ. eigenvalues --   -0.43224  -0.43127  -0.42981  -0.42936  -0.42839
 Alpha  occ. eigenvalues --   -0.42595  -0.42463  -0.42106  -0.41902  -0.41482
 Alpha  occ. eigenvalues --   -0.41303  -0.40868  -0.40790  -0.40688  -0.40443
 Alpha  occ. eigenvalues --   -0.40367  -0.40088  -0.40050  -0.39989  -0.39909
 Alpha  occ. eigenvalues --   -0.39900  -0.39847  -0.39554  -0.39317  -0.39129
 Alpha  occ. eigenvalues --   -0.39068  -0.39015  -0.38853  -0.38552  -0.38390
 Alpha  occ. eigenvalues --   -0.38236  -0.37655  -0.37459  -0.37155  -0.37117
 Alpha  occ. eigenvalues --   -0.36682  -0.36556  -0.36215  -0.35646  -0.35571
 Alpha  occ. eigenvalues --   -0.35312  -0.34899  -0.34570  -0.34471  -0.33595
 Alpha  occ. eigenvalues --   -0.33450  -0.33157  -0.33115  -0.32651  -0.32464
 Alpha  occ. eigenvalues --   -0.32200  -0.32115  -0.31893  -0.31652  -0.31411
 Alpha  occ. eigenvalues --   -0.31397  -0.30874  -0.30733  -0.30620  -0.30160
 Alpha  occ. eigenvalues --   -0.29738  -0.29551  -0.29454  -0.28936  -0.28843
 Alpha  occ. eigenvalues --   -0.28531  -0.27539  -0.26639  -0.26281  -0.25657
 Alpha  occ. eigenvalues --   -0.25633
 Alpha virt. eigenvalues --   -0.13050  -0.09643  -0.09136  -0.08092  -0.06860
 Alpha virt. eigenvalues --   -0.06210  -0.06104  -0.05945  -0.05631  -0.05353
 Alpha virt. eigenvalues --   -0.05006  -0.04644  -0.04518  -0.04222  -0.04095

 Mulliken charges:
               1
     1  N   -0.775766
     2  H    0.356559
     3  H    0.453740
     4  H    0.327836
     5  C   -0.097032
     6  H    0.167460
     7  C    0.610864
     8  C   -0.387154
     9  H    0.194604
    10  H    0.181277
    11  O   -0.505796
    12  C    0.613714
    13  O   -0.477194
    14  O   -0.589283
    15  N   -0.586403
    16  H    0.339868
    17  C   -0.062737
    18  H    0.179744
    19  C    0.630891
    20  C   -0.343918
    21  H    0.153644
    22  H    0.163830
    23  O   -0.554041
    24  C    0.132934
    25  C   -0.175369
    26  H    0.137460
    27  C   -0.208455
    28  H    0.133881
    29  C   -0.158688
    30  H    0.132017
    31  C   -0.153281
    32  H    0.140047
    33  O   -0.702948
    34  H    0.440369
    35  C    0.338159
    36  N   -0.585925
    37  H    0.345725
    38  C   -0.064863
    39  H    0.203844
    40  C    0.657463
    41  C   -0.366413
    42  H    0.151110
    43  H    0.206256
    44  O   -0.584542
    45  C    0.127675
    46  C   -0.194960
    47  H    0.140435
    48  C   -0.204879
    49  H    0.184628
    50  C   -0.174236
    51  H    0.134586
    52  C   -0.180723
    53  H    0.122242
    54  O   -0.657982
    55  H    0.409501
    56  C    0.359084
    57  N   -0.582250
    58  H    0.363225
    59  C   -0.061559
    60  H    0.177601
    61  C    0.652421
    62  C   -0.379368
    63  H    0.216643
    64  H    0.145830
    65  O   -0.576239
    66  C    0.146463
    67  C   -0.192574
    68  H    0.128345
    69  C   -0.210666
    70  H    0.156794
    71  C   -0.121987
    72  H    0.134712
    73  C   -0.131854
    74  H    0.146178
    75  C   -0.135324
    76  H    0.141758
    77  N   -0.590487
    78  H    0.352343
    79  C   -0.080992
    80  H    0.217624
    81  C    0.639846
    82  C   -0.469780
    83  H    0.171584
    84  H    0.167908
    85  H    0.170599
    86  O   -0.557036
    87  N   -0.633632
    88  H    0.391665
    89  C   -0.071636
    90  H    0.178590
    91  C    0.650887
    92  C   -0.294494
    93  H    0.154226
    94  H    0.163720
    95  O   -0.564432
    96  C   -0.087355
    97  H    0.143937
    98  C   -0.470833
    99  H    0.166392
   100  H    0.118156
   101  H    0.149910
   102  C   -0.442716
   103  H    0.154109
   104  H    0.116380
   105  H    0.156335
   106  N   -0.626356
   107  H    0.389824
   108  C   -0.000021
   109  H    0.160112
   110  C    0.666494
   111  C   -0.483983
   112  H    0.171676
   113  H    0.186116
   114  H    0.179811
   115  O   -0.603276
   116  N   -0.583646
   117  H    0.367442
   118  C   -0.080342
   119  H    0.181868
   120  C    0.625439
   121  C   -0.409406
   122  H    0.232122
   123  H    0.255405
   124  O   -0.523543
   125  C    0.324677
   126  C   -0.009980
   127  H    0.225338
   128  N   -0.598452
   129  H    0.454811
   130  C    0.306362
   131  H    0.243373
   132  N   -0.551741
   133  N   -0.591325
   134  H    0.342694
   135  C   -0.074834
   136  H    0.173702
   137  C    0.651584
   138  C    0.106115
   139  H    0.146553
   140  O   -0.593956
   141  C   -0.449959
   142  H    0.155531
   143  H    0.157609
   144  H    0.176304
   145  O   -0.650516
   146  H    0.414278
   147  N   -0.581195
   148  H    0.362147
   149  C   -0.071848
   150  H    0.177065
   151  C    0.624794
   152  C   -0.082066
   153  H    0.161648
   154  O   -0.566350
   155  C   -0.460647
   156  H    0.150815
   157  H    0.147643
   158  H    0.148193
   159  C   -0.474886
   160  H    0.163158
   161  H    0.149024
   162  H    0.165671
   163  N   -0.617299
   164  H    0.360781
   165  C   -0.064674
   166  H    0.155333
   167  C    0.602239
   168  C   -0.270760
   169  H    0.119789
   170  H    0.142712
   171  O   -0.558983
   172  C   -0.272915
   173  H    0.153635
   174  H    0.180455
   175  C   -0.171161
   176  H    0.176035
   177  H    0.166406
   178  N   -0.557365
   179  H    0.358516
   180  N   -0.724475
   181  H    0.370930
   182  H    0.375514
   183  N   -0.740459
   184  H    0.346929
   185  H    0.444949
   186  C    0.684365
   187  O   -0.622951
   188  H    0.387559
 Sum of Mulliken charges =   1.00000

 Dipole moment (field-independent basis, Debye):
    X=             26.1531    Y=             10.8167    Z=             12.3780  Tot=             30.8902
 Quadrupole moment (field-independent basis, Debye-Ang):
   XX=            -79.9109   YY=           -452.2506   ZZ=           -425.7627
   XY=            110.5460   XZ=             74.3517   YZ=             74.6945

 Normal termination of Gaussian 16 at Tue Aug  9 06:24:24 2022.
