 Gaussian 16, Revision C.01,
 Gaussian 16:  ES64L-G16RevC.01  3-Jul-2019

 ----------------------------------------------------------------------
 # B3LYP/6-31G* empiricaldispersion=gd3bj guess=read geom=check nosymm
 integral(ultrafinegrid)
 ----------------------------------------------------------------------

 ------------------------------------------------------
 Candidate Structure: Conf:535 Charge calc in gas phase
 ------------------------------------------------------
 Structure from the checkpoint file:  "conf-535.chk"
 Charge =  1 Multiplicity = 1

                          Input orientation:
 ---------------------------------------------------------------------
 Center     Atomic      Atomic             Coordinates (Angstroms)
 Number     Number       Type             X           Y           Z
 ---------------------------------------------------------------------
      1          7           0       -4.491432    3.325741  -13.665700
      2          1           0       -4.323154    4.169615  -13.116220
      3          1           0       -3.270676    2.053023  -13.437074
      4          1           0       -4.796605    3.592254  -14.598396
      5          6           0       -5.524871    2.536437  -12.975272
      6          1           0       -6.542290    2.883340  -13.213642
      7          6           0       -5.318621    2.788433  -11.467875
      8          6           0       -5.394590    1.057187  -13.385442
      9          1           0       -6.232249    0.455766  -13.024124
     10          1           0       -5.419055    1.000785  -14.481278
     11          8           0       -4.864607    3.862419  -11.074176
     12          6           0       -4.093464    0.416887  -12.886900
     13          8           0       -4.062192   -0.673328  -12.361932
     14          8           0       -2.994612    1.162470  -13.066470
     15          7           0       -5.669209    1.788931  -10.630346
     16          1           0       -5.966841    0.878595  -10.961541
     17          6           0       -5.389107    1.861776   -9.210182
     18          1           0       -4.439983    2.388555   -9.070050
     19          6           0       -5.306427    0.427089   -8.698497
     20          6           0       -6.501101    2.624548   -8.433582
     21          1           0       -7.460836    2.166411   -8.692214
     22          1           0       -6.502639    3.653382   -8.806095
     23          8           0       -6.064183   -0.441705   -9.126820
     24          6           0       -6.267711    2.567938   -6.944742
     25          6           0       -6.912591    1.607099   -6.153844
     26          1           0       -7.660773    0.962625   -6.607832
     27          6           0       -5.302304    3.379243   -6.339004
     28          1           0       -4.792618    4.137777   -6.928128
     29          6           0       -6.595311    1.441400   -4.808951
     30          1           0       -7.092879    0.693472   -4.200311
     31          6           0       -4.968625    3.221694   -4.994691
     32          1           0       -4.204587    3.851341   -4.543601
     33          8           0       -5.294255    2.016278   -2.914368
     34          1           0       -4.589912    2.628649   -2.650792
     35          6           0       -5.607117    2.241866   -4.233879
     36          7           0       -4.399656    0.205303   -7.718621
     37          1           0       -3.883908    0.974549   -7.306727
     38          6           0       -4.463901   -1.002041   -6.925251
     39          1           0       -5.503234   -1.344480   -6.916252
     40          6           0       -4.021992   -0.642949   -5.509525
     41          6           0       -3.589527   -2.141728   -7.521484
     42          1           0       -2.555075   -1.788592   -7.587859
     43          1           0       -3.951304   -2.303716   -8.541685
     44          8           0       -3.234563    0.291294   -5.303860
     45          6           0       -3.682683   -3.391203   -6.683354
     46          6           0       -2.642654   -3.770533   -5.824459
     47          1           0       -1.707271   -3.217685   -5.850917
     48          6           0       -4.875856   -4.122798   -6.632072
     49          1           0       -5.694656   -3.860788   -7.298089
     50          6           0       -2.783229   -4.825079   -4.929645
     51          1           0       -1.984131   -5.105191   -4.252809
     52          6           0       -5.035996   -5.181131   -5.736565
     53          1           0       -5.969578   -5.739635   -5.714133
     54          8           0       -4.082926   -6.548214   -3.971620
     55          1           0       -4.942472   -6.986219   -4.071823
     56          6           0       -3.989329   -5.531647   -4.876692
     57          7           0       -4.530080   -1.411397   -4.522225
     58          1           0       -5.011588   -2.264356   -4.782933
     59          6           0       -4.163856   -1.242680   -3.115871
     60          1           0       -4.101342   -0.165584   -2.939575
     61          6           0       -2.784028   -1.873870   -2.858578
     62          6           0       -5.244480   -1.853120   -2.220407
     63          1           0       -6.209365   -1.461262   -2.562440
     64          1           0       -5.250175   -2.938457   -2.363862
     65          8           0       -2.637584   -2.936610   -2.244896
     66          6           0       -5.044230   -1.522639   -0.758059
     67          6           0       -4.625501   -2.500864    0.149618
     68          1           0       -4.422213   -3.504332   -0.210174
     69          6           0       -5.280727   -0.222164   -0.292957
     70          1           0       -5.609509    0.543467   -0.990851
     71          6           0       -4.462998   -2.191935    1.499986
     72          1           0       -4.156460   -2.967173    2.196024
     73          6           0       -5.106250    0.091009    1.055015
     74          1           0       -5.303254    1.101042    1.403966
     75          6           0       -4.701633   -0.894720    1.957161
     76          1           0       -4.588525   -0.657000    3.011474
     77          7           0       -1.753908   -1.172300   -3.384713
     78          1           0       -2.000345   -0.378332   -3.977972
     79          6           0       -0.410662   -1.737594   -3.516652
     80          1           0       -0.526244   -2.815603   -3.688793
     81          6           0        0.377532   -1.575226   -2.203371
     82          6           0        0.312710   -1.085446   -4.687475
     83          1           0        1.298305   -1.535266   -4.824792
     84          1           0       -0.268586   -1.212866   -5.605556
     85          1           0        0.458414   -0.017173   -4.505481
     86          8           0        1.412370   -0.900420   -2.133306
     87          7           0       -0.146842   -2.237233   -1.147350
     88          1           0       -1.025422   -2.742747   -1.293010
     89          6           0        0.380509   -2.053126    0.200316
     90          1           0        0.727196   -1.014618    0.254798
     91          6           0        1.619416   -2.942825    0.419113
     92          6           0       -0.710795   -2.291459    1.245206
     93          1           0       -1.540810   -1.611478    1.017703
     94          1           0       -1.096411   -3.311051    1.133644
     95          8           0        1.614183   -3.923144    1.177927
     96          6           0       -0.270583   -2.097248    2.711723
     97          1           0        0.400195   -2.928804    2.953898
     98          6           0        0.492674   -0.783562    2.937007
     99          1           0       -0.083234    0.083389    2.591834
    100          1           0        0.669703   -0.630582    4.013713
    101          1           0        1.462456   -0.766945    2.425293
    102          6           0       -1.487970   -2.176877    3.639177
    103          1           0       -2.189148   -1.359389    3.438814
    104          1           0       -1.188308   -2.116905    4.692837
    105          1           0       -2.027426   -3.119429    3.499956
    106          7           0        2.716653   -2.524976   -0.249101
    107          1           0        2.588444   -1.753974   -0.910855
    108          6           0        4.020835   -3.188499   -0.150936
    109          1           0        3.843046   -4.267295   -0.081292
    110          6           0        4.646344   -2.698261    1.168546
    111          6           0        4.883598   -2.852645   -1.356945
    112          1           0        5.842606   -3.373190   -1.290683
    113          1           0        5.086398   -1.778812   -1.396594
    114          1           0        4.379987   -3.158374   -2.278129
    115          8           0        5.509093   -1.827930    1.240676
    116          7           0        4.066301   -3.247979    2.279297
    117          1           0        3.214204   -3.791459    2.113263
    118          6           0        4.177540   -2.511189    3.511273
    119          1           0        3.846025   -1.473036    3.348169
    120          6           0        5.616571   -2.483280    4.047354
    121          6           0        3.298289   -3.153443    4.609524
    122          1           0        3.641757   -4.178172    4.771044
    123          1           0        2.254564   -3.189341    4.278564
    124          8           0        6.233207   -3.499710    4.320283
    125          6           0        3.434062   -2.382908    5.881982
    126          6           0        4.228332   -2.581610    6.976628
    127          1           0        4.879545   -3.404268    7.224032
    128          7           0        2.850236   -1.131970    6.071802
    129          1           0        2.221456   -0.680962    5.415503
    130          6           0        3.281801   -0.583925    7.211880
    131          1           0        3.029178    0.393185    7.589675
    132          7           0        4.098873   -1.464871    7.786538
    133          7           0        6.074114   -1.220407    4.308650
    134          1           0        5.400799   -0.459877    4.262673
    135          6           0        7.087485   -0.974219    5.311791
    136          1           0        7.317951   -1.922444    5.806039
    137          6           0        6.465571   -0.002759    6.324113
    138          6           0        8.399080   -0.440848    4.648163
    139          1           0        8.890953    0.272500    5.316214
    140          8           0        5.461537    0.653340    6.026626
    141          6           0        9.331610   -1.591218    4.290934
    142          1           0        9.684460   -2.093620    5.198121
    143          1           0        8.815748   -2.334390    3.672802
    144          1           0       10.207678   -1.216945    3.752231
    145          8           0        8.048950    0.307396    3.462583
    146          1           0        7.334132   -0.201358    3.023682
    147          7           0        7.048598    0.009125    7.547577
    148          1           0        8.009638   -0.334597    7.545947
    149          6           0        6.989293    1.236429    8.362394
    150          1           0        6.033321    1.722879    8.156032
    151          6           0        8.159905    2.098404    7.835850
    152          6           0        7.115707    0.927332    9.867415
    153          1           0        8.133687    0.549703   10.037520
    154          8           0        9.169720    1.506071    7.405274
    155          6           0        6.911040    2.195915   10.708666
    156          1           0        5.884691    2.569283   10.599130
    157          1           0        7.577573    3.015669   10.429491
    158          1           0        7.071610    1.973720   11.768415
    159          6           0        6.124182   -0.162218   10.298472
    160          1           0        5.089668    0.169625   10.114171
    161          1           0        6.202559   -0.362613   11.371326
    162          1           0        6.312354   -1.108964    9.774327
    163          7           0        7.955094    3.407535    7.844190
    164          1           0        7.241740    3.867459    8.455924
    165          6           0        8.974930    4.428436    7.632418
    166          1           0        9.952350    4.035648    7.931571
    167          6           0        8.555898    5.628745    8.578606
    168          6           0        9.030311    4.894329    6.174001
    169          1           0        8.107027    5.440054    5.936054
    170          1           0        9.851907    5.613450    6.096104
    171          8           0        9.270450    6.633715    8.496016
    172          6           0        9.190438    3.721786    5.207007
    173          1           0        8.320749    3.061354    5.322538
    174          1           0       10.067500    3.121248    5.470118
    175          6           0        9.275856    4.132593    3.740026
    176          1           0       10.224350    4.639049    3.535298
    177          1           0        8.463061    4.815304    3.467974
    178          7           0        9.184117    2.920152    2.906300
    179          1           0        8.552380    2.191516    3.245703
    180          7           0       10.804782    3.414860    1.299405
    181          1           0       11.633518    3.082890    0.827805
    182          1           0       10.775715    4.394994    1.537303
    183          7           0       10.035559    1.242693    1.573300
    184          1           0       10.313302    0.994083    0.634713
    185          1           0        9.424779    0.603728    2.084708
    186          6           0       10.002554    2.539940    1.937906
    187          8           0        7.516490    5.388595    9.267344
    188          1           0        4.646686   -1.268395    8.621405
 ---------------------------------------------------------------------

 SCF Done:  E(RB3LYP) =  -4648.89363325     A.U. after    2 cycles

 Alpha  occ. eigenvalues --  -19.27464 -19.24413 -19.23523 -19.23449 -19.22553
 Alpha  occ. eigenvalues --  -19.21307 -19.20805 -19.19850 -19.19715 -19.19674
 Alpha  occ. eigenvalues --  -19.19505 -19.16984 -19.16908 -19.16718 -19.15078
 Alpha  occ. eigenvalues --  -19.07921 -19.06541 -14.56918 -14.56691 -14.49848
 Alpha  occ. eigenvalues --  -14.48739 -14.48545 -14.46609 -14.45699 -14.44555
 Alpha  occ. eigenvalues --  -14.44152 -14.43689 -14.43131 -14.42796 -14.41301
 Alpha  occ. eigenvalues --  -14.41054 -14.38735 -14.38719 -10.45478 -10.44104
 Alpha  occ. eigenvalues --  -10.39794 -10.39533 -10.39197 -10.38214 -10.37640
 Alpha  occ. eigenvalues --  -10.37234 -10.36308 -10.36249 -10.35913 -10.35145
 Alpha  occ. eigenvalues --  -10.34726 -10.34000 -10.33935 -10.33929 -10.33883
 Alpha  occ. eigenvalues --  -10.33598 -10.33577 -10.32332 -10.31881 -10.31262
 Alpha  occ. eigenvalues --  -10.30777 -10.30736 -10.30590 -10.30547 -10.30190
 Alpha  occ. eigenvalues --  -10.29476 -10.28821 -10.28530 -10.27848 -10.27581
 Alpha  occ. eigenvalues --  -10.27371 -10.27300 -10.27071 -10.26351 -10.25959
 Alpha  occ. eigenvalues --  -10.25621 -10.25568 -10.25365 -10.25302 -10.25216
 Alpha  occ. eigenvalues --  -10.25060 -10.24996 -10.24931 -10.24888 -10.24878
 Alpha  occ. eigenvalues --  -10.24789 -10.24682 -10.24680 -10.24599 -10.24596
 Alpha  occ. eigenvalues --  -10.24576 -10.24544 -10.24441 -10.24389 -10.24348
 Alpha  occ. eigenvalues --  -10.24226 -10.24208 -10.24150 -10.24143 -10.23266
 Alpha  occ. eigenvalues --  -10.22949 -10.22433  -1.21465  -1.15605  -1.14475
 Alpha  occ. eigenvalues --   -1.14335  -1.13698  -1.13125  -1.12226  -1.12104
 Alpha  occ. eigenvalues --   -1.11780  -1.11568  -1.11286  -1.11113  -1.10621
 Alpha  occ. eigenvalues --   -1.09286  -1.08477  -1.08446  -1.08239  -1.03507
 Alpha  occ. eigenvalues --   -1.03289  -1.03052  -1.02337  -1.02321  -1.02217
 Alpha  occ. eigenvalues --   -1.01020  -1.00907  -1.00469  -1.00141  -0.99245
 Alpha  occ. eigenvalues --   -0.98286  -0.97741  -0.95874  -0.95354  -0.95303
 Alpha  occ. eigenvalues --   -0.92082  -0.91478  -0.91223  -0.91007  -0.89988
 Alpha  occ. eigenvalues --   -0.89715  -0.88706  -0.87375  -0.86913  -0.86682
 Alpha  occ. eigenvalues --   -0.85944  -0.84963  -0.84204  -0.83741  -0.83268
 Alpha  occ. eigenvalues --   -0.82375  -0.82050  -0.81504  -0.80736  -0.80730
 Alpha  occ. eigenvalues --   -0.80389  -0.80018  -0.79893  -0.79601  -0.78726
 Alpha  occ. eigenvalues --   -0.78127  -0.77693  -0.77141  -0.76718  -0.75929
 Alpha  occ. eigenvalues --   -0.75555  -0.74626  -0.73538  -0.72967  -0.72594
 Alpha  occ. eigenvalues --   -0.72446  -0.72262  -0.71778  -0.71346  -0.70964
 Alpha  occ. eigenvalues --   -0.70553  -0.69464  -0.69135  -0.68122  -0.68063
 Alpha  occ. eigenvalues --   -0.67912  -0.67633  -0.67604  -0.67380  -0.66904
 Alpha  occ. eigenvalues --   -0.66337  -0.66063  -0.65921  -0.65605  -0.65400
 Alpha  occ. eigenvalues --   -0.65337  -0.64946  -0.64764  -0.64040  -0.63935
 Alpha  occ. eigenvalues --   -0.63657  -0.63497  -0.63139  -0.63053  -0.62985
 Alpha  occ. eigenvalues --   -0.62529  -0.62379  -0.62130  -0.61326  -0.61197
 Alpha  occ. eigenvalues --   -0.60989  -0.60916  -0.60708  -0.60416  -0.60167
 Alpha  occ. eigenvalues --   -0.60112  -0.59788  -0.59492  -0.58762  -0.58631
 Alpha  occ. eigenvalues --   -0.58252  -0.57992  -0.57947  -0.57075  -0.56923
 Alpha  occ. eigenvalues --   -0.56579  -0.56305  -0.56278  -0.56100  -0.55838
 Alpha  occ. eigenvalues --   -0.55590  -0.55366  -0.55227  -0.54994  -0.54785
 Alpha  occ. eigenvalues --   -0.54660  -0.54272  -0.54106  -0.53677  -0.53467
 Alpha  occ. eigenvalues --   -0.53129  -0.52639  -0.52501  -0.52471  -0.52318
 Alpha  occ. eigenvalues --   -0.52204  -0.52062  -0.51789  -0.51498  -0.51409
 Alpha  occ. eigenvalues --   -0.51125  -0.51076  -0.51050  -0.50923  -0.50628
 Alpha  occ. eigenvalues --   -0.50568  -0.50357  -0.50144  -0.49868  -0.49712
 Alpha  occ. eigenvalues --   -0.49668  -0.49538  -0.49352  -0.49174  -0.49131
 Alpha  occ. eigenvalues --   -0.48945  -0.48871  -0.48796  -0.48288  -0.48175
 Alpha  occ. eigenvalues --   -0.48081  -0.48065  -0.47829  -0.47778  -0.47750
 Alpha  occ. eigenvalues --   -0.47714  -0.47584  -0.47548  -0.47489  -0.47170
 Alpha  occ. eigenvalues --   -0.46900  -0.46771  -0.46724  -0.46600  -0.46566
 Alpha  occ. eigenvalues --   -0.46417  -0.46202  -0.46124  -0.46005  -0.45685
 Alpha  occ. eigenvalues --   -0.45535  -0.45482  -0.45341  -0.45011  -0.44967
 Alpha  occ. eigenvalues --   -0.44905  -0.44859  -0.44502  -0.44467  -0.44408
 Alpha  occ. eigenvalues --   -0.44381  -0.44234  -0.44141  -0.43854  -0.43517
 Alpha  occ. eigenvalues --   -0.43317  -0.43260  -0.43012  -0.42843  -0.42692
 Alpha  occ. eigenvalues --   -0.42541  -0.41937  -0.41593  -0.41559  -0.41539
 Alpha  occ. eigenvalues --   -0.41205  -0.41131  -0.41094  -0.41034  -0.40816
 Alpha  occ. eigenvalues --   -0.40807  -0.40649  -0.40585  -0.40368  -0.40237
 Alpha  occ. eigenvalues --   -0.40076  -0.39792  -0.39757  -0.39568  -0.39482
 Alpha  occ. eigenvalues --   -0.39376  -0.39275  -0.38921  -0.38502  -0.38219
 Alpha  occ. eigenvalues --   -0.38188  -0.37961  -0.37671  -0.37372  -0.37049
 Alpha  occ. eigenvalues --   -0.36535  -0.36231  -0.36051  -0.35938  -0.35640
 Alpha  occ. eigenvalues --   -0.35133  -0.35032  -0.34750  -0.33660  -0.32991
 Alpha  occ. eigenvalues --   -0.32901  -0.32470  -0.32122  -0.31941  -0.31793
 Alpha  occ. eigenvalues --   -0.31499  -0.31191  -0.31181  -0.30994  -0.30594
 Alpha  occ. eigenvalues --   -0.30577  -0.30472  -0.29979  -0.29949  -0.29781
 Alpha  occ. eigenvalues --   -0.28772  -0.27477  -0.27131  -0.22961  -0.22801
 Alpha  occ. eigenvalues --   -0.20753
 Alpha virt. eigenvalues --   -0.15785  -0.12079  -0.09887  -0.09844  -0.09081
 Alpha virt. eigenvalues --   -0.08693  -0.08013  -0.06950  -0.06544  -0.06461
 Alpha virt. eigenvalues --   -0.06276  -0.05873  -0.05650  -0.05633  -0.05424

 Mulliken charges:
               1
     1  N   -0.769463
     2  H    0.353328
     3  H    0.446007
     4  H    0.323809
     5  C   -0.089528
     6  H    0.172795
     7  C    0.630179
     8  C   -0.401740
     9  H    0.178577
    10  H    0.180426
    11  O   -0.540065
    12  C    0.593801
    13  O   -0.467075
    14  O   -0.590215
    15  N   -0.621092
    16  H    0.368899
    17  C   -0.015035
    18  H    0.173769
    19  C    0.612641
    20  C   -0.354256
    21  H    0.162299
    22  H    0.182456
    23  O   -0.544565
    24  C    0.149486
    25  C   -0.189985
    26  H    0.145774
    27  C   -0.207962
    28  H    0.147735
    29  C   -0.169124
    30  H    0.141304
    31  C   -0.175366
    32  H    0.126784
    33  O   -0.653882
    34  H    0.412340
    35  C    0.365736
    36  N   -0.603090
    37  H    0.358722
    38  C   -0.039749
    39  H    0.178264
    40  C    0.640021
    41  C   -0.352006
    42  H    0.156960
    43  H    0.205088
    44  O   -0.578088
    45  C    0.142136
    46  C   -0.200127
    47  H    0.132562
    48  C   -0.223507
    49  H    0.157078
    50  C   -0.143060
    51  H    0.147195
    52  C   -0.197018
    53  H    0.134050
    54  O   -0.636110
    55  H    0.412213
    56  C    0.347278
    57  N   -0.603650
    58  H    0.355789
    59  C   -0.069824
    60  H    0.201419
    61  C    0.652921
    62  C   -0.378483
    63  H    0.166478
    64  H    0.168789
    65  O   -0.557999
    66  C    0.148888
    67  C   -0.171097
    68  H    0.146870
    69  C   -0.199078
    70  H    0.165610
    71  C   -0.137864
    72  H    0.129499
    73  C   -0.139061
    74  H    0.132900
    75  C   -0.137448
    76  H    0.128474
    77  N   -0.621889
    78  H    0.387341
    79  C   -0.063049
    80  H    0.182515
    81  C    0.633428
    82  C   -0.472510
    83  H    0.170927
    84  H    0.166585
    85  H    0.175912
    86  O   -0.556240
    87  N   -0.629052
    88  H    0.393918
    89  C   -0.057595
    90  H    0.171961
    91  C    0.633280
    92  C   -0.285066
    93  H    0.169613
    94  H    0.165894
    95  O   -0.561380
    96  C   -0.098299
    97  H    0.159538
    98  C   -0.477479
    99  H    0.173734
   100  H    0.100478
   101  H    0.149642
   102  C   -0.452162
   103  H    0.159363
   104  H    0.123654
   105  H    0.161612
   106  N   -0.622434
   107  H    0.392489
   108  C   -0.058056
   109  H    0.186706
   110  C    0.623111
   111  C   -0.465500
   112  H    0.170800
   113  H    0.173422
   114  H    0.169400
   115  O   -0.541339
   116  N   -0.621268
   117  H    0.388621
   118  C   -0.020372
   119  H    0.137814
   120  C    0.637377
   121  C   -0.403598
   122  H    0.223923
   123  H    0.206894
   124  O   -0.508522
   125  C    0.307817
   126  C    0.002127
   127  H    0.236779
   128  N   -0.597094
   129  H    0.399180
   130  C    0.342149
   131  H    0.263973
   132  N   -0.544910
   133  N   -0.633637
   134  H    0.352393
   135  C   -0.095388
   136  H    0.193060
   137  C    0.610677
   138  C    0.096486
   139  H    0.212608
   140  O   -0.554310
   141  C   -0.472880
   142  H    0.168112
   143  H    0.181642
   144  H    0.159378
   145  O   -0.668101
   146  H    0.436396
   147  N   -0.598260
   148  H    0.347630
   149  C   -0.081033
   150  H    0.161789
   151  C    0.612256
   152  C   -0.088282
   153  H    0.154972
   154  O   -0.587980
   155  C   -0.471077
   156  H    0.143631
   157  H    0.213754
   158  H    0.156400
   159  C   -0.463644
   160  H    0.118731
   161  H    0.184149
   162  H    0.133627
   163  N   -0.594380
   164  H    0.364835
   165  C   -0.087077
   166  H    0.156338
   167  C    0.593952
   168  C   -0.258875
   169  H    0.139696
   170  H    0.168808
   171  O   -0.570640
   172  C   -0.286266
   173  H    0.142502
   174  H    0.169314
   175  C   -0.157012
   176  H    0.160628
   177  H    0.185148
   178  N   -0.608796
   179  H    0.403387
   180  N   -0.750543
   181  H    0.376382
   182  H    0.383151
   183  N   -0.783394
   184  H    0.364120
   185  H    0.401665
   186  C    0.776721
   187  O   -0.619856
   188  H    0.402193
 Sum of Mulliken charges =   1.00000

 Dipole moment (field-independent basis, Debye):
    X=             11.3498    Y=            -10.5940    Z=              1.3980  Tot=             15.5886
 Quadrupole moment (field-independent basis, Debye-Ang):
   XX=           -338.0075   YY=           -614.6809   ZZ=           -490.1678
   XY=            -66.4950   XZ=             14.5516   YZ=           -187.8634

 Normal termination of Gaussian 16 at Tue Aug  9 06:26:09 2022.
