 Gaussian 16, Revision C.01,
 Gaussian 16:  ES64L-G16RevC.01  3-Jul-2019

 ----------------------------------------------------------------------
 # B3LYP/6-31G* empiricaldispersion=gd3 guess=read geom=check nosymm in
 tegral(ultrafinegrid)
 ----------------------------------------------------------------------

 ------------------------------------------------------
 Candidate Structure: Conf:156 Charge calc in gas phase
 ------------------------------------------------------
 Structure from the checkpoint file:  "conf-156.chk"
 Charge =  1 Multiplicity = 1

                          Input orientation:
 ---------------------------------------------------------------------
 Center     Atomic      Atomic             Coordinates (Angstroms)
 Number     Number       Type             X           Y           Z
 ---------------------------------------------------------------------
      1          7           0       -4.450207    2.106323   -3.611374
      2          1           0       -4.712710    1.437776   -2.610363
      3          1           0       -3.538690    2.526353   -3.366342
      4          1           0       -5.090963    2.861505   -3.894586
      5          6           0       -4.261094    1.182374   -4.809056
      6          1           0       -5.248906    0.814807   -5.089037
      7          6           0       -3.339136    0.085782   -4.273870
      8          6           0       -3.637171    1.981143   -5.950486
      9          1           0       -2.615513    2.249838   -5.645138
     10          8           0       -2.167670    0.409950   -3.943321
     11          6           0       -3.620304    1.177840   -7.252823
     12          1           0       -3.049002    0.251489   -7.130475
     13          1           0       -3.154396    1.758366   -8.056107
     14          1           0       -4.646958    0.937481   -7.545600
     15          8           0       -4.514483    3.150241   -6.023878
     16          1           0       -4.247469    3.712709   -6.796438
     17          7           0       -3.891256   -1.129682   -4.098487
     18          1           0       -4.826665   -1.269384   -4.489762
     19          6           0       -3.747884   -1.958777   -2.861106
     20          1           0       -4.152433   -1.314239   -2.077068
     21          6           0       -2.379582   -2.370869   -2.329634
     22          6           0       -4.673174   -3.191410   -2.976729
     23          1           0       -4.255617   -3.894204   -3.705224
     24          1           0       -4.659296   -3.671020   -1.993140
     25          8           0       -2.375823   -3.017755   -1.246099
     26          6           0       -6.088480   -2.800688   -3.387817
     27          6           0       -6.738497   -1.690908   -2.813935
     28          1           0       -6.231467   -1.071839   -2.081309
     29          6           0       -6.756674   -3.542174   -4.371974
     30          1           0       -6.260701   -4.393593   -4.825918
     31          6           0       -8.032946   -1.352438   -3.213868
     32          1           0       -8.526598   -0.500139   -2.760924
     33          6           0       -8.054588   -3.204793   -4.763328
     34          1           0       -8.560112   -3.795047   -5.518426
     35          6           0       -8.696798   -2.109132   -4.183718
     36          1           0       -9.703644   -1.845972   -4.485263
     37          7           0       -1.260585   -1.942188   -2.944319
     38          1           0       -1.346503   -1.146519   -3.590521
     39          6           0        0.051457   -2.109957   -2.265499
     40          1           0        0.016805   -3.058821   -1.727153
     41          6           0        0.146926   -0.934263   -1.273461
     42          6           0        1.179085   -2.060815   -3.292127
     43          1           0        2.144737   -2.201621   -2.798908
     44          1           0        1.191504   -1.082528   -3.780702
     45          1           0        1.037606   -2.844542   -4.039941
     46          8           0        0.836198    0.090453   -1.531018
     47          7           0       -0.644109   -1.036047   -0.181889
     48          1           0       -1.195649   -1.891321   -0.065074
     49          6           0       -0.967236    0.173210    0.615343
     50          1           0       -0.975686    0.993757   -0.092846
     51          6           0        0.114866    0.507894    1.665787
     52          6           0       -2.340653    0.095267    1.293180
     53          1           0       -2.491082    1.049656    1.806445
     54          1           0       -2.311558   -0.672935    2.071786
     55          8           0       -0.106459    0.511624    2.888122
     56          6           0       -3.508736   -0.172110    0.335263
     57          1           0       -3.403453   -1.158953   -0.130319
     58          1           0       -4.451461   -0.202367    0.894491
     59          6           0       -3.683359    0.858007   -0.775806
     60          8           0       -4.678327    0.601638   -1.601881
     61          8           0       -2.922724    1.862044   -0.928604
     62          7           0        1.303855    0.872435    1.098995
     63          1           0        1.395632    0.817020    0.078058
     64          6           0        2.421218    1.308508    1.925241
     65          1           0        2.074645    1.236312    2.962417
     66          6           0        2.756913    2.762154    1.562694
     67          6           0        3.675134    0.426040    1.680669
     68          1           0        4.397185    0.525994    2.499153
     69          1           0        4.161319    0.727903    0.748635
     70          1           0        3.366178   -0.620103    1.633308
     71          8           0        2.059456    3.468728    0.782088
     72          7           0        3.917591    3.259665    2.046132
     73          1           0        4.540262    2.668472    2.586143
     74          6           0        4.512403    4.405621    1.345382
     75          1           0        3.804003    5.235273    1.361576
     76          6           0        4.734231    3.959761   -0.120618
     77          6           0        5.858213    4.794005    1.983436
     78          1           0        6.540058    3.937512    1.889486
     79          1           0        6.289347    5.617962    1.400562
     80          8           0        4.840591    2.755093   -0.434907
     81          6           0        5.755247    5.228256    3.465500
     82          1           0        5.312155    4.406195    4.043292
     83          6           0        7.172075    5.510346    4.011974
     84          1           0        7.631578    6.336829    3.456138
     85          1           0        7.815952    4.628496    3.916268
     86          1           0        7.126111    5.791926    5.069118
     87          6           0        4.861628    6.476356    3.623856
     88          1           0        5.260410    7.302342    3.021592
     89          1           0        4.840570    6.796784    4.670726
     90          1           0        3.830199    6.277723    3.313118
     91          7           0        4.790740    4.977624   -1.006758
     92          1           0        4.759672    5.946117   -0.701863
     93          6           0        5.025222    4.770113   -2.443747
     94          1           0        5.799187    4.001351   -2.566431
     95          6           0        5.542378    6.058120   -3.075491
     96          6           0        3.745599    4.327167   -3.215083
     97          1           0        3.863335    4.637785   -4.257347
     98          1           0        2.903738    4.877696   -2.781681
     99          8           0        5.692965    6.234750   -4.274344
    100          6           0        3.484511    2.796957   -3.139521
    101          1           0        3.937756    2.394590   -2.231585
    102          1           0        3.954676    2.301906   -3.996310
    103          6           0        1.986558    2.458415   -3.140544
    104          1           0        1.845125    1.372766   -3.141274
    105          1           0        1.495556    2.900528   -4.017021
    106          7           0        1.362176    3.006482   -1.913645
    107          1           0        1.959303    3.265308   -1.121596
    108          7           0       -0.807553    2.378762   -2.553560
    109          1           0       -1.723655    2.100317   -2.181999
    110          1           0       -0.478292    1.846070   -3.346726
    111          7           0       -0.412673    3.241055   -0.440660
    112          1           0        0.282200    3.428073    0.292500
    113          1           0       -1.392907    3.055648   -0.230065
    114          6           0        0.057544    2.868024   -1.644331
    115          8           0        5.798163    7.029403   -2.125238
    116          1           0        6.128204    7.854126   -2.577298
 ---------------------------------------------------------------------

 SCF Done:  E(RB3LYP) =  -2782.50515743     A.U. after   13 cycles

 Alpha  occ. eigenvalues --  -19.29083 -19.26320 -19.25310 -19.23088 -19.22716
 Alpha  occ. eigenvalues --  -19.22179 -19.21790 -19.21442 -19.20892 -19.20690
 Alpha  occ. eigenvalues --  -19.18360 -14.50462 -14.48058 -14.45774 -14.45632
 Alpha  occ. eigenvalues --  -14.45269 -14.45078 -14.44877 -14.44298 -14.43890
 Alpha  occ. eigenvalues --  -14.42311 -10.42167 -10.41565 -10.41190 -10.39819
 Alpha  occ. eigenvalues --  -10.38828 -10.38541 -10.38052 -10.38013 -10.36226
 Alpha  occ. eigenvalues --  -10.35949 -10.35570 -10.33421 -10.33169 -10.32505
 Alpha  occ. eigenvalues --  -10.32389 -10.31543 -10.31091 -10.30471 -10.28738
 Alpha  occ. eigenvalues --  -10.28050 -10.27764 -10.27674 -10.27449 -10.27277
 Alpha  occ. eigenvalues --  -10.26966 -10.26566 -10.26516 -10.26505 -10.26426
 Alpha  occ. eigenvalues --  -10.26392 -10.26384 -10.26342 -10.26279 -10.25953
 Alpha  occ. eigenvalues --  -10.24610 -10.24260  -1.18328  -1.16068  -1.14306
 Alpha  occ. eigenvalues --   -1.13348  -1.12482  -1.12308  -1.11476  -1.11375
 Alpha  occ. eigenvalues --   -1.10015  -1.09766  -1.09234  -1.06021  -1.04463
 Alpha  occ. eigenvalues --   -1.04201  -1.01910  -1.01703  -1.01432  -1.00495
 Alpha  occ. eigenvalues --   -0.99402  -0.98939  -0.97458  -0.93271  -0.89803
 Alpha  occ. eigenvalues --   -0.89743  -0.88233  -0.88140  -0.87415  -0.85584
 Alpha  occ. eigenvalues --   -0.85366  -0.84110  -0.82389  -0.81864  -0.81816
 Alpha  occ. eigenvalues --   -0.80607  -0.79946  -0.77060  -0.75366  -0.74953
 Alpha  occ. eigenvalues --   -0.74210  -0.73965  -0.73204  -0.72917  -0.72301
 Alpha  occ. eigenvalues --   -0.70819  -0.70330  -0.70208  -0.68472  -0.68298
 Alpha  occ. eigenvalues --   -0.68077  -0.67931  -0.67601  -0.67421  -0.66867
 Alpha  occ. eigenvalues --   -0.66800  -0.65764  -0.65291  -0.64500  -0.64201
 Alpha  occ. eigenvalues --   -0.63521  -0.62317  -0.62250  -0.61523  -0.61270
 Alpha  occ. eigenvalues --   -0.60761  -0.60346  -0.59667  -0.59178  -0.59002
 Alpha  occ. eigenvalues --   -0.58759  -0.58317  -0.57906  -0.57513  -0.57122
 Alpha  occ. eigenvalues --   -0.56959  -0.56638  -0.56095  -0.55833  -0.55554
 Alpha  occ. eigenvalues --   -0.55236  -0.54900  -0.54604  -0.54331  -0.54169
 Alpha  occ. eigenvalues --   -0.53708  -0.53485  -0.53187  -0.52881  -0.52815
 Alpha  occ. eigenvalues --   -0.52079  -0.51979  -0.51723  -0.51265  -0.51169
 Alpha  occ. eigenvalues --   -0.50958  -0.50693  -0.50511  -0.50029  -0.49717
 Alpha  occ. eigenvalues --   -0.49640  -0.49624  -0.49575  -0.49160  -0.49094
 Alpha  occ. eigenvalues --   -0.49017  -0.48592  -0.48526  -0.48245  -0.48116
 Alpha  occ. eigenvalues --   -0.47990  -0.47688  -0.47517  -0.47101  -0.46986
 Alpha  occ. eigenvalues --   -0.46350  -0.46291  -0.46107  -0.46041  -0.45690
 Alpha  occ. eigenvalues --   -0.45316  -0.45061  -0.44863  -0.44684  -0.44154
 Alpha  occ. eigenvalues --   -0.43948  -0.43678  -0.43493  -0.43246  -0.43192
 Alpha  occ. eigenvalues --   -0.43063  -0.42797  -0.42374  -0.41953  -0.41538
 Alpha  occ. eigenvalues --   -0.41242  -0.40611  -0.40536  -0.40203  -0.39846
 Alpha  occ. eigenvalues --   -0.39653  -0.38586  -0.38213  -0.37684  -0.37003
 Alpha  occ. eigenvalues --   -0.36845  -0.36572  -0.36436  -0.36165  -0.35947
 Alpha  occ. eigenvalues --   -0.35402  -0.35275  -0.34710  -0.34574  -0.34413
 Alpha  occ. eigenvalues --   -0.33645  -0.33410  -0.32602  -0.32168  -0.32035
 Alpha  occ. eigenvalues --   -0.31230
 Alpha virt. eigenvalues --   -0.13149  -0.09782  -0.09162  -0.08687  -0.08181
 Alpha virt. eigenvalues --   -0.07755  -0.07553  -0.06686  -0.06255  -0.05710
 Alpha virt. eigenvalues --   -0.04999  -0.04325  -0.02484  -0.02479  -0.01996

 Mulliken charges:
               1
     1  N   -0.792273
     2  H    0.471090
     3  H    0.382462
     4  H    0.395371
     5  C   -0.079068
     6  H    0.194263
     7  C    0.628604
     8  C    0.145514
     9  H    0.154344
    10  O   -0.579767
    11  C   -0.480989
    12  H    0.170201
    13  H    0.173375
    14  H    0.176678
    15  O   -0.654351
    16  H    0.414411
    17  N   -0.613714
    18  H    0.360079
    19  C   -0.091817
    20  H    0.239319
    21  C    0.650135
    22  C   -0.348214
    23  H    0.164108
    24  H    0.212316
    25  O   -0.568961
    26  C    0.086356
    27  C   -0.206830
    28  H    0.177289
    29  C   -0.182503
    30  H    0.141803
    31  C   -0.143568
    32  H    0.143667
    33  C   -0.128626
    34  H    0.150196
    35  C   -0.126719
    36  H    0.148762
    37  N   -0.613135
    38  H    0.380973
    39  C   -0.069852
    40  H    0.198434
    41  C    0.625477
    42  C   -0.452039
    43  H    0.174049
    44  H    0.159072
    45  H    0.168998
    46  O   -0.578164
    47  N   -0.607104
    48  H    0.382652
    49  C   -0.082179
    50  H    0.186808
    51  C    0.615198
    52  C   -0.283444
    53  H    0.170400
    54  H    0.177847
    55  O   -0.523722
    56  C   -0.392446
    57  H    0.192720
    58  H    0.193782
    59  C    0.629217
    60  O   -0.629415
    61  O   -0.587708
    62  N   -0.628811
    63  H    0.385727
    64  C   -0.072743
    65  H    0.216942
    66  C    0.657534
    67  C   -0.482861
    68  H    0.148704
    69  H    0.201662
    70  H    0.177272
    71  O   -0.591804
    72  N   -0.579708
    73  H    0.350148
    74  C   -0.051109
    75  H    0.183020
    76  C    0.641354
    77  C   -0.299207
    78  H    0.156613
    79  H    0.154051
    80  O   -0.544432
    81  C   -0.078538
    82  H    0.130338
    83  C   -0.442909
    84  H    0.148725
    85  H    0.148503
    86  H    0.159852
    87  C   -0.453586
    88  H    0.143463
    89  H    0.163962
    90  H    0.150398
    91  N   -0.624112
    92  H    0.364261
    93  C   -0.044200
    94  H    0.214981
    95  C    0.594895
    96  C   -0.284457
    97  H    0.187582
    98  H    0.158323
    99  O   -0.441862
   100  C   -0.342428
   101  H    0.221156
   102  H    0.158585
   103  C   -0.157283
   104  H    0.200095
   105  H    0.151334
   106  N   -0.645211
   107  H    0.401524
   108  N   -0.826794
   109  H    0.414106
   110  H    0.366970
   111  N   -0.809183
   112  H    0.407371
   113  H    0.385782
   114  C    0.805214
   115  O   -0.600171
   116  H    0.431601
 Sum of Mulliken charges =   1.00000

 Dipole moment (field-independent basis, Debye):
    X=             -1.9727    Y=             11.6786    Z=            -14.5565  Tot=             18.7663
 Quadrupole moment (field-independent basis, Debye-Ang):
   XX=           -214.8224   YY=           -253.2263   ZZ=           -243.6485
   XY=             45.5262   XZ=             81.0273   YZ=             -3.4715

 Normal termination of Gaussian 16 at Wed Jul 20 06:10:52 2022.
