 Gaussian 16, Revision C.01,
 Gaussian 16:  ES64L-G16RevC.01  3-Jul-2019

 ----------------------------------------------------------------------
 # B3LYP/6-31G* empiricaldispersion=gd3 guess=read geom=check nosymm in
 tegral(ultrafinegrid)
 ----------------------------------------------------------------------

 ------------------------------------------------------
 Candidate Structure: Conf:365 Charge calc in gas phase
 ------------------------------------------------------
 Structure from the checkpoint file:  "conf-365.chk"
 Charge =  1 Multiplicity = 1

                          Input orientation:
 ---------------------------------------------------------------------
 Center     Atomic      Atomic             Coordinates (Angstroms)
 Number     Number       Type             X           Y           Z
 ---------------------------------------------------------------------
      1          7           0       -5.963311    5.838973    1.151604
      2          1           0       -6.605715    6.219650    0.461067
      3          1           0       -5.064718    6.307316    1.048076
      4          6           0       -5.779968    4.412673    0.966862
      5          1           0       -6.671094    3.891835    1.340061
      6          6           0       -4.557704    3.983202    1.786558
      7          6           0       -5.536654    3.966923   -0.514753
      8          1           0       -6.426623    4.227833   -1.101687
      9          1           0       -4.681358    4.517072   -0.913622
     10          8           0       -3.544925    4.687385    1.825334
     11          6           0       -5.224584    2.481153   -0.627198
     12          7           0       -6.269427    1.639057   -0.316892
     13          1           0       -6.109689    0.653041   -0.486388
     14          1           0       -7.223952    1.958975   -0.416825
     15          8           0       -4.099889    2.054382   -0.852095
     16          7           0       -4.647908    2.774160    2.392991
     17          1           0       -5.438868    2.185734    2.165617
     18          6           0       -3.518168    2.158505    3.094044
     19          1           0       -2.977100    2.990820    3.553605
     20          6           0       -2.566133    1.513978    2.062527
     21          6           0       -4.006875    1.213470    4.213108
     22          1           0       -4.567284    1.862847    4.901382
     23          8           0       -2.467995    0.289767    1.897360
     24          6           0       -2.831479    0.604663    5.006915
     25          1           0       -2.314213   -0.116860    4.364801
     26          1           0       -3.263580    0.037445    5.841200
     27          6           0       -4.956499    0.105849    3.724345
     28          1           0       -4.460238   -0.537122    2.994283
     29          1           0       -5.275866   -0.508861    4.572935
     30          1           0       -5.872696    0.505608    3.271462
     31          6           0       -1.828237    1.627707    5.555094
     32          1           0       -1.133541    1.156058    6.260527
     33          1           0       -1.221098    2.072066    4.759560
     34          1           0       -2.336167    2.436278    6.094575
     35          7           0       -1.844030    2.408055    1.347859
     36          1           0       -2.072867    3.393389    1.478936
     37          6           0       -1.154269    2.041516    0.104581
     38          1           0       -1.749940    1.254906   -0.374017
     39          6           0        0.231858    1.459457    0.426450
     40          6           0       -1.054832    3.252518   -0.814387
     41          1           0       -0.516941    2.988359   -1.728033
     42          1           0       -2.063782    3.578811   -1.073391
     43          1           0       -0.506156    4.067093   -0.331869
     44          8           0        1.288805    1.971962    0.049318
     45          7           0        0.214343    0.307875    1.159736
     46          1           0       -0.693078    0.011148    1.542374
     47          6           0        1.435903   -0.120746    1.821795
     48          1           0        2.028733    0.765263    2.079152
     49          6           0        2.225169   -0.930507    0.803308
     50          6           0        1.124448   -0.889015    3.117630
     51          1           0        0.533339   -1.781603    2.864424
     52          8           0        2.157552   -2.227980    0.881175
     53          6           0        2.390049   -1.294420    3.873288
     54          1           0        2.997243   -2.005748    3.304971
     55          1           0        2.116398   -1.777267    4.817423
     56          1           0        2.989373   -0.408634    4.109011
     57          8           0        0.347735    0.038325    3.866041
     58          1           0       -0.010556   -0.409279    4.647213
     59          7           0        2.896099   -0.289913   -0.121041
     60          1           0        2.733760    0.738627   -0.183778
     61          6           0        3.804238   -0.853134   -1.125197
     62          1           0        4.576221   -1.439064   -0.608493
     63          6           0        4.464989    0.368888   -1.823268
     64          6           0        3.099102   -1.765086   -2.144413
     65          1           0        3.754583   -1.954066   -2.999012
     66          1           0        2.186666   -1.284505   -2.506324
     67          8           0        4.022300    1.495764   -1.646378
     68          8           0        2.706917   -3.011504   -1.533827
     69          1           0        3.381691   -3.688598   -1.701771
     70          7           0        5.502322    0.061402   -2.618399
     71          1           0        5.908067   -0.870286   -2.692749
     72          6           0        6.250233    1.062182   -3.352593
     73          1           0        5.602964    1.585651   -4.065947
     74          1           0        6.662423    1.818202   -2.672429
     75          6           0        7.377252    0.315115   -4.084204
     76          8           0        7.508398   -0.902475   -3.946395
     77          7           0        8.160021    1.084535   -4.863778
     78          1           0        8.077582    2.095595   -4.827738
     79          6           0        9.354778    0.581904   -5.532818
     80          1           0        9.705320   -0.301298   -4.989540
     81          6           0       10.408941    1.678616   -5.444100
     82          6           0        9.105977    0.203312   -7.010871
     83          1           0        8.761106    1.097699   -7.547261
     84          1           0       10.069898   -0.080463   -7.449182
     85          8           0       10.175595    2.826418   -5.129095
     86          6           0        8.096360   -0.935228   -7.186708
     87          1           0        8.440931   -1.816060   -6.628810
     88          1           0        7.136769   -0.648310   -6.737854
     89          6           0        7.881025   -1.291572   -8.661418
     90          1           0        8.845333   -1.561728   -9.117788
     91          1           0        7.510477   -0.419118   -9.214517
     92          6           0        6.893457   -2.444056   -8.857711
     93          1           0        7.260479   -3.329276   -8.303186
     94          1           0        5.930426   -2.171632   -8.404451
     95          7           0        6.661688   -2.678975  -10.285761
     96          1           0        5.977039   -3.422524  -10.411762
     97          1           0        7.520964   -3.012596  -10.721514
     98          8           0       11.622386    1.225425   -5.800192
     99          1           0       12.239052    1.981919   -5.765669
    100          1           0        2.431360   -2.685035    0.022487
 ---------------------------------------------------------------------

 SCF Done:  E(RB3LYP) =  -2418.55668317     A.U. after    3 cycles

 Alpha  occ. eigenvalues --  -19.33763 -19.31972 -19.27957 -19.24321 -19.23337
 Alpha  occ. eigenvalues --  -19.22511 -19.21690 -19.21527 -19.19995 -19.19814
 Alpha  occ. eigenvalues --  -19.19753 -14.51976 -14.47293 -14.45378 -14.44843
 Alpha  occ. eigenvalues --  -14.44185 -14.44021 -14.43100 -14.38187 -14.36115
 Alpha  occ. eigenvalues --  -10.46143 -10.40937 -10.40465 -10.38943 -10.38637
 Alpha  occ. eigenvalues --  -10.38107 -10.37667 -10.37224 -10.36546 -10.36474
 Alpha  occ. eigenvalues --  -10.35230 -10.34761 -10.33237 -10.32142 -10.30704
 Alpha  occ. eigenvalues --  -10.30629 -10.30610 -10.27356 -10.27354 -10.26422
 Alpha  occ. eigenvalues --  -10.26329 -10.26068 -10.24733 -10.24625 -10.24230
 Alpha  occ. eigenvalues --  -10.23918 -10.23877 -10.23660  -1.24384  -1.18999
 Alpha  occ. eigenvalues --   -1.18311  -1.15758  -1.13544  -1.13402  -1.12001
 Alpha  occ. eigenvalues --   -1.11963  -1.11394  -1.11031  -1.10161  -1.09085
 Alpha  occ. eigenvalues --   -1.03807  -1.02071  -1.01997  -1.00752  -0.99613
 Alpha  occ. eigenvalues --   -0.98558  -0.95947  -0.92937  -0.92477  -0.88837
 Alpha  occ. eigenvalues --   -0.88109  -0.88027  -0.84547  -0.84209  -0.83634
 Alpha  occ. eigenvalues --   -0.82783  -0.81938  -0.80215  -0.79245  -0.77989
 Alpha  occ. eigenvalues --   -0.76637  -0.75812  -0.73223  -0.72463  -0.72122
 Alpha  occ. eigenvalues --   -0.71989  -0.70805  -0.69889  -0.69586  -0.68351
 Alpha  occ. eigenvalues --   -0.67907  -0.67748  -0.67052  -0.66529  -0.65841
 Alpha  occ. eigenvalues --   -0.65322  -0.64646  -0.64202  -0.63604  -0.63468
 Alpha  occ. eigenvalues --   -0.63204  -0.61694  -0.61212  -0.60964  -0.60521
 Alpha  occ. eigenvalues --   -0.59297  -0.59088  -0.58117  -0.57889  -0.57617
 Alpha  occ. eigenvalues --   -0.56942  -0.56643  -0.56098  -0.55651  -0.55256
 Alpha  occ. eigenvalues --   -0.55064  -0.54945  -0.54701  -0.54554  -0.54182
 Alpha  occ. eigenvalues --   -0.53777  -0.53460  -0.53140  -0.52485  -0.52453
 Alpha  occ. eigenvalues --   -0.52367  -0.51572  -0.51301  -0.51165  -0.50689
 Alpha  occ. eigenvalues --   -0.50469  -0.50307  -0.50039  -0.49641  -0.49297
 Alpha  occ. eigenvalues --   -0.49011  -0.48611  -0.48333  -0.48155  -0.48101
 Alpha  occ. eigenvalues --   -0.48011  -0.47687  -0.47519  -0.47284  -0.46855
 Alpha  occ. eigenvalues --   -0.46653  -0.46616  -0.46313  -0.45475  -0.45379
 Alpha  occ. eigenvalues --   -0.45192  -0.44942  -0.44377  -0.43943  -0.43670
 Alpha  occ. eigenvalues --   -0.43402  -0.43353  -0.42824  -0.42751  -0.42421
 Alpha  occ. eigenvalues --   -0.41798  -0.41717  -0.40755  -0.40026  -0.39962
 Alpha  occ. eigenvalues --   -0.39481  -0.39369  -0.39212  -0.38793  -0.37800
 Alpha  occ. eigenvalues --   -0.37087  -0.37015  -0.36401  -0.36318  -0.35788
 Alpha  occ. eigenvalues --   -0.35533  -0.35480  -0.35338  -0.34533  -0.34134
 Alpha  occ. eigenvalues --   -0.33376  -0.32522  -0.31737  -0.30038  -0.28341
 Alpha virt. eigenvalues --   -0.15504  -0.09726  -0.07640  -0.07512  -0.07325
 Alpha virt. eigenvalues --   -0.06862  -0.06822  -0.06389  -0.05027  -0.02615
 Alpha virt. eigenvalues --   -0.02260  -0.01528  -0.00759  -0.00156   0.00064

 Mulliken charges:
               1
     1  N   -0.706108
     2  H    0.305630
     3  H    0.327318
     4  C   -0.049228
     5  H    0.145394
     6  C    0.633910
     7  C   -0.371882
     8  H    0.158659
     9  H    0.188585
    10  O   -0.552315
    11  C    0.559892
    12  N   -0.739950
    13  H    0.352101
    14  H    0.344401
    15  O   -0.492392
    16  N   -0.604737
    17  H    0.353413
    18  C   -0.075889
    19  H    0.193859
    20  C    0.657479
    21  C   -0.081679
    22  H    0.143994
    23  O   -0.566536
    24  C   -0.276228
    25  H    0.147895
    26  H    0.140632
    27  C   -0.481520
    28  H    0.185866
    29  H    0.156540
    30  H    0.128481
    31  C   -0.466452
    32  H    0.137367
    33  H    0.164438
    34  H    0.155692
    35  N   -0.616263
    36  H    0.388804
    37  C   -0.051742
    38  H    0.203602
    39  C    0.627674
    40  C   -0.476589
    41  H    0.164574
    42  H    0.183820
    43  H    0.168824
    44  O   -0.533632
    45  N   -0.632439
    46  H    0.409303
    47  C   -0.045944
    48  H    0.207488
    49  C    0.643520
    50  C    0.117570
    51  H    0.154735
    52  O   -0.575123
    53  C   -0.478729
    54  H    0.157811
    55  H    0.168830
    56  H    0.172888
    57  O   -0.620626
    58  H    0.415616
    59  N   -0.599112
    60  H    0.456748
    61  C   -0.103901
    62  H    0.194340
    63  C    0.624260
    64  C   -0.064612
    65  H    0.194721
    66  H    0.214239
    67  O   -0.490243
    68  O   -0.630634
    69  H    0.438803
    70  N   -0.631329
    71  H    0.358753
    72  C   -0.201705
    73  H    0.207200
    74  H    0.209189
    75  C    0.612810
    76  O   -0.535193
    77  N   -0.604428
    78  H    0.358000
    79  C   -0.052200
    80  H    0.202692
    81  C    0.586934
    82  C   -0.264995
    83  H    0.149706
    84  H    0.170851
    85  O   -0.463677
    86  C   -0.259253
    87  H    0.147377
    88  H    0.132921
    89  C   -0.253331
    90  H    0.131803
    91  H    0.153132
    92  C   -0.130379
    93  H    0.112051
    94  H    0.130453
    95  N   -0.714375
    96  H    0.299316
    97  H    0.297005
    98  O   -0.555749
    99  H    0.428122
   100  H    0.473089
 Sum of Mulliken charges =   1.00000

 Dipole moment (field-independent basis, Debye):
    X=              8.8223    Y=             -4.5855    Z=             -5.0329  Tot=             11.1440
 Quadrupole moment (field-independent basis, Debye-Ang):
   XX=            -74.9408   YY=           -260.4116   ZZ=           -219.3721
   XY=            -40.0461   XZ=            -65.7144   YZ=             -0.6228

 Normal termination of Gaussian 16 at Mon Jun  6 06:22:47 2022.
