 Gaussian 16, Revision C.01,
 Gaussian 16:  ES64L-G16RevC.01  3-Jul-2019

 ----------------------------------------------------------------------
 # B3LYP/6-31G* empiricaldispersion=gd3 guess=read geom=check nosymm in
 tegral(ultrafinegrid)
 ----------------------------------------------------------------------

 ------------------------------------------------------
 Candidate Structure: Conf:497 Charge calc in gas phase
 ------------------------------------------------------
 Structure from the checkpoint file:  "conf-497.chk"
 Charge =  1 Multiplicity = 1

                          Input orientation:
 ---------------------------------------------------------------------
 Center     Atomic      Atomic             Coordinates (Angstroms)
 Number     Number       Type             X           Y           Z
 ---------------------------------------------------------------------
      1          7           0       -5.593707   -2.815205    1.912520
      2          1           0       -6.243370   -2.031037    1.831713
      3          1           0       -5.613137   -3.080892    2.896476
      4          6           0       -4.261018   -2.324506    1.570903
      5          1           0       -3.520090   -3.067271    1.883185
      6          6           0       -3.955301   -0.962346    2.222703
      7          6           0       -4.174773   -2.175083    0.040952
      8          1           0       -4.523438   -3.117284   -0.399330
      9          1           0       -4.870447   -1.391507   -0.282376
     10          8           0       -4.812495   -0.088427    2.300385
     11          6           0       -2.769805   -1.898058   -0.476595
     12          7           0       -2.696441   -1.214808   -1.641657
     13          1           0       -1.792953   -0.883332   -1.963521
     14          1           0       -3.510342   -0.740213   -2.004978
     15          8           0       -1.758839   -2.325725    0.097809
     16          7           0       -2.686132   -0.805783    2.710546
     17          1           0       -1.993396   -1.449512    2.341203
     18          6           0       -2.205248    0.515697    3.070619
     19          1           0       -3.028800    1.034611    3.570235
     20          6           0       -1.892949    1.272822    1.758427
     21          6           0       -0.997964    0.391371    4.045632
     22          1           0       -0.170492   -0.063586    3.482611
     23          8           0       -1.818277    0.637688    0.690458
     24          6           0       -1.333095   -0.577493    5.206637
     25          1           0       -0.448152   -0.625283    5.854189
     26          1           0       -1.471494   -1.585920    4.803926
     27          6           0       -0.523492    1.750717    4.586362
     28          1           0       -1.349912    2.315893    5.034968
     29          1           0        0.226155    1.599304    5.369447
     30          1           0       -0.056181    2.374968    3.819878
     31          6           0       -2.561577   -0.200145    6.042226
     32          1           0       -2.687293   -0.906531    6.869339
     33          1           0       -2.472165    0.800433    6.479870
     34          1           0       -3.480261   -0.229962    5.445839
     35          7           0       -1.686636    2.603604    1.792639
     36          1           0       -1.780895    3.090870    2.674099
     37          6           0       -1.357312    3.420984    0.602574
     38          1           0       -2.073765    3.152087   -0.181761
     39          6           0        0.083477    3.067208    0.128884
     40          6           0       -1.468447    4.899073    0.950417
     41          1           0       -1.292545    5.505373    0.058183
     42          1           0       -2.465813    5.131810    1.336511
     43          1           0       -0.708554    5.173447    1.688023
     44          8           0        1.068225    3.704285    0.469815
     45          7           0        0.120454    1.950315   -0.659062
     46          1           0       -0.757246    1.446395   -0.732749
     47          6           0        1.297053    1.127649   -0.822810
     48          1           0        2.159911    1.762602   -1.053101
     49          6           0        1.000697    0.132758   -1.960181
     50          6           0        1.614085    0.257459    0.439335
     51          1           0        2.541497   -0.289122    0.242735
     52          8           0       -0.082604    0.065334   -2.525156
     53          6           0        1.823257    1.025389    1.733825
     54          1           0        2.601936    1.782692    1.617074
     55          1           0        2.117100    0.316994    2.513404
     56          1           0        0.911700    1.533258    2.046204
     57          8           0        0.620559   -0.765819    0.568800
     58          1           0       -0.281840   -0.382908    0.674084
     59          7           0        2.004282   -0.772004   -2.236137
     60          1           0        2.812590   -0.807045   -1.625317
     61          6           0        1.733626   -1.978948   -2.986150
     62          1           0        0.818497   -1.811204   -3.564828
     63          6           0        1.479632   -3.171176   -2.045920
     64          6           0        2.900167   -2.244037   -3.952200
     65          1           0        3.840438   -2.338219   -3.389252
     66          1           0        2.977571   -1.394354   -4.637164
     67          8           0        1.916491   -4.370278   -2.364659
     68          8           0        2.596422   -3.456635   -4.656653
     69          1           0        3.300029   -3.662809   -5.293513
     70          7           0        0.871759   -3.012849   -0.915245
     71          1           0        0.588777   -2.066070   -0.581756
     72          6           0        0.750425   -4.025434    0.143942
     73          1           0       -0.242917   -3.921891    0.575366
     74          1           0        0.896526   -5.022599   -0.274913
     75          6           0        1.803571   -3.672189    1.218097
     76          8           0        1.493670   -3.324542    2.340939
     77          7           0        3.090744   -3.716450    0.746827
     78          1           0        3.273834   -4.092359   -0.174080
     79          6           0        4.212177   -3.154019    1.478961
     80          1           0        3.870380   -2.966728    2.498568
     81          6           0        4.623002   -1.802176    0.906591
     82          6           0        5.421913   -4.112862    1.493472
     83          1           0        5.055340   -5.072302    1.877206
     84          1           0        5.752148   -4.287500    0.459207
     85          8           0        4.989127   -0.847629    1.541278
     86          6           0        6.599141   -3.625505    2.346918
     87          1           0        6.971920   -2.665157    1.967031
     88          1           0        6.243544   -3.429462    3.367761
     89          6           0        7.742612   -4.645195    2.386303
     90          1           0        8.103135   -4.830500    1.362655
     91          1           0        7.382113   -5.608949    2.766829
     92          6           0        8.915642   -4.190747    3.259207
     93          1           0        9.269825   -3.203696    2.904583
     94          1           0        8.557627   -4.040219    4.285786
     95          7           0        9.949562   -5.227742    3.294784
     96          1           0       10.672176   -4.978732    3.967524
     97          1           0       10.414685   -5.284414    2.389547
     98          8           0        4.599797   -1.773743   -0.480407
     99          1           0        5.072333   -0.950616   -0.714836
    100          1           0        2.250919   -4.356362   -3.309189
 ---------------------------------------------------------------------

 SCF Done:  E(RB3LYP) =  -2418.56940424     A.U. after    1 cycles

 Alpha  occ. eigenvalues --  -19.35319 -19.32652 -19.32479 -19.26244 -19.26225
 Alpha  occ. eigenvalues --  -19.25927 -19.22761 -19.22634 -19.20651 -19.20644
 Alpha  occ. eigenvalues --  -19.18769 -14.53090 -14.50619 -14.47539 -14.47106
 Alpha  occ. eigenvalues --  -14.44650 -14.43927 -14.43069 -14.37987 -14.36846
 Alpha  occ. eigenvalues --  -10.47424 -10.43777 -10.42914 -10.40389 -10.40056
 Alpha  occ. eigenvalues --  -10.39857 -10.39289 -10.38007 -10.37740 -10.35635
 Alpha  occ. eigenvalues --  -10.35273 -10.35004 -10.34995 -10.34685 -10.33150
 Alpha  occ. eigenvalues --  -10.31792 -10.29553 -10.29096 -10.28073 -10.27260
 Alpha  occ. eigenvalues --  -10.26906 -10.26761 -10.26737 -10.26638 -10.25928
 Alpha  occ. eigenvalues --  -10.25209 -10.25095 -10.23795  -1.25813  -1.22490
 Alpha  occ. eigenvalues --   -1.19148  -1.18169  -1.14947  -1.14803  -1.13768
 Alpha  occ. eigenvalues --   -1.13311  -1.12471  -1.11943  -1.10747  -1.10538
 Alpha  occ. eigenvalues --   -1.07197  -1.04087  -1.02899  -1.02083  -1.00067
 Alpha  occ. eigenvalues --   -0.98977  -0.95582  -0.93758  -0.93157  -0.90559
 Alpha  occ. eigenvalues --   -0.89264  -0.88221  -0.87424  -0.85950  -0.84103
 Alpha  occ. eigenvalues --   -0.83664  -0.82519  -0.80802  -0.79471  -0.79078
 Alpha  occ. eigenvalues --   -0.78824  -0.77797  -0.75052  -0.73818  -0.73158
 Alpha  occ. eigenvalues --   -0.73016  -0.72221  -0.71609  -0.70917  -0.70614
 Alpha  occ. eigenvalues --   -0.69330  -0.69216  -0.68805  -0.67573  -0.67120
 Alpha  occ. eigenvalues --   -0.66963  -0.65748  -0.65034  -0.64563  -0.63879
 Alpha  occ. eigenvalues --   -0.63548  -0.63444  -0.62555  -0.62334  -0.61292
 Alpha  occ. eigenvalues --   -0.60910  -0.60412  -0.60084  -0.59387  -0.59050
 Alpha  occ. eigenvalues --   -0.58858  -0.58249  -0.58008  -0.57810  -0.57545
 Alpha  occ. eigenvalues --   -0.57178  -0.56860  -0.56555  -0.55839  -0.55280
 Alpha  occ. eigenvalues --   -0.55154  -0.54751  -0.54161  -0.53844  -0.53641
 Alpha  occ. eigenvalues --   -0.53279  -0.52937  -0.52555  -0.52460  -0.52162
 Alpha  occ. eigenvalues --   -0.51952  -0.51596  -0.51300  -0.50989  -0.50933
 Alpha  occ. eigenvalues --   -0.50315  -0.50021  -0.49654  -0.49455  -0.49221
 Alpha  occ. eigenvalues --   -0.48755  -0.48691  -0.48212  -0.47974  -0.47613
 Alpha  occ. eigenvalues --   -0.47397  -0.47193  -0.47129  -0.46669  -0.46242
 Alpha  occ. eigenvalues --   -0.46163  -0.45994  -0.45468  -0.45400  -0.45010
 Alpha  occ. eigenvalues --   -0.44855  -0.44650  -0.44417  -0.44150  -0.43625
 Alpha  occ. eigenvalues --   -0.43181  -0.43172  -0.42088  -0.42026  -0.41274
 Alpha  occ. eigenvalues --   -0.40791  -0.40365  -0.40178  -0.40091  -0.40068
 Alpha  occ. eigenvalues --   -0.39974  -0.39724  -0.38891  -0.37991  -0.36784
 Alpha  occ. eigenvalues --   -0.36175  -0.35893  -0.35827  -0.34762  -0.34469
 Alpha  occ. eigenvalues --   -0.33861  -0.33056  -0.32626  -0.30263  -0.29089
 Alpha virt. eigenvalues --   -0.16956  -0.11886  -0.11536  -0.09051  -0.08986
 Alpha virt. eigenvalues --   -0.08571  -0.07807  -0.07349  -0.06524  -0.05064
 Alpha virt. eigenvalues --   -0.03074  -0.01837  -0.01049  -0.00686  -0.00243

 Mulliken charges:
               1
     1  N   -0.702405
     2  H    0.318295
     3  H    0.309937
     4  C   -0.077198
     5  H    0.154124
     6  C    0.598529
     7  C   -0.358774
     8  H    0.203917
     9  H    0.165119
    10  O   -0.531761
    11  C    0.630939
    12  N   -0.764747
    13  H    0.376585
    14  H    0.347835
    15  O   -0.579744
    16  N   -0.593928
    17  H    0.351361
    18  C   -0.075239
    19  H    0.196025
    20  C    0.639898
    21  C   -0.109360
    22  H    0.144265
    23  O   -0.579893
    24  C   -0.243253
    25  H    0.144123
    26  H    0.149016
    27  C   -0.492330
    28  H    0.154318
    29  H    0.172635
    30  H    0.155794
    31  C   -0.465909
    32  H    0.161013
    33  H    0.149969
    34  H    0.162787
    35  N   -0.597154
    36  H    0.356152
    37  C   -0.045407
    38  H    0.181254
    39  C    0.619629
    40  C   -0.483776
    41  H    0.185896
    42  H    0.167658
    43  H    0.186319
    44  O   -0.511218
    45  N   -0.599950
    46  H    0.369275
    47  C   -0.085761
    48  H    0.198101
    49  C    0.625360
    50  C    0.098649
    51  H    0.121542
    52  O   -0.507367
    53  C   -0.464262
    54  H    0.186197
    55  H    0.180699
    56  H    0.166756
    57  O   -0.694966
    58  H    0.465750
    59  N   -0.627811
    60  H    0.360061
    61  C   -0.077709
    62  H    0.257370
    63  C    0.615197
    64  C   -0.075443
    65  H    0.167912
    66  H    0.206272
    67  O   -0.586724
    68  O   -0.640164
    69  H    0.446038
    70  N   -0.550503
    71  H    0.467790
    72  C   -0.274659
    73  H    0.257915
    74  H    0.214838
    75  C    0.605975
    76  O   -0.467424
    77  N   -0.609567
    78  H    0.337445
    79  C   -0.048540
    80  H    0.222339
    81  C    0.619554
    82  C   -0.285614
    83  H    0.176292
    84  H    0.138560
    85  O   -0.430298
    86  C   -0.275567
    87  H    0.147836
    88  H    0.154795
    89  C   -0.249116
    90  H    0.123993
    91  H    0.157914
    92  C   -0.136182
    93  H    0.114845
    94  H    0.146742
    95  N   -0.714624
    96  H    0.306402
    97  H    0.294877
    98  O   -0.618653
    99  H    0.418918
   100  H    0.477403
 Sum of Mulliken charges =   1.00000

 Dipole moment (field-independent basis, Debye):
    X=             11.1813    Y=             -8.0861    Z=             -7.0753  Tot=             15.5070
 Quadrupole moment (field-independent basis, Debye-Ang):
   XX=           -205.0255   YY=           -246.0274   ZZ=           -224.2785
   XY=            -47.1640   XZ=            -31.7876   YZ=             35.5691

 Normal termination of Gaussian 16 at Mon Jun  6 06:22:06 2022.
