 Gaussian 16, Revision C.01,
 Gaussian 16:  ES64L-G16RevC.01  3-Jul-2019

 ----------------------------------------------------------------------
 # B3LYP/6-31G* empiricaldispersion=gd3 guess=read geom=check nosymm in
 tegral(ultrafinegrid)
 ----------------------------------------------------------------------

 ------------------------------------------------------
 Candidate Structure: Conf:123 Charge calc in gas phase
 ------------------------------------------------------
 Structure from the checkpoint file:  "conf-123.chk"
 Charge =  1 Multiplicity = 1

                          Input orientation:
 ---------------------------------------------------------------------
 Center     Atomic      Atomic             Coordinates (Angstroms)
 Number     Number       Type             X           Y           Z
 ---------------------------------------------------------------------
      1          7           0       -0.649353   -1.443857    6.041182
      2          1           0        0.089350   -2.114092    5.840290
      3          1           0       -1.333796   -1.868615    6.661748
      4          6           0       -1.320412   -1.047464    4.808333
      5          1           0       -2.125727   -1.740234    4.502105
      6          6           0       -0.306075   -1.019396    3.656977
      7          6           0       -1.977256    0.331853    5.031259
      8          1           0       -1.206298    1.039911    5.362404
      9          1           0       -2.427236    0.737121    4.112123
     10          8           0        0.878403   -1.307106    3.793842
     11          6           0       -3.088538    0.221535    6.083264
     12          7           0       -3.516523    1.407854    6.601779
     13          1           0       -4.222280    1.382038    7.326516
     14          1           0       -3.030063    2.276465    6.433878
     15          8           0       -3.584957   -0.852355    6.401158
     16          7           0       -0.835673   -0.721737    2.420620
     17          1           0       -1.780027   -0.363597    2.338588
     18          6           0        0.021932   -0.495513    1.270410
     19          1           0        1.051241   -0.455436    1.649680
     20          6           0       -0.375295    0.851789    0.653809
     21          6           0       -0.106120   -1.655307    0.231443
     22          1           0       -1.185609   -1.757864    0.026132
     23          8           0       -1.553102    1.196218    0.541053
     24          6           0        0.398864   -2.979566    0.847624
     25          1           0        0.051748   -3.044955    1.883278
     26          1           0        1.499071   -2.947343    0.897292
     27          6           0        0.614346   -1.344965   -1.087804
     28          1           0        1.680095   -1.165141   -0.904654
     29          1           0        0.549868   -2.188166   -1.785486
     30          1           0        0.208094   -0.462549   -1.596332
     31          6           0       -0.053950   -4.232610    0.082769
     32          1           0        0.326472   -5.138094    0.569367
     33          1           0       -1.150195   -4.302092    0.060770
     34          1           0        0.303547   -4.245797   -0.954342
     35          7           0        0.655869    1.650118    0.239784
     36          1           0        1.585600    1.249300    0.174409
     37          6           0        0.401289    2.848062   -0.562075
     38          1           0       -0.487292    3.335349   -0.151704
     39          6           0        0.128136    2.332378   -1.974607
     40          6           0        1.588306    3.811555   -0.539140
     41          1           0        1.341118    4.719023   -1.101524
     42          1           0        1.824020    4.098914    0.489102
     43          1           0        2.469754    3.352653   -0.998169
     44          8           0        1.085379    1.967041   -2.678833
     45          7           0       -1.158738    2.253368   -2.360299
     46          1           0       -1.869923    2.398928   -1.642395
     47          6           0       -1.612348    1.436980   -3.496276
     48          1           0       -1.120602    0.454972   -3.412148
     49          6           0       -1.176428    2.084068   -4.832829
     50          6           0       -3.149423    1.285392   -3.428762
     51          1           0       -3.581136    2.258707   -3.682412
     52          8           0       -1.877836    2.793786   -5.526174
     53          6           0       -3.657413    0.228243   -4.407415
     54          1           0       -3.403305    0.489031   -5.440036
     55          1           0       -4.745119    0.156691   -4.328345
     56          1           0       -3.229965   -0.757469   -4.176211
     57          8           0       -3.564486    1.057395   -2.090563
     58          1           0       -3.251434    0.185894   -1.787684
     59          7           0        0.153824    1.780876   -5.130553
     60          1           0        0.694271    1.643657   -4.255661
     61          6           0        0.845813    2.557033   -6.130952
     62          1           0        0.179152    2.748130   -6.981992
     63          6           0        2.060203    1.759456   -6.596668
     64          6           0        1.312005    3.927566   -5.563791
     65          1           0        1.853007    3.765393   -4.623380
     66          1           0        0.435464    4.555219   -5.390906
     67          8           0        3.082158    2.382890   -7.091099
     68          8           0        2.171669    4.538426   -6.563252
     69          1           0        2.697249    5.261365   -6.173088
     70          7           0        2.090851    0.461396   -6.434537
     71          1           0        1.226597    0.063809   -6.069767
     72          6           0        3.236902   -0.417337   -6.689257
     73          1           0        2.869496   -1.392978   -7.016549
     74          1           0        3.832226    0.012471   -7.497764
     75          6           0        4.174415   -0.669373   -5.482602
     76          8           0        5.143884   -1.380297   -5.662305
     77          7           0        3.828220   -0.126019   -4.273824
     78          1           0        2.882047    0.216040   -4.146643
     79          6           0        4.462162   -0.668330   -3.063035
     80          1           0        5.547408   -0.611021   -3.167508
     81          6           0        4.126019   -2.157620   -2.894626
     82          6           0        3.981022    0.108912   -1.817152
     83          1           0        4.189942    1.176148   -1.981125
     84          1           0        2.886171    0.019390   -1.761890
     85          8           0        4.847708   -2.969654   -2.379709
     86          6           0        4.610539   -0.396144   -0.505808
     87          1           0        4.378149   -1.457005   -0.360027
     88          1           0        5.707092   -0.337919   -0.573340
     89          6           0        4.147878    0.373340    0.741637
     90          1           0        3.046698    0.331143    0.816613
     91          1           0        4.414347    1.438743    0.659278
     92          6           0        4.723375   -0.196656    2.047986
     93          1           0        5.820283   -0.213594    1.978654
     94          1           0        4.468686    0.484125    2.880535
     95          7           0        4.256940   -1.577998    2.242223
     96          1           0        3.261330   -1.567273    2.473530
     97          1           0        4.723917   -1.994644    3.047154
     98          8           0        2.861127   -2.442441   -3.329021
     99          1           0        2.726429   -3.395019   -3.146295
    100          1           0        2.886048    3.442488   -6.970753
 ---------------------------------------------------------------------

 SCF Done:  E(RB3LYP) =  -2418.52645365     A.U. after    1 cycles

 Alpha  occ. eigenvalues --  -19.35923 -19.35045 -19.29078 -19.26372 -19.26222
 Alpha  occ. eigenvalues --  -19.25565 -19.23051 -19.22886 -19.22554 -19.19175
 Alpha  occ. eigenvalues --  -19.16939 -14.55823 -14.49440 -14.49397 -14.47612
 Alpha  occ. eigenvalues --  -14.47261 -14.43541 -14.41408 -14.37154 -14.35720
 Alpha  occ. eigenvalues --  -10.49012 -10.42876 -10.42240 -10.41180 -10.40894
 Alpha  occ. eigenvalues --  -10.40883 -10.40820 -10.39308 -10.37410 -10.36192
 Alpha  occ. eigenvalues --  -10.35992 -10.35186 -10.35150 -10.34818 -10.33773
 Alpha  occ. eigenvalues --  -10.32069 -10.29412 -10.28950 -10.28595 -10.28362
 Alpha  occ. eigenvalues --  -10.27967 -10.27580 -10.27258 -10.26856 -10.26208
 Alpha  occ. eigenvalues --  -10.26068 -10.25489 -10.24779  -1.26502  -1.21688
 Alpha  occ. eigenvalues --   -1.19481  -1.18523  -1.17505  -1.15401  -1.14296
 Alpha  occ. eigenvalues --   -1.13146  -1.12745  -1.10920  -1.10719  -1.08749
 Alpha  occ. eigenvalues --   -1.07281  -1.05629  -1.03775  -1.03554  -1.00163
 Alpha  occ. eigenvalues --   -0.95992  -0.94074  -0.93955  -0.93696  -0.90539
 Alpha  occ. eigenvalues --   -0.89973  -0.89274  -0.88312  -0.87684  -0.83745
 Alpha  occ. eigenvalues --   -0.82967  -0.82604  -0.81107  -0.81054  -0.80250
 Alpha  occ. eigenvalues --   -0.79309  -0.77392  -0.76657  -0.74725  -0.72994
 Alpha  occ. eigenvalues --   -0.72594  -0.72447  -0.72144  -0.71611  -0.70071
 Alpha  occ. eigenvalues --   -0.69965  -0.69655  -0.69267  -0.69010  -0.67670
 Alpha  occ. eigenvalues --   -0.66653  -0.66492  -0.65724  -0.65571  -0.64966
 Alpha  occ. eigenvalues --   -0.64197  -0.63718  -0.63558  -0.62855  -0.61919
 Alpha  occ. eigenvalues --   -0.60688  -0.60305  -0.59795  -0.59333  -0.58721
 Alpha  occ. eigenvalues --   -0.58642  -0.58379  -0.57657  -0.57411  -0.57018
 Alpha  occ. eigenvalues --   -0.56896  -0.56843  -0.56322  -0.56301  -0.55900
 Alpha  occ. eigenvalues --   -0.55447  -0.55178  -0.54547  -0.54277  -0.54024
 Alpha  occ. eigenvalues --   -0.53740  -0.53200  -0.52949  -0.52852  -0.52430
 Alpha  occ. eigenvalues --   -0.51972  -0.51938  -0.51733  -0.51370  -0.50827
 Alpha  occ. eigenvalues --   -0.50546  -0.50354  -0.49994  -0.49890  -0.49271
 Alpha  occ. eigenvalues --   -0.49145  -0.48971  -0.48565  -0.48353  -0.47979
 Alpha  occ. eigenvalues --   -0.47950  -0.47675  -0.47423  -0.47388  -0.46955
 Alpha  occ. eigenvalues --   -0.46794  -0.46743  -0.46410  -0.46160  -0.45652
 Alpha  occ. eigenvalues --   -0.45120  -0.44441  -0.44107  -0.43378  -0.43316
 Alpha  occ. eigenvalues --   -0.42578  -0.42236  -0.42117  -0.41842  -0.41551
 Alpha  occ. eigenvalues --   -0.41453  -0.41299  -0.40980  -0.40381  -0.40319
 Alpha  occ. eigenvalues --   -0.40237  -0.39790  -0.39108  -0.38362  -0.37893
 Alpha  occ. eigenvalues --   -0.36978  -0.36564  -0.35884  -0.35025  -0.33122
 Alpha  occ. eigenvalues --   -0.32654  -0.32435  -0.30777  -0.29538  -0.28380
 Alpha virt. eigenvalues --   -0.18047  -0.13069  -0.11908  -0.10236  -0.09700
 Alpha virt. eigenvalues --   -0.08607  -0.07944  -0.07217  -0.05010  -0.04611
 Alpha virt. eigenvalues --   -0.03854  -0.03439  -0.02812  -0.02718  -0.01851

 Mulliken charges:
               1
     1  N   -0.737721
     2  H    0.317705
     3  H    0.326488
     4  C   -0.054754
     5  H    0.162902
     6  C    0.607813
     7  C   -0.367307
     8  H    0.172816
     9  H    0.153648
    10  O   -0.526172
    11  C    0.618288
    12  N   -0.748706
    13  H    0.351269
    14  H    0.339112
    15  O   -0.507402
    16  N   -0.609533
    17  H    0.346031
    18  C   -0.078927
    19  H    0.190809
    20  C    0.610590
    21  C   -0.055528
    22  H    0.123752
    23  O   -0.543747
    24  C   -0.269434
    25  H    0.168517
    26  H    0.152593
    27  C   -0.501923
    28  H    0.162570
    29  H    0.158108
    30  H    0.133245
    31  C   -0.451419
    32  H    0.168115
    33  H    0.149081
    34  H    0.127660
    35  N   -0.613793
    36  H    0.369617
    37  C   -0.046197
    38  H    0.192194
    39  C    0.647407
    40  C   -0.475579
    41  H    0.162576
    42  H    0.189266
    43  H    0.172047
    44  O   -0.599368
    45  N   -0.601455
    46  H    0.394390
    47  C   -0.092544
    48  H    0.167107
    49  C    0.622612
    50  C    0.118362
    51  H    0.188108
    52  O   -0.473780
    53  C   -0.480517
    54  H    0.172295
    55  H    0.196028
    56  H    0.141157
    57  O   -0.610041
    58  H    0.401438
    59  N   -0.689890
    60  H    0.403986
    61  C   -0.077372
    62  H    0.255989
    63  C    0.636486
    64  C   -0.091560
    65  H    0.195784
    66  H    0.225874
    67  O   -0.568062
    68  O   -0.644803
    69  H    0.458714
    70  N   -0.562104
    71  H    0.391382
    72  C   -0.259351
    73  H    0.232148
    74  H    0.244543
    75  C    0.621140
    76  O   -0.465086
    77  N   -0.620444
    78  H    0.335353
    79  C   -0.023601
    80  H    0.214171
    81  C    0.600276
    82  C   -0.324723
    83  H    0.151423
    84  H    0.148304
    85  O   -0.426665
    86  C   -0.265205
    87  H    0.198697
    88  H    0.153046
    89  C   -0.280025
    90  H    0.106269
    91  H    0.131878
    92  C   -0.137167
    93  H    0.151061
    94  H    0.131130
    95  N   -0.739334
    96  H    0.321889
    97  H    0.313224
    98  O   -0.599074
    99  H    0.422482
   100  H    0.499346
 Sum of Mulliken charges =   1.00000

 Dipole moment (field-independent basis, Debye):
    X=              3.7775    Y=             12.7577    Z=            -19.3183  Tot=             23.4569
 Quadrupole moment (field-independent basis, Debye-Ang):
   XX=           -285.2715   YY=           -226.4405   ZZ=           -154.9099
   XY=             34.0979   XZ=            -27.4838   YZ=            -30.1852

 Normal termination of Gaussian 16 at Mon Jun  6 06:22:02 2022.
