 Gaussian 16, Revision C.01,
 Gaussian 16:  ES64L-G16RevC.01  3-Jul-2019

 ----------------------------------------------------------------------
 # B3LYP/6-31G* empiricaldispersion=gd3 guess=read geom=check nosymm in
 tegral(ultrafinegrid)
 ----------------------------------------------------------------------

 ------------------------------------------------------
 Candidate Structure: Conf:239 Charge calc in gas phase
 ------------------------------------------------------
 Structure from the checkpoint file:  "conf-239.chk"
 Charge =  1 Multiplicity = 1

                          Input orientation:
 ---------------------------------------------------------------------
 Center     Atomic      Atomic             Coordinates (Angstroms)
 Number     Number       Type             X           Y           Z
 ---------------------------------------------------------------------
      1          7           0        1.609702    5.398829    2.298600
      2          1           0        2.005072    5.259779    1.368447
      3          1           0        2.360614    5.181886    2.952405
      4          6           0        0.513609    4.460964    2.478318
      5          1           0        0.231665    4.466263    3.537594
      6          6           0        0.869047    3.020272    2.066627
      7          6           0       -0.697208    4.934025    1.631869
      8          1           0       -0.923432    5.962932    1.933691
      9          1           0       -0.421123    4.943744    0.574052
     10          8           0        1.694626    2.829606    1.150341
     11          6           0       -1.925815    4.041814    1.770914
     12          7           0       -2.423476    3.931839    3.056828
     13          1           0       -3.326202    3.475308    3.128841
     14          1           0       -2.274984    4.694367    3.706906
     15          8           0       -2.390760    3.394278    0.846667
     16          7           0        0.218146    2.027792    2.691381
     17          1           0       -0.530486    2.277814    3.328901
     18          6           0        0.410257    0.605014    2.383787
     19          1           0        1.424694    0.511543    1.992599
     20          6           0       -0.520921    0.192465    1.217185
     21          6           0        0.301557   -0.261599    3.652464
     22          1           0       -0.755444   -0.294348    3.952454
     23          8           0       -1.300791   -0.758400    1.254678
     24          6           0        1.113999    0.353158    4.818678
     25          1           0        1.031910   -0.334021    5.670059
     26          1           0        0.644810    1.289299    5.149187
     27          6           0        0.754543   -1.702413    3.361119
     28          1           0        1.744908   -1.724735    2.893439
     29          1           0        0.805248   -2.274616    4.293826
     30          1           0        0.052455   -2.199827    2.693564
     31          6           0        2.596351    0.618866    4.520202
     32          1           0        3.101229    0.991232    5.418936
     33          1           0        3.133227   -0.276290    4.190852
     34          1           0        2.723696    1.379442    3.740123
     35          7           0       -0.390251    0.988591    0.124331
     36          1           0        0.334550    1.695279    0.109956
     37          6           0       -1.117300    0.757968   -1.112048
     38          1           0       -2.123085    0.421345   -0.842839
     39          6           0       -0.387763   -0.363078   -1.866231
     40          6           0       -1.181837    2.036878   -1.941132
     41          1           0       -1.761922    1.872177   -2.854373
     42          1           0       -1.655332    2.821202   -1.347130
     43          1           0       -0.175185    2.346872   -2.239037
     44          8           0        0.537049   -0.123377   -2.662825
     45          7           0       -0.808080   -1.621938   -1.602401
     46          1           0       -1.482996   -1.765165   -0.854482
     47          6           0       -0.053201   -2.792851   -2.045895
     48          1           0        1.018780   -2.566158   -1.992418
     49          6           0       -0.360044   -3.023557   -3.525581
     50          6           0       -0.368433   -4.011905   -1.151896
     51          1           0        0.111825   -4.887845   -1.612121
     52          8           0       -1.076852   -4.050425   -3.891742
     53          6           0        0.177237   -3.801493    0.255012
     54          1           0        1.242916   -3.554726    0.236386
     55          1           0        0.021998   -4.710932    0.840705
     56          1           0       -0.350428   -2.980306    0.744830
     57          8           0       -1.774190   -4.197274   -1.040252
     58          1           0       -2.095355   -4.601701   -1.861059
     59          7           0        0.136114   -2.153515   -4.360852
     60          1           0        0.566203   -1.342904   -3.864215
     61          6           0        0.245536   -2.189626   -5.838346
     62          1           0        0.652538   -3.167348   -6.125433
     63          6           0        1.254441   -1.042807   -6.100466
     64          6           0       -1.087925   -1.991550   -6.535229
     65          1           0       -0.924489   -1.895920   -7.614108
     66          1           0       -1.578152   -1.085633   -6.165653
     67          8           0        0.868113    0.073315   -6.392840
     68          8           0       -1.855842   -3.177462   -6.245270
     69          1           0       -2.775556   -3.066259   -6.533308
     70          7           0        2.539541   -1.396146   -5.790769
     71          1           0        2.642804   -2.349587   -5.451546
     72          6           0        3.377416   -0.506392   -4.995126
     73          1           0        4.383441   -0.418812   -5.420191
     74          1           0        2.924762    0.489416   -4.976790
     75          6           0        3.451456   -1.124468   -3.576487
     76          8           0        2.993211   -2.255488   -3.382157
     77          7           0        4.058964   -0.395933   -2.618395
     78          1           0        4.291241    0.573829   -2.795552
     79          6           0        4.106626   -0.860457   -1.229767
     80          1           0        3.864624   -1.922426   -1.250487
     81          6           0        3.015810   -0.174725   -0.408135
     82          6           0        5.482547   -0.640640   -0.581986
     83          1           0        6.236181   -1.150853   -1.194449
     84          1           0        5.718566    0.431135   -0.595926
     85          8           0        2.134228   -0.779389    0.173452
     86          6           0        5.511097   -1.166326    0.859350
     87          1           0        4.715848   -0.702304    1.453226
     88          1           0        5.295335   -2.244523    0.855388
     89          6           0        6.844259   -0.918188    1.570263
     90          1           0        7.069009    0.159369    1.561128
     91          1           0        7.663118   -1.407084    1.025296
     92          6           0        6.845708   -1.420594    3.019018
     93          1           0        6.628717   -2.496560    3.026450
     94          1           0        7.859155   -1.299178    3.438670
     95          7           0        5.797210   -0.753692    3.806880
     96          1           0        6.040907    0.228274    3.935232
     97          1           0        5.758252   -1.155111    4.742033
     98          8           0        3.196071    1.148086   -0.384732
     99          1           0        2.567192    1.608247    0.230440
    100          1           0       -1.412541   -3.928998   -4.835798
 ---------------------------------------------------------------------

 SCF Done:  E(RB3LYP) =  -2418.58150890     A.U. after    2 cycles

 Alpha  occ. eigenvalues --  -19.34543 -19.30958 -19.26758 -19.23942 -19.23755
 Alpha  occ. eigenvalues --  -19.23352 -19.22751 -19.22543 -19.22314 -19.20706
 Alpha  occ. eigenvalues --  -19.20066 -14.52014 -14.47125 -14.46669 -14.46601
 Alpha  occ. eigenvalues --  -14.46162 -14.44649 -14.43763 -14.39935 -14.37819
 Alpha  occ. eigenvalues --  -10.46256 -10.40887 -10.40188 -10.39691 -10.39501
 Alpha  occ. eigenvalues --  -10.38677 -10.38009 -10.37729 -10.37264 -10.36896
 Alpha  occ. eigenvalues --  -10.35234 -10.34249 -10.33553 -10.32243 -10.32098
 Alpha  occ. eigenvalues --  -10.31994 -10.31014 -10.28295 -10.27009 -10.26808
 Alpha  occ. eigenvalues --  -10.26469 -10.25474 -10.25088 -10.25015 -10.24992
 Alpha  occ. eigenvalues --  -10.24766 -10.23512 -10.23097  -1.24817  -1.18130
 Alpha  occ. eigenvalues --   -1.17261  -1.15837  -1.14939  -1.14248  -1.13987
 Alpha  occ. eigenvalues --   -1.12343  -1.11694  -1.11606  -1.09597  -1.09505
 Alpha  occ. eigenvalues --   -1.03742  -1.03361  -1.02753  -1.02675  -1.00641
 Alpha  occ. eigenvalues --   -0.99287  -0.97617  -0.94333  -0.92536  -0.88731
 Alpha  occ. eigenvalues --   -0.88634  -0.88141  -0.85385  -0.84812  -0.84428
 Alpha  occ. eigenvalues --   -0.82782  -0.81857  -0.80763  -0.78446  -0.77723
 Alpha  occ. eigenvalues --   -0.76566  -0.75944  -0.74037  -0.73014  -0.72347
 Alpha  occ. eigenvalues --   -0.71465  -0.71006  -0.70392  -0.69595  -0.68896
 Alpha  occ. eigenvalues --   -0.68685  -0.68050  -0.67838  -0.67247  -0.66904
 Alpha  occ. eigenvalues --   -0.66723  -0.65344  -0.64589  -0.63514  -0.63276
 Alpha  occ. eigenvalues --   -0.62716  -0.62614  -0.62365  -0.61442  -0.60465
 Alpha  occ. eigenvalues --   -0.59985  -0.59071  -0.58923  -0.58679  -0.58140
 Alpha  occ. eigenvalues --   -0.58073  -0.57011  -0.56881  -0.56563  -0.56346
 Alpha  occ. eigenvalues --   -0.55897  -0.55656  -0.55286  -0.54569  -0.54444
 Alpha  occ. eigenvalues --   -0.54333  -0.54008  -0.53662  -0.53233  -0.53077
 Alpha  occ. eigenvalues --   -0.52355  -0.52272  -0.52079  -0.51598  -0.51442
 Alpha  occ. eigenvalues --   -0.51319  -0.50647  -0.50529  -0.50329  -0.49999
 Alpha  occ. eigenvalues --   -0.49433  -0.49095  -0.48982  -0.48445  -0.48229
 Alpha  occ. eigenvalues --   -0.48079  -0.47857  -0.47518  -0.47336  -0.46556
 Alpha  occ. eigenvalues --   -0.46324  -0.46123  -0.46053  -0.45868  -0.45509
 Alpha  occ. eigenvalues --   -0.45070  -0.44759  -0.44665  -0.44246  -0.44160
 Alpha  occ. eigenvalues --   -0.44007  -0.43847  -0.43756  -0.42852  -0.42683
 Alpha  occ. eigenvalues --   -0.42578  -0.41783  -0.41033  -0.40288  -0.39987
 Alpha  occ. eigenvalues --   -0.39746  -0.39568  -0.39107  -0.38784  -0.38317
 Alpha  occ. eigenvalues --   -0.38001  -0.37842  -0.37501  -0.37397  -0.37164
 Alpha  occ. eigenvalues --   -0.36664  -0.36579  -0.36371  -0.36080  -0.34122
 Alpha  occ. eigenvalues --   -0.34081  -0.33308  -0.32486  -0.32238  -0.29922
 Alpha virt. eigenvalues --   -0.15821  -0.10771  -0.09416  -0.08708  -0.08593
 Alpha virt. eigenvalues --   -0.07190  -0.06951  -0.06738  -0.05566  -0.02861
 Alpha virt. eigenvalues --   -0.02384  -0.01113  -0.00744   0.00065   0.00965

 Mulliken charges:
               1
     1  N   -0.687072
     2  H    0.319299
     3  H    0.313311
     4  C   -0.085868
     5  H    0.152445
     6  C    0.614218
     7  C   -0.349433
     8  H    0.191775
     9  H    0.184297
    10  O   -0.592721
    11  C    0.551010
    12  N   -0.745621
    13  H    0.355003
    14  H    0.346310
    15  O   -0.473022
    16  N   -0.577603
    17  H    0.358885
    18  C   -0.091517
    19  H    0.203592
    20  C    0.668837
    21  C   -0.099839
    22  H    0.140042
    23  O   -0.545079
    24  C   -0.254196
    25  H    0.148087
    26  H    0.115495
    27  C   -0.478319
    28  H    0.161030
    29  H    0.147086
    30  H    0.185794
    31  C   -0.476523
    32  H    0.143799
    33  H    0.188587
    34  H    0.135135
    35  N   -0.603602
    36  H    0.358138
    37  C   -0.042351
    38  H    0.183172
    39  C    0.664270
    40  C   -0.490557
    41  H    0.154877
    42  H    0.211308
    43  H    0.165702
    44  O   -0.583918
    45  N   -0.604009
    46  H    0.390649
    47  C   -0.077648
    48  H    0.246216
    49  C    0.640166
    50  C    0.074539
    51  H    0.151182
    52  O   -0.586025
    53  C   -0.473246
    54  H    0.168047
    55  H    0.174013
    56  H    0.202465
    57  O   -0.618135
    58  H    0.409845
    59  N   -0.605593
    60  H    0.463625
    61  C   -0.092258
    62  H    0.203791
    63  C    0.550695
    64  C   -0.027795
    65  H    0.196524
    66  H    0.193400
    67  O   -0.461266
    68  O   -0.661545
    69  H    0.442348
    70  N   -0.548362
    71  H    0.351701
    72  C   -0.258498
    73  H    0.208180
    74  H    0.220049
    75  C    0.627418
    76  O   -0.547601
    77  N   -0.600508
    78  H    0.351470
    79  C   -0.044964
    80  H    0.196782
    81  C    0.622587
    82  C   -0.279297
    83  H    0.155344
    84  H    0.153629
    85  O   -0.498121
    86  C   -0.269439
    87  H    0.175819
    88  H    0.136779
    89  C   -0.262206
    90  H    0.131229
    91  H    0.140481
    92  C   -0.140674
    93  H    0.145259
    94  H    0.129906
    95  N   -0.719046
    96  H    0.297803
    97  H    0.307291
    98  O   -0.614580
    99  H    0.468290
   100  H    0.479030
 Sum of Mulliken charges =   1.00000

 Dipole moment (field-independent basis, Debye):
    X=              3.3294    Y=             -2.5864    Z=             -7.5285  Tot=              8.6286
 Quadrupole moment (field-independent basis, Debye-Ang):
   XX=           -218.4433   YY=           -233.8530   ZZ=           -163.9643
   XY=             -1.8553   XZ=             18.0257   YZ=             68.5091

 Normal termination of Gaussian 16 at Mon Jun  6 06:22:33 2022.
