 Gaussian 16, Revision C.01,
 Gaussian 16:  ES64L-G16RevC.01  3-Jul-2019

 ----------------------------------------------------------------------
 # B3LYP/6-31G* empiricaldispersion=gd3 guess=read geom=check nosymm in
 tegral(ultrafinegrid)
 ----------------------------------------------------------------------

 ------------------------------------------------------
 Candidate Structure: Conf:879 Charge calc in gas phase
 ------------------------------------------------------
 Structure from the checkpoint file:  "conf-879.chk"
 Charge =  1 Multiplicity = 1

                          Input orientation:
 ---------------------------------------------------------------------
 Center     Atomic      Atomic             Coordinates (Angstroms)
 Number     Number       Type             X           Y           Z
 ---------------------------------------------------------------------
      1          7           0       -5.072866    0.071137    2.098814
      2          1           0       -5.589638   -0.798132    2.225164
      3          1           0       -4.576468    0.238816    2.974883
      4          6           0       -6.062264    1.134879    1.889341
      5          1           0       -6.700961    0.798643    1.061904
      6          6           0       -5.383190    2.425764    1.399192
      7          6           0       -6.973894    1.441200    3.085843
      8          1           0       -6.363234    1.677015    3.969479
      9          1           0       -7.561729    2.341405    2.874327
     10          8           0       -5.905876    3.534363    1.509357
     11          6           0       -7.887332    0.263884    3.419562
     12          7           0       -8.854990    0.531340    4.342885
     13          1           0       -9.522617   -0.197287    4.555221
     14          1           0       -9.057769    1.471208    4.649354
     15          8           0       -7.754544   -0.850764    2.922357
     16          7           0       -4.181735    2.222910    0.804069
     17          1           0       -3.813189    1.276638    0.783505
     18          6           0       -3.410642    3.323221    0.263563
     19          1           0       -4.129397    4.038122   -0.148950
     20          6           0       -2.539147    2.759208   -0.861326
     21          6           0       -2.597580    4.061771    1.372905
     22          1           0       -3.372649    4.391943    2.077236
     23          8           0       -2.056116    1.619044   -0.797730
     24          6           0       -1.873538    5.318992    0.854435
     25          1           0       -1.142702    5.042982    0.082900
     26          1           0       -1.285359    5.729697    1.685014
     27          6           0       -1.646764    3.117722    2.119090
     28          1           0       -0.843257    2.739136    1.481838
     29          1           0       -1.182493    3.640070    2.963011
     30          1           0       -2.185871    2.252300    2.517194
     31          6           0       -2.798703    6.422346    0.323897
     32          1           0       -2.228210    7.322701    0.072668
     33          1           0       -3.345407    6.125994   -0.580735
     34          1           0       -3.552871    6.694661    1.070852
     35          7           0       -2.343543    3.572482   -1.926009
     36          1           0       -2.755162    4.496118   -1.907341
     37          6           0       -1.688875    3.156377   -3.175291
     38          1           0       -2.096530    2.173337   -3.439359
     39          6           0       -0.162098    3.028590   -2.955373
     40          6           0       -1.989191    4.171944   -4.271649
     41          1           0       -1.571829    3.830694   -5.222813
     42          1           0       -3.069352    4.301704   -4.393926
     43          1           0       -1.522091    5.131741   -4.032254
     44          8           0        0.611621    3.960487   -3.139911
     45          7           0        0.214820    1.794602   -2.528097
     46          1           0       -0.514294    1.134123   -2.283601
     47          6           0        1.530874    1.505592   -2.010027
     48          1           0        2.253040    2.140464   -2.535671
     49          6           0        1.818681    0.026816   -2.267540
     50          6           0        1.618580    1.785154   -0.473453
     51          1           0        2.608434    1.453985   -0.131821
     52          8           0        0.964506   -0.782396   -2.603728
     53          6           0        1.461307    3.267443   -0.141329
     54          1           0        2.199780    3.878763   -0.668866
     55          1           0        1.575317    3.407384    0.937481
     56          1           0        0.471629    3.627321   -0.430068
     57          8           0        0.700024    0.962441    0.223777
     58          1           0       -0.211624    1.212044   -0.027041
     59          7           0        3.117188   -0.367918   -2.055785
     60          1           0        3.846951    0.283060   -1.794753
     61          6           0        3.440357   -1.771566   -2.062735
     62          1           0        2.633306   -2.333831   -1.579894
     63          6           0        4.776571   -2.003364   -1.379556
     64          6           0        3.576113   -2.273919   -3.521143
     65          1           0        4.280744   -1.630854   -4.060749
     66          1           0        2.588105   -2.225754   -3.983562
     67          8           0        5.692288   -1.187769   -1.409801
     68          8           0        4.065223   -3.643305   -3.507295
     69          1           0        3.798344   -4.084803   -4.329911
     70          7           0        4.966286   -3.264423   -0.877426
     71          1           0        4.234337   -3.954546   -0.981020
     72          6           0        6.322018   -3.702892   -0.646976
     73          1           0        6.779555   -3.156150    0.182930
     74          1           0        6.318555   -4.769186   -0.398896
     75          6           0        7.165263   -3.488517   -1.899246
     76          8           0        6.670644   -3.623896   -3.092106
     77          7           0        8.429797   -3.198360   -1.797891
     78          1           0        8.865146   -3.089642   -0.880656
     79          6           0        9.313978   -2.858999   -2.926855
     80          1           0        9.167277   -3.588709   -3.727477
     81          6           0       10.727293   -2.974244   -2.361131
     82          6           0        8.994300   -1.428195   -3.434928
     83          1           0        7.904693   -1.354061   -3.497136
     84          1           0        9.312914   -0.706527   -2.672375
     85          8           0       10.957519   -2.978964   -1.169908
     86          6           0        9.623072   -1.092681   -4.793598
     87          1           0       10.711697   -1.185585   -4.729453
     88          1           0        9.291516   -1.832359   -5.536609
     89          6           0        9.261429    0.322649   -5.270848
     90          1           0        9.857290    0.545635   -6.166164
     91          1           0        9.550401    1.064834   -4.516279
     92          6           0        7.779290    0.521590   -5.609962
     93          1           0        7.478119   -0.247225   -6.349650
     94          1           0        7.163680    0.352260   -4.715880
     95          7           0        7.549707    1.901562   -6.035781
     96          1           0        6.561760    2.058371   -6.224924
     97          1           0        8.039655    2.082575   -6.910895
     98          8           0       11.647397   -3.035339   -3.324801
     99          1           0       12.530012   -3.061920   -2.904315
    100          1           0        5.659513   -3.720148   -3.153934
 ---------------------------------------------------------------------

 SCF Done:  E(RB3LYP) =  -2418.54523797     A.U. after    1 cycles

 Alpha  occ. eigenvalues --  -19.36211 -19.33037 -19.32411 -19.27696 -19.26636
 Alpha  occ. eigenvalues --  -19.20933 -19.19962 -19.19402 -19.17705 -19.15746
 Alpha  occ. eigenvalues --  -19.15042 -14.55264 -14.51440 -14.46326 -14.43960
 Alpha  occ. eigenvalues --  -14.42026 -14.39986 -14.39477 -14.38601 -14.36028
 Alpha  occ. eigenvalues --  -10.49336 -10.45864 -10.43236 -10.40289 -10.38690
 Alpha  occ. eigenvalues --  -10.38021 -10.37361 -10.36194 -10.36176 -10.34859
 Alpha  occ. eigenvalues --  -10.33392 -10.32135 -10.31268 -10.30998 -10.30658
 Alpha  occ. eigenvalues --  -10.30423 -10.29036 -10.28553 -10.28482 -10.26719
 Alpha  occ. eigenvalues --  -10.26553 -10.24618 -10.24328 -10.23608 -10.23446
 Alpha  occ. eigenvalues --  -10.23353 -10.22824 -10.21958  -1.26850  -1.24226
 Alpha  occ. eigenvalues --   -1.18970  -1.18059  -1.15693  -1.13267  -1.12260
 Alpha  occ. eigenvalues --   -1.11141  -1.09558  -1.07921  -1.07707  -1.07463
 Alpha  occ. eigenvalues --   -1.06912  -1.03084  -0.99995  -0.98901  -0.96739
 Alpha  occ. eigenvalues --   -0.95699  -0.94740  -0.94635  -0.93032  -0.91003
 Alpha  occ. eigenvalues --   -0.88484  -0.86426  -0.86162  -0.84702  -0.82864
 Alpha  occ. eigenvalues --   -0.82085  -0.80019  -0.79520  -0.79213  -0.78749
 Alpha  occ. eigenvalues --   -0.77958  -0.76192  -0.75945  -0.73969  -0.72745
 Alpha  occ. eigenvalues --   -0.71821  -0.71077  -0.70395  -0.69699  -0.69336
 Alpha  occ. eigenvalues --   -0.68313  -0.67618  -0.67187  -0.67097  -0.66253
 Alpha  occ. eigenvalues --   -0.65963  -0.64570  -0.63877  -0.63809  -0.62690
 Alpha  occ. eigenvalues --   -0.62391  -0.62131  -0.61963  -0.60900  -0.60301
 Alpha  occ. eigenvalues --   -0.60227  -0.59201  -0.59062  -0.58430  -0.58227
 Alpha  occ. eigenvalues --   -0.57806  -0.57595  -0.56799  -0.56588  -0.56177
 Alpha  occ. eigenvalues --   -0.55837  -0.55293  -0.54932  -0.54274  -0.53915
 Alpha  occ. eigenvalues --   -0.53821  -0.53404  -0.53209  -0.52964  -0.52667
 Alpha  occ. eigenvalues --   -0.51898  -0.51872  -0.51767  -0.51342  -0.51037
 Alpha  occ. eigenvalues --   -0.50313  -0.50198  -0.50128  -0.49358  -0.49076
 Alpha  occ. eigenvalues --   -0.48733  -0.48137  -0.47757  -0.47515  -0.47434
 Alpha  occ. eigenvalues --   -0.47015  -0.46956  -0.46098  -0.46019  -0.45909
 Alpha  occ. eigenvalues --   -0.45656  -0.45438  -0.44987  -0.44967  -0.44538
 Alpha  occ. eigenvalues --   -0.44399  -0.44200  -0.43984  -0.43942  -0.43505
 Alpha  occ. eigenvalues --   -0.43175  -0.42796  -0.42540  -0.42336  -0.42252
 Alpha  occ. eigenvalues --   -0.41804  -0.41585  -0.41491  -0.41097  -0.40980
 Alpha  occ. eigenvalues --   -0.40512  -0.40225  -0.39542  -0.38836  -0.38112
 Alpha  occ. eigenvalues --   -0.37467  -0.37328  -0.35771  -0.35189  -0.34591
 Alpha  occ. eigenvalues --   -0.33923  -0.32970  -0.31271  -0.31205  -0.30827
 Alpha  occ. eigenvalues --   -0.30623  -0.30256  -0.29258  -0.28929  -0.27770
 Alpha virt. eigenvalues --   -0.17863  -0.12973  -0.12352  -0.08191  -0.06853
 Alpha virt. eigenvalues --   -0.05718  -0.05222  -0.04616  -0.04369  -0.04135
 Alpha virt. eigenvalues --   -0.02426  -0.02010  -0.00848  -0.00726  -0.00443

 Mulliken charges:
               1
     1  N   -0.750841
     2  H    0.340679
     3  H    0.295646
     4  C   -0.066849
     5  H    0.185054
     6  C    0.611909
     7  C   -0.383745
     8  H    0.163887
     9  H    0.190183
    10  O   -0.550307
    11  C    0.605964
    12  N   -0.747758
    13  H    0.346457
    14  H    0.342279
    15  O   -0.516359
    16  N   -0.619152
    17  H    0.371190
    18  C   -0.038501
    19  H    0.173338
    20  C    0.629321
    21  C   -0.080692
    22  H    0.163545
    23  O   -0.571507
    24  C   -0.281827
    25  H    0.143176
    26  H    0.146996
    27  C   -0.472507
    28  H    0.151965
    29  H    0.147311
    30  H    0.149203
    31  C   -0.457162
    32  H    0.157196
    33  H    0.126409
    34  H    0.169686
    35  N   -0.607209
    36  H    0.354929
    37  C   -0.043775
    38  H    0.174010
    39  C    0.627012
    40  C   -0.483466
    41  H    0.174734
    42  H    0.160671
    43  H    0.186193
    44  O   -0.527970
    45  N   -0.600426
    46  H    0.366798
    47  C   -0.092067
    48  H    0.179210
    49  C    0.649154
    50  C    0.132281
    51  H    0.122125
    52  O   -0.518143
    53  C   -0.466836
    54  H    0.159787
    55  H    0.165281
    56  H    0.170055
    57  O   -0.651011
    58  H    0.437970
    59  N   -0.637154
    60  H    0.356339
    61  C   -0.019990
    62  H    0.205352
    63  C    0.575795
    64  C   -0.072969
    65  H    0.175353
    66  H    0.223590
    67  O   -0.512360
    68  O   -0.667661
    69  H    0.444582
    70  N   -0.583177
    71  H    0.368342
    72  C   -0.225838
    73  H    0.232003
    74  H    0.233594
    75  C    0.652373
    76  O   -0.584225
    77  N   -0.559313
    78  H    0.397101
    79  C   -0.062920
    80  H    0.217452
    81  C    0.603122
    82  C   -0.282102
    83  H    0.181077
    84  H    0.174450
    85  O   -0.453465
    86  C   -0.278959
    87  H    0.168138
    88  H    0.141604
    89  C   -0.258366
    90  H    0.148825
    91  H    0.161571
    92  C   -0.134580
    93  H    0.109813
    94  H    0.131389
    95  N   -0.712562
    96  H    0.303326
    97  H    0.303832
    98  O   -0.541648
    99  H    0.443145
   100  H    0.491631
 Sum of Mulliken charges =   1.00000

 Dipole moment (field-independent basis, Debye):
    X=             27.7336    Y=            -12.1848    Z=            -11.2665  Tot=             32.3196
 Quadrupole moment (field-independent basis, Debye-Ang):
   XX=              8.4995   YY=           -218.9613   ZZ=           -200.9864
   XY=           -126.4680   XZ=           -112.8352   YZ=             39.1466

 Normal termination of Gaussian 16 at Mon Jun  6 06:25:31 2022.
