 Gaussian 16, Revision C.01,
 Gaussian 16:  ES64L-G16RevC.01  3-Jul-2019

 ----------------------------------------------------------------------
 # B3LYP/6-31G* empiricaldispersion=gd3 guess=read geom=check nosymm in
 tegral(ultrafinegrid)
 ----------------------------------------------------------------------

 ------------------------------------------------------
 Candidate Structure: Conf:746 Charge calc in gas phase
 ------------------------------------------------------
 Structure from the checkpoint file:  "conf-746.chk"
 Charge =  1 Multiplicity = 1

                          Input orientation:
 ---------------------------------------------------------------------
 Center     Atomic      Atomic             Coordinates (Angstroms)
 Number     Number       Type             X           Y           Z
 ---------------------------------------------------------------------
      1          7           0       -4.592870   -2.375738   -0.026723
      2          1           0       -5.091571   -3.033235   -0.621013
      3          1           0       -4.338539   -2.882515    0.823738
      4          6           0       -5.475893   -1.263609    0.340288
      5          1           0       -6.116524   -1.025960   -0.517043
      6          6           0       -4.669986    0.013913    0.651405
      7          6           0       -6.390281   -1.542451    1.566002
      8          1           0       -7.102794   -0.723418    1.684675
      9          1           0       -6.939602   -2.472999    1.396175
     10          8           0       -5.202773    1.005727    1.158787
     11          6           0       -5.516765   -1.720908    2.801922
     12          7           0       -5.548678   -0.696896    3.701638
     13          1           0       -4.856669   -0.722082    4.440000
     14          1           0       -5.864698    0.213036    3.390197
     15          8           0       -4.798865   -2.711293    2.944732
     16          7           0       -3.352746   -0.071781    0.375242
     17          1           0       -3.009944   -0.955499    0.005309
     18          6           0       -2.413957    0.942026    0.804709
     19          1           0       -2.824357    1.919589    0.531644
     20          6           0       -1.097966    0.687133    0.071843
     21          6           0       -2.218085    0.914618    2.362153
     22          1           0       -3.228640    1.087505    2.751166
     23          8           0       -0.746741   -0.454441   -0.254294
     24          6           0       -1.326000    2.054917    2.890048
     25          1           0       -0.313993    1.971217    2.468532
     26          1           0       -1.211729    1.913893    3.971805
     27          6           0       -1.747392   -0.460657    2.857152
     28          1           0       -0.794318   -0.756987    2.406458
     29          1           0       -1.605169   -0.445599    3.943003
     30          1           0       -2.476043   -1.243241    2.626528
     31          6           0       -1.866084    3.469039    2.638439
     32          1           0       -1.241550    4.219928    3.133374
     33          1           0       -1.905954    3.731522    1.573100
     34          1           0       -2.886955    3.569618    3.023411
     35          7           0       -0.297742    1.762438   -0.116043
     36          1           0       -0.630521    2.666365    0.191343
     37          6           0        0.996829    1.731749   -0.802993
     38          1           0        0.897848    1.126433   -1.715127
     39          6           0        2.142049    1.069586   -0.005715
     40          6           0        1.377721    3.165045   -1.180802
     41          1           0        2.374971    3.183652   -1.616919
     42          1           0        0.658120    3.570721   -1.898479
     43          1           0        1.395116    3.810116   -0.293753
     44          8           0        3.318364    1.368259   -0.234867
     45          7           0        1.787980    0.134502    0.919322
     46          1           0        0.898605   -0.341851    0.762649
     47          6           0        2.786976   -0.531951    1.760529
     48          1           0        3.576132    0.201409    1.950133
     49          6           0        3.365241   -1.726087    0.991053
     50          6           0        2.153423   -0.937775    3.107597
     51          1           0        1.365260   -1.680197    2.905320
     52          8           0        3.063161   -2.894826    1.212132
     53          6           0        3.174313   -1.537951    4.064734
     54          1           0        3.574508   -2.474813    3.671484
     55          1           0        2.689700   -1.734746    5.024841
     56          1           0        3.993068   -0.830241    4.237910
     57          8           0        1.619335    0.211820    3.749406
     58          1           0        0.968050    0.614754    3.155225
     59          7           0        4.232906   -1.383420   -0.014890
     60          1           0        4.319788   -0.402931   -0.290741
     61          6           0        4.733033   -2.426096   -0.871325
     62          1           0        5.034869   -3.278672   -0.253496
     63          6           0        5.878910   -1.925338   -1.730533
     64          6           0        3.625834   -2.913554   -1.836896
     65          1           0        3.234889   -2.061256   -2.404797
     66          1           0        2.832026   -3.365003   -1.239159
     67          8           0        5.934529   -0.790909   -2.188573
     68          8           0        4.195257   -3.901901   -2.740527
     69          1           0        3.488660   -4.483056   -3.065882
     70          7           0        6.773406   -2.891814   -2.123613
     71          1           0        6.642837   -3.846807   -1.818078
     72          6           0        7.606634   -2.622760   -3.266692
     73          1           0        8.271523   -1.775418   -3.073657
     74          1           0        8.220991   -3.503005   -3.483027
     75          6           0        6.758631   -2.310239   -4.497789
     76          8           0        5.585207   -2.827110   -4.670485
     77          7           0        7.237321   -1.540834   -5.438690
     78          1           0        8.160284   -1.136718   -5.309014
     79          6           0        6.511735   -1.123415   -6.656600
     80          1           0        5.782152   -1.898817   -6.894226
     81          6           0        7.468996   -1.011311   -7.839253
     82          6           0        5.793189    0.230772   -6.440590
     83          1           0        6.548307    1.006308   -6.256251
     84          1           0        5.307570    0.477107   -7.391818
     85          8           0        7.098798   -1.021613   -8.982812
     86          6           0        4.773312    0.203798   -5.297883
     87          1           0        4.051678   -0.603380   -5.483017
     88          1           0        5.277579   -0.029982   -4.353278
     89          6           0        4.034828    1.536011   -5.127915
     90          1           0        3.429819    1.745812   -6.021712
     91          1           0        4.767750    2.351126   -5.047301
     92          6           0        3.141902    1.561577   -3.873789
     93          1           0        3.753911    1.409371   -2.976135
     94          1           0        2.695466    2.556920   -3.780974
     95          7           0        2.043427    0.586759   -3.824385
     96          1           0        2.403310   -0.361248   -3.918569
     97          1           0        1.407147    0.727858   -4.608471
     98          8           0        8.749584   -0.824414   -7.437473
     99          1           0        9.301102   -0.701194   -8.234659
    100          1           0        5.161417   -3.300703   -3.869464
 ---------------------------------------------------------------------

 SCF Done:  E(RB3LYP) =  -2418.56009147     A.U. after    1 cycles

 Alpha  occ. eigenvalues --  -19.36366 -19.33113 -19.32466 -19.26801 -19.26428
 Alpha  occ. eigenvalues --  -19.20786 -19.20593 -19.20165 -19.20068 -19.16481
 Alpha  occ. eigenvalues --  -19.16352 -14.55975 -14.51422 -14.45209 -14.44765
 Alpha  occ. eigenvalues --  -14.44025 -14.40812 -14.40788 -14.40339 -14.37242
 Alpha  occ. eigenvalues --  -10.49738 -10.45371 -10.43033 -10.40519 -10.38813
 Alpha  occ. eigenvalues --  -10.37667 -10.37281 -10.37225 -10.36957 -10.35795
 Alpha  occ. eigenvalues --  -10.33920 -10.33389 -10.31772 -10.31295 -10.30655
 Alpha  occ. eigenvalues --  -10.30302 -10.29912 -10.29186 -10.29145 -10.28346
 Alpha  occ. eigenvalues --  -10.27565 -10.25919 -10.25763 -10.25141 -10.24454
 Alpha  occ. eigenvalues --  -10.24316 -10.23041 -10.22977  -1.27111  -1.23673
 Alpha  occ. eigenvalues --   -1.18847  -1.18025  -1.14944  -1.13059  -1.12922
 Alpha  occ. eigenvalues --   -1.12305  -1.11618  -1.08450  -1.08014  -1.07896
 Alpha  occ. eigenvalues --   -1.07842  -1.02413  -1.01191  -0.99992  -0.98131
 Alpha  occ. eigenvalues --   -0.97206  -0.95170  -0.95097  -0.94305  -0.90970
 Alpha  occ. eigenvalues --   -0.88572  -0.87603  -0.86684  -0.85411  -0.83764
 Alpha  occ. eigenvalues --   -0.82460  -0.81136  -0.80339  -0.80081  -0.79015
 Alpha  occ. eigenvalues --   -0.77665  -0.77371  -0.75628  -0.74254  -0.73081
 Alpha  occ. eigenvalues --   -0.72502  -0.71848  -0.71034  -0.69756  -0.69505
 Alpha  occ. eigenvalues --   -0.68611  -0.68336  -0.67888  -0.67632  -0.66835
 Alpha  occ. eigenvalues --   -0.66292  -0.65331  -0.65213  -0.64677  -0.63239
 Alpha  occ. eigenvalues --   -0.62867  -0.62594  -0.61557  -0.60798  -0.60567
 Alpha  occ. eigenvalues --   -0.60336  -0.60035  -0.59320  -0.58988  -0.58346
 Alpha  occ. eigenvalues --   -0.58217  -0.58041  -0.57441  -0.57051  -0.56994
 Alpha  occ. eigenvalues --   -0.56731  -0.56000  -0.55790  -0.55388  -0.55127
 Alpha  occ. eigenvalues --   -0.54666  -0.53867  -0.53779  -0.53524  -0.53288
 Alpha  occ. eigenvalues --   -0.53171  -0.52682  -0.51794  -0.51251  -0.50900
 Alpha  occ. eigenvalues --   -0.50850  -0.50646  -0.50244  -0.49940  -0.49851
 Alpha  occ. eigenvalues --   -0.49340  -0.49303  -0.48847  -0.48584  -0.47965
 Alpha  occ. eigenvalues --   -0.47342  -0.47141  -0.46972  -0.46749  -0.46538
 Alpha  occ. eigenvalues --   -0.46320  -0.45902  -0.45838  -0.45642  -0.45229
 Alpha  occ. eigenvalues --   -0.45105  -0.44820  -0.44680  -0.44631  -0.44185
 Alpha  occ. eigenvalues --   -0.43684  -0.43435  -0.43300  -0.43208  -0.43086
 Alpha  occ. eigenvalues --   -0.42451  -0.42274  -0.41946  -0.41707  -0.41252
 Alpha  occ. eigenvalues --   -0.41123  -0.40247  -0.40108  -0.39771  -0.39019
 Alpha  occ. eigenvalues --   -0.38884  -0.38566  -0.36565  -0.36129  -0.35169
 Alpha  occ. eigenvalues --   -0.34186  -0.33717  -0.33123  -0.32493  -0.32200
 Alpha  occ. eigenvalues --   -0.31977  -0.31894  -0.30259  -0.29658  -0.28777
 Alpha virt. eigenvalues --   -0.18159  -0.12830  -0.12021  -0.08355  -0.07919
 Alpha virt. eigenvalues --   -0.06828  -0.06632  -0.05779  -0.05118  -0.04230
 Alpha virt. eigenvalues --   -0.03712  -0.03617  -0.02217  -0.01515  -0.00993

 Mulliken charges:
               1
     1  N   -0.758380
     2  H    0.311950
     3  H    0.343019
     4  C   -0.085959
     5  H    0.173191
     6  C    0.617049
     7  C   -0.345251
     8  H    0.171222
     9  H    0.171919
    10  O   -0.564514
    11  C    0.573130
    12  N   -0.724501
    13  H    0.339011
    14  H    0.361019
    15  O   -0.521883
    16  N   -0.612795
    17  H    0.378392
    18  C   -0.026117
    19  H    0.171525
    20  C    0.607852
    21  C   -0.094148
    22  H    0.162338
    23  O   -0.561771
    24  C   -0.289966
    25  H    0.121957
    26  H    0.162468
    27  C   -0.486788
    28  H    0.133070
    29  H    0.158139
    30  H    0.183779
    31  C   -0.461034
    32  H    0.162146
    33  H    0.129670
    34  H    0.172051
    35  N   -0.612355
    36  H    0.352151
    37  C   -0.055716
    38  H    0.237026
    39  C    0.621388
    40  C   -0.489547
    41  H    0.196264
    42  H    0.161003
    43  H    0.159369
    44  O   -0.541163
    45  N   -0.661616
    46  H    0.392785
    47  C   -0.077824
    48  H    0.189163
    49  C    0.632767
    50  C    0.131931
    51  H    0.143246
    52  O   -0.528662
    53  C   -0.466864
    54  H    0.168505
    55  H    0.174445
    56  H    0.151481
    57  O   -0.647766
    58  H    0.423147
    59  N   -0.642182
    60  H    0.391975
    61  C   -0.025303
    62  H    0.196032
    63  C    0.582940
    64  C   -0.086996
    65  H    0.180220
    66  H    0.226382
    67  O   -0.498340
    68  O   -0.669879
    69  H    0.445453
    70  N   -0.586566
    71  H    0.366501
    72  C   -0.230492
    73  H    0.230283
    74  H    0.234184
    75  C    0.654189
    76  O   -0.582053
    77  N   -0.547872
    78  H    0.394168
    79  C   -0.092146
    80  H    0.226337
    81  C    0.607813
    82  C   -0.271939
    83  H    0.164693
    84  H    0.197220
    85  O   -0.415038
    86  C   -0.301251
    87  H    0.127698
    88  H    0.175261
    89  C   -0.266260
    90  H    0.141021
    91  H    0.146333
    92  C   -0.172486
    93  H    0.179683
    94  H    0.157879
    95  N   -0.721024
    96  H    0.298634
    97  H    0.307509
    98  O   -0.587919
    99  H    0.444410
   100  H    0.495980
 Sum of Mulliken charges =   1.00000

 Dipole moment (field-independent basis, Debye):
    X=             25.5737    Y=             -7.4112    Z=            -20.2112  Tot=             33.4280
 Quadrupole moment (field-independent basis, Debye-Ang):
   XX=            -59.5893   YY=           -240.5176   ZZ=           -188.1090
   XY=            -65.7396   XZ=           -137.1793   YZ=             43.4779

 Normal termination of Gaussian 16 at Mon Jun  6 06:22:02 2022.
