 Gaussian 16, Revision C.01,
 Gaussian 16:  ES64L-G16RevC.01  3-Jul-2019

 ----------------------------------------------------------------------
 # B3LYP/6-31G* empiricaldispersion=gd3 guess=read geom=check nosymm in
 tegral(ultrafinegrid)
 ----------------------------------------------------------------------

 ------------------------------------------------------
 Candidate Structure: Conf:549 Charge calc in gas phase
 ------------------------------------------------------
 Structure from the checkpoint file:  "conf-549.chk"
 Charge =  1 Multiplicity = 1

                          Input orientation:
 ---------------------------------------------------------------------
 Center     Atomic      Atomic             Coordinates (Angstroms)
 Number     Number       Type             X           Y           Z
 ---------------------------------------------------------------------
      1          7           0       -6.618339   -0.909775    1.116205
      2          1           0       -6.878380   -0.008442    1.520332
      3          1           0       -6.755150   -1.590635    1.862057
      4          6           0       -5.199629   -0.846429    0.761485
      5          1           0       -4.842521   -1.870418    0.593927
      6          6           0       -4.354629   -0.175158    1.857557
      7          6           0       -4.995687   -0.029800   -0.538518
      8          1           0       -5.482046    0.947020   -0.409065
      9          1           0       -3.932131    0.158383   -0.710445
     10          8           0       -4.844015    0.630059    2.643587
     11          6           0       -5.518437   -0.675332   -1.831164
     12          7           0       -6.724209   -1.287257   -1.721033
     13          1           0       -7.118787   -1.721527   -2.543317
     14          1           0       -7.189509   -1.330121   -0.816177
     15          8           0       -4.875514   -0.598271   -2.870498
     16          7           0       -3.025791   -0.502855    1.851129
     17          1           0       -2.667819   -1.054792    1.079634
     18          6           0       -2.033186    0.305065    2.545214
     19          1           0       -2.591373    1.017023    3.158364
     20          6           0       -1.235276    1.036434    1.463130
     21          6           0       -1.100229   -0.542467    3.444975
     22          1           0       -0.551125   -1.222804    2.777995
     23          8           0       -0.798629    0.423010    0.480638
     24          6           0       -1.907708   -1.415009    4.430212
     25          1           0       -1.187289   -2.000043    5.016924
     26          1           0       -2.494250   -2.138373    3.852644
     27          6           0       -0.075031    0.353028    4.158932
     28          1           0       -0.566363    1.105790    4.786700
     29          1           0        0.568235   -0.248923    4.809130
     30          1           0        0.572454    0.881211    3.450095
     31          6           0       -2.846232   -0.653555    5.375921
     32          1           0       -3.326428   -1.351431    6.069908
     33          1           0       -2.309060    0.085693    5.981338
     34          1           0       -3.641611   -0.136519    4.828314
     35          7           0       -1.037412    2.367518    1.625921
     36          1           0       -1.423452    2.827875    2.439806
     37          6           0       -0.440803    3.206573    0.582153
     38          1           0       -0.787959    2.804870   -0.377938
     39          6           0        1.097894    3.085375    0.603951
     40          6           0       -0.889126    4.654344    0.746848
     41          1           0       -0.484636    5.270336   -0.060223
     42          1           0       -1.980774    4.713978    0.715383
     43          1           0       -0.525856    5.070657    1.691203
     44          8           0        1.825346    4.036643    0.936092
     45          7           0        1.582355    1.884539    0.220187
     46          1           0        0.914698    1.148689   -0.033101
     47          6           0        2.988432    1.513728    0.355301
     48          1           0        3.369425    1.920909    1.301389
     49          6           0        3.781179    2.158445   -0.793322
     50          6           0        3.146035   -0.025094    0.343572
     51          1           0        4.227988   -0.229356    0.363786
     52          8           0        4.238749    1.517454   -1.746316
     53          6           0        2.479963   -0.683321    1.545036
     54          1           0        2.849290   -0.264127    2.486807
     55          1           0        2.691840   -1.755398    1.528736
     56          1           0        1.395588   -0.554493    1.494841
     57          8           0        2.548975   -0.574698   -0.819536
     58          1           0        3.085157   -0.295929   -1.580482
     59          7           0        3.957244    3.509333   -0.681110
     60          1           0        3.388645    3.941152    0.066520
     61          6           0        4.242667    4.315336   -1.851740
     62          1           0        3.771047    3.866714   -2.743285
     63          6           0        5.707611    4.330226   -2.264079
     64          6           0        3.666741    5.730861   -1.678451
     65          1           0        4.193512    6.268669   -0.879209
     66          1           0        2.608067    5.648396   -1.409167
     67          8           0        6.117466    5.186138   -3.149029
     68          8           0        3.832892    6.379588   -2.948070
     69          1           0        3.615389    7.323209   -2.871860
     70          7           0        6.548223    3.407813   -1.872988
     71          1           0        6.189845    2.733127   -1.206987
     72          6           0        7.718566    3.031959   -2.688743
     73          1           0        8.334630    3.908310   -2.886414
     74          1           0        8.303793    2.304039   -2.123664
     75          6           0        7.274059    2.456629   -4.064756
     76          8           0        7.992452    2.604782   -5.035454
     77          7           0        6.075731    1.816281   -4.067812
     78          1           0        5.507046    1.760720   -3.230442
     79          6           0        5.410882    1.452040   -5.309692
     80          1           0        6.133683    0.983715   -5.981636
     81          6           0        4.859721    2.673413   -6.043928
     82          6           0        4.227976    0.500979   -5.027516
     83          1           0        3.472696    1.047361   -4.445111
     84          1           0        3.766887    0.255255   -5.990383
     85          8           0        4.698775    2.747808   -7.233283
     86          6           0        4.609618   -0.784719   -4.285730
     87          1           0        5.371952   -1.325777   -4.859853
     88          1           0        5.060767   -0.533401   -3.315343
     89          6           0        3.392245   -1.692623   -4.061496
     90          1           0        3.022658   -2.048715   -5.030567
     91          1           0        2.576068   -1.113452   -3.603241
     92          6           0        3.692526   -2.904273   -3.172193
     93          1           0        3.946901   -2.548800   -2.155207
     94          1           0        2.774529   -3.493166   -3.068000
     95          7           0        4.711443   -3.763313   -3.783198
     96          1           0        4.722441   -4.673845   -3.329131
     97          1           0        5.639857   -3.369169   -3.645447
     98          8           0        4.461675    3.671622   -5.184361
     99          1           0        4.062824    4.355026   -5.756503
    100          1           0        5.369333    5.815424   -3.365808
 ---------------------------------------------------------------------

 SCF Done:  E(RB3LYP) =  -2418.55057636     A.U. after    1 cycles

 Alpha  occ. eigenvalues --  -19.36915 -19.33590 -19.29913 -19.28273 -19.24837
 Alpha  occ. eigenvalues --  -19.24241 -19.23443 -19.22674 -19.22397 -19.19432
 Alpha  occ. eigenvalues --  -19.14897 -14.55770 -14.51108 -14.47949 -14.47627
 Alpha  occ. eigenvalues --  -14.46400 -14.43974 -14.39322 -14.38768 -14.37322
 Alpha  occ. eigenvalues --  -10.49415 -10.44285 -10.41372 -10.41362 -10.41145
 Alpha  occ. eigenvalues --  -10.40977 -10.40206 -10.39295 -10.37146 -10.36071
 Alpha  occ. eigenvalues --  -10.36021 -10.35091 -10.34932 -10.33366 -10.32995
 Alpha  occ. eigenvalues --  -10.31792 -10.30044 -10.28741 -10.28273 -10.27609
 Alpha  occ. eigenvalues --  -10.27107 -10.27015 -10.26511 -10.25973 -10.25586
 Alpha  occ. eigenvalues --  -10.25089 -10.25049 -10.23379  -1.27912  -1.20121
 Alpha  occ. eigenvalues --   -1.20033  -1.19860  -1.16206  -1.14817  -1.14452
 Alpha  occ. eigenvalues --   -1.12852  -1.12148  -1.11228  -1.11207  -1.08305
 Alpha  occ. eigenvalues --   -1.06721  -1.04608  -1.03532  -1.03364  -1.00644
 Alpha  occ. eigenvalues --   -0.96650  -0.94540  -0.94176  -0.93563  -0.90246
 Alpha  occ. eigenvalues --   -0.89888  -0.88869  -0.87932  -0.87243  -0.83797
 Alpha  occ. eigenvalues --   -0.83103  -0.82860  -0.81764  -0.80885  -0.80705
 Alpha  occ. eigenvalues --   -0.78608  -0.77305  -0.76738  -0.74668  -0.72493
 Alpha  occ. eigenvalues --   -0.72110  -0.71830  -0.70946  -0.70667  -0.70137
 Alpha  occ. eigenvalues --   -0.69797  -0.69682  -0.69535  -0.69226  -0.69030
 Alpha  occ. eigenvalues --   -0.66322  -0.66013  -0.65546  -0.64745  -0.64471
 Alpha  occ. eigenvalues --   -0.63757  -0.63640  -0.63007  -0.62726  -0.61922
 Alpha  occ. eigenvalues --   -0.61055  -0.60484  -0.59801  -0.59455  -0.59134
 Alpha  occ. eigenvalues --   -0.58805  -0.58498  -0.58202  -0.57520  -0.57433
 Alpha  occ. eigenvalues --   -0.56752  -0.56557  -0.56504  -0.56184  -0.55706
 Alpha  occ. eigenvalues --   -0.55375  -0.55325  -0.54538  -0.54089  -0.53944
 Alpha  occ. eigenvalues --   -0.53730  -0.53605  -0.53057  -0.52200  -0.51771
 Alpha  occ. eigenvalues --   -0.51722  -0.51317  -0.50986  -0.50765  -0.50687
 Alpha  occ. eigenvalues --   -0.50579  -0.49991  -0.49454  -0.49315  -0.49177
 Alpha  occ. eigenvalues --   -0.48718  -0.48650  -0.48335  -0.48078  -0.47925
 Alpha  occ. eigenvalues --   -0.47810  -0.46969  -0.46897  -0.46831  -0.46570
 Alpha  occ. eigenvalues --   -0.46380  -0.45766  -0.45415  -0.45367  -0.44961
 Alpha  occ. eigenvalues --   -0.44934  -0.44547  -0.44148  -0.43813  -0.43768
 Alpha  occ. eigenvalues --   -0.43087  -0.42443  -0.41735  -0.41673  -0.41319
 Alpha  occ. eigenvalues --   -0.40811  -0.40687  -0.40098  -0.39870  -0.39797
 Alpha  occ. eigenvalues --   -0.39703  -0.39411  -0.38621  -0.38303  -0.37142
 Alpha  occ. eigenvalues --   -0.36570  -0.36052  -0.36036  -0.34907  -0.34222
 Alpha  occ. eigenvalues --   -0.33140  -0.31836  -0.30289  -0.29502  -0.28716
 Alpha virt. eigenvalues --   -0.18843  -0.14236  -0.10806  -0.09578  -0.09063
 Alpha virt. eigenvalues --   -0.08642  -0.08407  -0.05997  -0.05278  -0.03714
 Alpha virt. eigenvalues --   -0.03577  -0.02446  -0.02133  -0.01576  -0.01248

 Mulliken charges:
               1
     1  N   -0.720277
     2  H    0.328141
     3  H    0.319973
     4  C   -0.093482
     5  H    0.159459
     6  C    0.597673
     7  C   -0.358850
     8  H    0.173536
     9  H    0.165748
    10  O   -0.521154
    11  C    0.576201
    12  N   -0.749789
    13  H    0.337868
    14  H    0.377428
    15  O   -0.513673
    16  N   -0.596397
    17  H    0.348532
    18  C   -0.059209
    19  H    0.182051
    20  C    0.639251
    21  C   -0.090418
    22  H    0.142688
    23  O   -0.559217
    24  C   -0.251937
    25  H    0.141952
    26  H    0.146802
    27  C   -0.472840
    28  H    0.151376
    29  H    0.164874
    30  H    0.136107
    31  C   -0.479123
    32  H    0.158555
    33  H    0.143129
    34  H    0.179967
    35  N   -0.595481
    36  H    0.353567
    37  C   -0.056094
    38  H    0.198296
    39  C    0.631854
    40  C   -0.469997
    41  H    0.163973
    42  H    0.180104
    43  H    0.179424
    44  O   -0.565678
    45  N   -0.619761
    46  H    0.413526
    47  C   -0.068393
    48  H    0.187390
    49  C    0.609247
    50  C    0.099905
    51  H    0.135396
    52  O   -0.539389
    53  C   -0.473150
    54  H    0.150255
    55  H    0.182723
    56  H    0.186413
    57  O   -0.630222
    58  H    0.431688
    59  N   -0.654820
    60  H    0.410322
    61  C   -0.074536
    62  H    0.257740
    63  C    0.659362
    64  C   -0.082914
    65  H    0.190041
    66  H    0.206879
    67  O   -0.539644
    68  O   -0.644832
    69  H    0.448192
    70  N   -0.553184
    71  H    0.391330
    72  C   -0.263179
    73  H    0.244108
    74  H    0.223145
    75  C    0.609671
    76  O   -0.470285
    77  N   -0.645053
    78  H    0.382365
    79  C   -0.028124
    80  H    0.213898
    81  C    0.601341
    82  C   -0.312022
    83  H    0.139517
    84  H    0.188667
    85  O   -0.426565
    86  C   -0.273961
    87  H    0.163666
    88  H    0.119952
    89  C   -0.252572
    90  H    0.163158
    91  H    0.125831
    92  C   -0.147823
    93  H    0.106230
    94  H    0.155337
    95  N   -0.713458
    96  H    0.307891
    97  H    0.294764
    98  O   -0.610934
    99  H    0.418650
   100  H    0.481307
 Sum of Mulliken charges =   1.00000

 Dipole moment (field-independent basis, Debye):
    X=             15.1738    Y=             17.1388    Z=              2.4537  Tot=             23.0218
 Quadrupole moment (field-independent basis, Debye-Ang):
   XX=           -176.4700   YY=           -162.5500   ZZ=           -301.8404
   XY=             72.7292   XZ=            -15.8332   YZ=            -34.5570

 Normal termination of Gaussian 16 at Mon Jun  6 06:21:56 2022.
