 Gaussian 16, Revision C.01,
 Gaussian 16:  ES64L-G16RevC.01  3-Jul-2019

 ----------------------------------------------------------------------
 # B3LYP/6-31G* empiricaldispersion=gd3 guess=read geom=check nosymm in
 tegral(ultrafinegrid)
 ----------------------------------------------------------------------

 ------------------------------------------------------
 Candidate Structure: Conf:981 Charge calc in gas phase
 ------------------------------------------------------
 Structure from the checkpoint file:  "conf-981.chk"
 Charge =  1 Multiplicity = 1

                          Input orientation:
 ---------------------------------------------------------------------
 Center     Atomic      Atomic             Coordinates (Angstroms)
 Number     Number       Type             X           Y           Z
 ---------------------------------------------------------------------
      1          7           0       -7.553535   -1.561330    2.595450
      2          1           0       -8.467652   -1.725001    2.176274
      3          1           0       -7.630492   -1.844520    3.572923
      4          6           0       -7.285825   -0.120690    2.517740
      5          1           0       -7.501659    0.176142    1.483280
      6          6           0       -5.794121    0.162957    2.729632
      7          6           0       -8.138947    0.765771    3.434999
      8          1           0       -8.034712    0.439656    4.479569
      9          1           0       -7.771812    1.797758    3.396609
     10          8           0       -5.366587    1.296177    2.992592
     11          6           0       -9.612864    0.711614    3.028888
     12          7           0      -10.445747    1.484445    3.778056
     13          1           0      -11.422919    1.522145    3.522117
     14          1           0      -10.105032    2.130779    4.474165
     15          8           0      -10.018186    0.013362    2.104833
     16          7           0       -4.993441   -0.912527    2.563378
     17          1           0       -5.472665   -1.775658    2.317547
     18          6           0       -3.554694   -0.877096    2.811468
     19          1           0       -3.395565   -0.146321    3.613535
     20          6           0       -2.876219   -0.325446    1.536830
     21          6           0       -3.014437   -2.249795    3.252113
     22          1           0       -3.033456   -2.905556    2.371813
     23          8           0       -2.244018   -1.046174    0.743528
     24          6           0       -3.897511   -2.895140    4.346673
     25          1           0       -3.429156   -3.847627    4.624965
     26          1           0       -4.875838   -3.160135    3.927036
     27          6           0       -1.552977   -2.126156    3.714074
     28          1           0       -1.445882   -1.392408    4.521686
     29          1           0       -1.193564   -3.089317    4.091333
     30          1           0       -0.889897   -1.830195    2.899169
     31          6           0       -4.110689   -2.045528    5.606007
     32          1           0       -4.705985   -2.596393    6.341883
     33          1           0       -3.162789   -1.780040    6.086208
     34          1           0       -4.644901   -1.114963    5.381083
     35          7           0       -3.078470    0.996538    1.349751
     36          1           0       -3.716606    1.445233    2.014884
     37          6           0       -2.834161    1.708070    0.083790
     38          1           0       -3.157073    1.054755   -0.737256
     39          6           0       -1.318335    1.969024   -0.064064
     40          6           0       -3.621337    3.013236    0.074443
     41          1           0       -3.510991    3.512819   -0.891605
     42          1           0       -4.682928    2.817901    0.253327
     43          1           0       -3.241413    3.688411    0.845843
     44          8           0       -0.777837    3.023619    0.227427
     45          7           0       -0.638462    0.869924   -0.534495
     46          1           0       -1.163702   -0.003688   -0.507255
     47          6           0        0.783247    0.763929   -0.340055
     48          1           0        1.186952    1.778518   -0.245167
     49          6           0        1.429528    0.069163   -1.510546
     50          6           0        1.135881   -0.062584    0.956079
     51          1           0        2.228377   -0.158521    1.000768
     52          8           0        0.669695   -0.645582   -2.273139
     53          6           0        0.651737    0.647355    2.217736
     54          1           0        1.089923    1.646451    2.302416
     55          1           0        0.941105    0.053346    3.088966
     56          1           0       -0.435428    0.758524    2.223131
     57          8           0        0.648617   -1.381908    0.815555
     58          1           0       -0.326936   -1.381079    0.907339
     59          7           0        2.732444    0.155842   -1.665983
     60          1           0        3.278068    0.782476   -1.058738
     61          6           0        3.629547   -0.677821   -2.473010
     62          1           0        3.488283   -1.729058   -2.187957
     63          6           0        5.055176   -0.221926   -2.040633
     64          6           0        3.395986   -0.537347   -3.985900
     65          1           0        4.216941   -0.994934   -4.544904
     66          1           0        3.339427    0.519087   -4.260150
     67          8           0        5.179685    0.706447   -1.242942
     68          8           0        2.143388   -1.136801   -4.365053
     69          1           0        2.285367   -2.052745   -4.654030
     70          7           0        6.065848   -0.899479   -2.591520
     71          1           0        5.947065   -1.711521   -3.197637
     72          6           0        7.459232   -0.634776   -2.286874
     73          1           0        7.733578    0.384953   -2.581079
     74          1           0        7.646719   -0.727581   -1.210349
     75          6           0        8.273500   -1.673042   -3.078658
     76          8           0        7.697262   -2.508307   -3.780709
     77          7           0        9.605450   -1.592121   -2.937973
     78          1           0       10.036323   -0.894871   -2.339040
     79          6           0       10.524269   -2.509842   -3.606998
     80          1           0       10.120480   -3.525074   -3.539277
     81          6           0       11.833282   -2.434384   -2.832361
     82          6           0       10.703928   -2.137555   -5.100416
     83          1           0        9.691031   -2.053466   -5.510578
     84          1           0       11.160572   -1.140950   -5.159171
     85          8           0       12.134260   -1.510728   -2.105094
     86          6           0       11.503888   -3.147795   -5.929283
     87          1           0       12.535416   -3.208306   -5.562653
     88          1           0       11.069029   -4.147353   -5.790930
     89          6           0       11.512684   -2.792701   -7.420947
     90          1           0       11.920530   -1.779675   -7.552743
     91          1           0       10.478415   -2.762084   -7.796531
     92          6           0       12.332638   -3.775617   -8.279787
     93          1           0       12.350048   -3.412125   -9.314620
     94          1           0       13.375607   -3.773339   -7.935887
     95          7           0       11.879943   -5.167296   -8.305881
     96          1           0       10.903863   -5.215842   -8.595059
     97          1           0       11.929611   -5.580967   -7.377148
     98          8           0       12.622127   -3.494814   -3.065809
     99          1           0       13.453171   -3.355488   -2.571083
    100          1           0        1.139436   -0.974660   -3.104051
 ---------------------------------------------------------------------

 SCF Done:  E(RB3LYP) =  -2418.56176431     A.U. after    1 cycles

 Alpha  occ. eigenvalues --  -19.34199 -19.32498 -19.28755 -19.25287 -19.23474
 Alpha  occ. eigenvalues --  -19.23241 -19.22524 -19.21744 -19.20627 -19.19539
 Alpha  occ. eigenvalues --  -19.17705 -14.53161 -14.48804 -14.46222 -14.44655
 Alpha  occ. eigenvalues --  -14.44608 -14.43525 -14.41911 -14.39002 -14.36109
 Alpha  occ. eigenvalues --  -10.46862 -10.42602 -10.41240 -10.39784 -10.39422
 Alpha  occ. eigenvalues --  -10.39193 -10.37996 -10.37447 -10.36143 -10.35447
 Alpha  occ. eigenvalues --  -10.35264 -10.34795 -10.34353 -10.32947 -10.32005
 Alpha  occ. eigenvalues --  -10.31208 -10.29634 -10.26937 -10.26674 -10.26426
 Alpha  occ. eigenvalues --  -10.26249 -10.25683 -10.25490 -10.25083 -10.25051
 Alpha  occ. eigenvalues --  -10.24407 -10.23988 -10.23857  -1.25099  -1.19799
 Alpha  occ. eigenvalues --   -1.18924  -1.17479  -1.14410  -1.13348  -1.12343
 Alpha  occ. eigenvalues --   -1.11377  -1.11024  -1.10919  -1.10152  -1.09453
 Alpha  occ. eigenvalues --   -1.05302  -1.02854  -1.02352  -1.01385  -1.00339
 Alpha  occ. eigenvalues --   -0.96625  -0.95967  -0.93484  -0.92921  -0.88942
 Alpha  occ. eigenvalues --   -0.88449  -0.87993  -0.85290  -0.84916  -0.83735
 Alpha  occ. eigenvalues --   -0.82692  -0.82244  -0.80748  -0.80040  -0.77956
 Alpha  occ. eigenvalues --   -0.76753  -0.76254  -0.73915  -0.73693  -0.72964
 Alpha  occ. eigenvalues --   -0.72552  -0.71338  -0.71276  -0.70376  -0.69776
 Alpha  occ. eigenvalues --   -0.69059  -0.67808  -0.67087  -0.66438  -0.65649
 Alpha  occ. eigenvalues --   -0.65483  -0.64616  -0.64470  -0.64120  -0.62944
 Alpha  occ. eigenvalues --   -0.62584  -0.61690  -0.60607  -0.60525  -0.60237
 Alpha  occ. eigenvalues --   -0.59651  -0.59025  -0.58842  -0.58729  -0.58396
 Alpha  occ. eigenvalues --   -0.57986  -0.57633  -0.56725  -0.56478  -0.56024
 Alpha  occ. eigenvalues --   -0.55820  -0.55211  -0.54923  -0.54750  -0.54575
 Alpha  occ. eigenvalues --   -0.54230  -0.54190  -0.53152  -0.52859  -0.52786
 Alpha  occ. eigenvalues --   -0.52682  -0.52549  -0.51814  -0.51689  -0.51378
 Alpha  occ. eigenvalues --   -0.51349  -0.50180  -0.50088  -0.49887  -0.49364
 Alpha  occ. eigenvalues --   -0.49209  -0.48902  -0.48638  -0.48252  -0.48066
 Alpha  occ. eigenvalues --   -0.47550  -0.47471  -0.47380  -0.46864  -0.46806
 Alpha  occ. eigenvalues --   -0.46701  -0.46548  -0.46220  -0.46010  -0.45567
 Alpha  occ. eigenvalues --   -0.45539  -0.45217  -0.45123  -0.44773  -0.44272
 Alpha  occ. eigenvalues --   -0.43823  -0.43393  -0.43349  -0.43041  -0.42375
 Alpha  occ. eigenvalues --   -0.41893  -0.41786  -0.41462  -0.40604  -0.39844
 Alpha  occ. eigenvalues --   -0.39775  -0.39496  -0.39360  -0.39193  -0.38764
 Alpha  occ. eigenvalues --   -0.38475  -0.37520  -0.37235  -0.36958  -0.36517
 Alpha  occ. eigenvalues --   -0.36480  -0.35268  -0.34637  -0.34276  -0.33155
 Alpha  occ. eigenvalues --   -0.32742  -0.32574  -0.31945  -0.30882  -0.28068
 Alpha virt. eigenvalues --   -0.15788  -0.11074  -0.08510  -0.08257  -0.07995
 Alpha virt. eigenvalues --   -0.07414  -0.06950  -0.05333  -0.03423  -0.03221
 Alpha virt. eigenvalues --   -0.02756  -0.01494  -0.00706  -0.00611   0.00378

 Mulliken charges:
               1
     1  N   -0.758649
     2  H    0.348591
     3  H    0.306400
     4  C   -0.063052
     5  H    0.194360
     6  C    0.619563
     7  C   -0.389367
     8  H    0.165897
     9  H    0.196731
    10  O   -0.569566
    11  C    0.611364
    12  N   -0.748476
    13  H    0.353156
    14  H    0.345252
    15  O   -0.511914
    16  N   -0.611798
    17  H    0.375799
    18  C   -0.047283
    19  H    0.180670
    20  C    0.632972
    21  C   -0.101321
    22  H    0.151686
    23  O   -0.579408
    24  C   -0.264725
    25  H    0.148506
    26  H    0.134966
    27  C   -0.477847
    28  H    0.149084
    29  H    0.160142
    30  H    0.151145
    31  C   -0.461660
    32  H    0.157507
    33  H    0.155528
    34  H    0.149074
    35  N   -0.616555
    36  H    0.398266
    37  C   -0.055821
    38  H    0.174487
    39  C    0.624002
    40  C   -0.476955
    41  H    0.174018
    42  H    0.169516
    43  H    0.190272
    44  O   -0.502587
    45  N   -0.613319
    46  H    0.373025
    47  C   -0.100744
    48  H    0.215524
    49  C    0.671638
    50  C    0.125449
    51  H    0.145525
    52  O   -0.549863
    53  C   -0.480316
    54  H    0.173267
    55  H    0.182038
    56  H    0.169742
    57  O   -0.657035
    58  H    0.448824
    59  N   -0.598131
    60  H    0.405467
    61  C   -0.098540
    62  H    0.211495
    63  C    0.637627
    64  C   -0.063157
    65  H    0.194266
    66  H    0.213138
    67  O   -0.517884
    68  O   -0.627933
    69  H    0.440918
    70  N   -0.630789
    71  H    0.366012
    72  C   -0.203625
    73  H    0.209856
    74  H    0.211434
    75  C    0.619589
    76  O   -0.538830
    77  N   -0.623188
    78  H    0.362553
    79  C   -0.029196
    80  H    0.197971
    81  C    0.584926
    82  C   -0.272212
    83  H    0.170174
    84  H    0.151472
    85  O   -0.463308
    86  C   -0.263774
    87  H    0.151859
    88  H    0.129864
    89  C   -0.264126
    90  H    0.133516
    91  H    0.125061
    92  C   -0.146307
    93  H    0.151274
    94  H    0.145166
    95  N   -0.701184
    96  H    0.292675
    97  H    0.298003
    98  O   -0.551371
    99  H    0.428869
   100  H    0.474644
 Sum of Mulliken charges =   1.00000

 Dipole moment (field-independent basis, Debye):
    X=              9.6632    Y=             -4.0493    Z=             -4.4594  Tot=             11.3868
 Quadrupole moment (field-independent basis, Debye-Ang):
   XX=            -53.3511   YY=           -279.7229   ZZ=           -217.0617
   XY=            -43.9418   XZ=           -103.8749   YZ=              6.4304

 Normal termination of Gaussian 16 at Mon Jun  6 06:25:48 2022.
