 Gaussian 16, Revision C.01,
 Gaussian 16:  ES64L-G16RevC.01  3-Jul-2019

 ----------------------------------------------------------------------
 # B3LYP/6-31G* empiricaldispersion=gd3 guess=read geom=check nosymm in
 tegral(ultrafinegrid)
 ----------------------------------------------------------------------

 ------------------------------------------------------
 Candidate Structure: Conf:234 Charge calc in gas phase
 ------------------------------------------------------
 Structure from the checkpoint file:  "conf-234.chk"
 Charge =  1 Multiplicity = 1

                          Input orientation:
 ---------------------------------------------------------------------
 Center     Atomic      Atomic             Coordinates (Angstroms)
 Number     Number       Type             X           Y           Z
 ---------------------------------------------------------------------
      1          7           0       -1.747689    5.203803    3.737647
      2          1           0       -0.748576    5.399983    3.759038
      3          1           0       -2.191315    5.808918    4.425937
      4          6           0       -1.944666    3.819658    4.174137
      5          1           0       -1.730442    3.670932    5.248097
      6          6           0       -0.900612    2.963677    3.444797
      7          6           0       -3.406847    3.417808    3.946820
      8          1           0       -3.661501    3.520475    2.884696
      9          1           0       -3.584229    2.374885    4.246939
     10          8           0        0.264398    3.362736    3.370411
     11          6           0       -4.349905    4.278049    4.799117
     12          7           0       -5.671203    4.164212    4.487169
     13          1           0       -6.328468    4.741869    4.993420
     14          1           0       -5.993745    3.685211    3.659911
     15          8           0       -3.948218    4.977976    5.719385
     16          7           0       -1.289708    1.759011    2.944912
     17          1           0       -2.264662    1.496040    2.957056
     18          6           0       -0.370318    0.851677    2.269279
     19          1           0        0.608167    1.331401    2.312877
     20          6           0       -0.829483    0.726860    0.809707
     21          6           0       -0.276741   -0.532985    2.946504
     22          1           0       -1.266344   -1.004059    2.868412
     23          8           0       -1.767286   -0.032016    0.506160
     24          6           0        0.095269   -0.388820    4.433522
     25          1           0       -0.598466    0.318900    4.901866
     26          1           0        1.092601    0.067781    4.510849
     27          6           0        0.731368   -1.404759    2.180582
     28          1           0        1.738089   -0.968536    2.225850
     29          1           0        0.783903   -2.412704    2.601704
     30          1           0        0.446501   -1.503326    1.128138
     31          6           0        0.062298   -1.705857    5.216702
     32          1           0        0.244402   -1.526164    6.281384
     33          1           0       -0.915373   -2.194826    5.123883
     34          1           0        0.823770   -2.413226    4.870746
     35          7           0       -0.159417    1.482202   -0.081040
     36          1           0        0.629550    2.100614    0.230849
     37          6           0       -0.477430    1.440548   -1.509801
     38          1           0       -1.560891    1.310975   -1.610005
     39          6           0        0.218728    0.182913   -2.052313
     40          6           0       -0.021728    2.709022   -2.219787
     41          1           0       -0.287999    2.663907   -3.279671
     42          1           0       -0.510413    3.579060   -1.772331
     43          1           0        1.061334    2.831903   -2.147986
     44          8           0        1.298246    0.196200   -2.655468
     45          7           0       -0.411289   -0.980194   -1.747596
     46          1           0       -1.222165   -0.923345   -1.126799
     47          6           0        0.309405   -2.234321   -1.804626
     48          1           0        0.980377   -2.338687   -0.939048
     49          6           0        1.176754   -2.251690   -3.040662
     50          6           0       -0.689135   -3.442018   -1.782954
     51          1           0       -0.116620   -4.338432   -2.077459
     52          8           0        0.552971   -2.222631   -4.179563
     53          6           0       -1.244608   -3.649021   -0.375789
     54          1           0       -0.446504   -3.918911    0.323032
     55          1           0       -1.977729   -4.459046   -0.403883
     56          1           0       -1.744841   -2.748492   -0.004638
     57          8           0       -1.786352   -3.223504   -2.637709
     58          1           0       -1.465373   -3.055703   -3.538269
     59          7           0        2.468569   -2.455690   -2.898857
     60          1           0        2.851077   -2.277954   -1.962751
     61          6           0        3.547743   -2.373501   -3.889293
     62          1           0        3.607124   -3.310268   -4.457993
     63          6           0        4.822991   -2.176552   -3.032582
     64          6           0        3.379092   -1.180047   -4.860191
     65          1           0        4.324160   -0.931075   -5.348413
     66          1           0        3.041373   -0.304975   -4.302276
     67          8           0        4.716790   -1.831097   -1.859877
     68          8           0        2.352494   -1.460281   -5.832574
     69          1           0        2.712850   -1.988844   -6.562819
     70          7           0        6.012388   -2.364434   -3.655084
     71          1           0        5.991497   -2.443170   -4.664377
     72          6           0        7.150299   -1.612053   -3.131099
     73          1           0        7.266988   -1.839362   -2.069907
     74          1           0        8.053950   -1.928561   -3.658853
     75          6           0        6.879910   -0.113862   -3.386732
     76          8           0        6.211828    0.226349   -4.364727
     77          7           0        7.391638    0.750376   -2.491768
     78          1           0        7.886407    0.414303   -1.676620
     79          6           0        7.154429    2.189483   -2.610451
     80          1           0        7.382199    2.481148   -3.641472
     81          6           0        8.086899    2.995100   -1.715374
     82          6           0        5.686060    2.582477   -2.324375
     83          1           0        5.603116    3.657180   -2.520538
     84          1           0        5.062590    2.064585   -3.059709
     85          8           0        8.110102    4.200834   -1.705371
     86          6           0        5.205730    2.275977   -0.901225
     87          1           0        5.331634    1.206600   -0.683618
     88          1           0        5.828746    2.824524   -0.180400
     89          6           0        3.735341    2.674214   -0.707677
     90          1           0        3.087147    1.990646   -1.272626
     91          1           0        3.580882    3.677182   -1.134227
     92          6           0        3.296254    2.706173    0.759079
     93          1           0        3.338200    1.695530    1.186573
     94          1           0        4.001629    3.324516    1.337107
     95          7           0        1.908812    3.186918    0.873272
     96          1           0        1.835425    4.123292    0.474474
     97          1           0        1.615037    3.278749    1.850088
     98          8           0        8.855706    2.222098   -0.907665
     99          1           0        9.400812    2.825768   -0.367281
    100          1           0        1.162274   -2.023827   -4.967962
 ---------------------------------------------------------------------

 SCF Done:  E(RB3LYP) =  -2418.56548699     A.U. after    1 cycles

 Alpha  occ. eigenvalues --  -19.34103 -19.32053 -19.29276 -19.26422 -19.24343
 Alpha  occ. eigenvalues --  -19.23367 -19.22796 -19.22290 -19.20402 -19.19118
 Alpha  occ. eigenvalues --  -19.17349 -14.52788 -14.49488 -14.46770 -14.46394
 Alpha  occ. eigenvalues --  -14.44226 -14.43609 -14.41727 -14.40055 -14.36012
 Alpha  occ. eigenvalues --  -10.47319 -10.43191 -10.41295 -10.39623 -10.39373
 Alpha  occ. eigenvalues --  -10.39120 -10.37941 -10.36992 -10.36505 -10.36284
 Alpha  occ. eigenvalues --  -10.35643 -10.35278 -10.34714 -10.33313 -10.32446
 Alpha  occ. eigenvalues --  -10.30708 -10.28907 -10.28720 -10.27172 -10.26976
 Alpha  occ. eigenvalues --  -10.26796 -10.26651 -10.26560 -10.26426 -10.26263
 Alpha  occ. eigenvalues --  -10.25775 -10.24880 -10.23815  -1.24894  -1.19818
 Alpha  occ. eigenvalues --   -1.18656  -1.18235  -1.14950  -1.14240  -1.12425
 Alpha  occ. eigenvalues --   -1.11947  -1.10881  -1.10821  -1.10245  -1.09235
 Alpha  occ. eigenvalues --   -1.05902  -1.03604  -1.03137  -1.00789  -1.00255
 Alpha  occ. eigenvalues --   -0.96426  -0.96376  -0.94019  -0.93379  -0.89483
 Alpha  occ. eigenvalues --   -0.89054  -0.88525  -0.85710  -0.85593  -0.83982
 Alpha  occ. eigenvalues --   -0.83085  -0.82603  -0.80651  -0.80210  -0.78046
 Alpha  occ. eigenvalues --   -0.77947  -0.77200  -0.74319  -0.73191  -0.72744
 Alpha  occ. eigenvalues --   -0.72415  -0.72162  -0.71268  -0.70400  -0.69253
 Alpha  occ. eigenvalues --   -0.68686  -0.68275  -0.68011  -0.66944  -0.66358
 Alpha  occ. eigenvalues --   -0.66121  -0.65411  -0.64936  -0.64601  -0.63624
 Alpha  occ. eigenvalues --   -0.63345  -0.63317  -0.61836  -0.61184  -0.59978
 Alpha  occ. eigenvalues --   -0.59794  -0.59742  -0.59146  -0.58414  -0.57963
 Alpha  occ. eigenvalues --   -0.57643  -0.57418  -0.57037  -0.56678  -0.56592
 Alpha  occ. eigenvalues --   -0.56455  -0.56211  -0.56001  -0.55570  -0.55272
 Alpha  occ. eigenvalues --   -0.55097  -0.54639  -0.53867  -0.53422  -0.53098
 Alpha  occ. eigenvalues --   -0.52851  -0.52519  -0.52392  -0.52143  -0.51970
 Alpha  occ. eigenvalues --   -0.51444  -0.50681  -0.50445  -0.49784  -0.49545
 Alpha  occ. eigenvalues --   -0.49542  -0.49414  -0.49010  -0.48799  -0.48578
 Alpha  occ. eigenvalues --   -0.48434  -0.48157  -0.47697  -0.47376  -0.47036
 Alpha  occ. eigenvalues --   -0.46984  -0.46894  -0.46559  -0.46024  -0.45857
 Alpha  occ. eigenvalues --   -0.45710  -0.45325  -0.45155  -0.44856  -0.44762
 Alpha  occ. eigenvalues --   -0.44211  -0.44067  -0.43639  -0.43026  -0.42911
 Alpha  occ. eigenvalues --   -0.42371  -0.42346  -0.42285  -0.41317  -0.41169
 Alpha  occ. eigenvalues --   -0.40859  -0.40458  -0.40356  -0.39681  -0.39636
 Alpha  occ. eigenvalues --   -0.39422  -0.37692  -0.37324  -0.37010  -0.36934
 Alpha  occ. eigenvalues --   -0.36406  -0.35452  -0.35217  -0.33638  -0.33296
 Alpha  occ. eigenvalues --   -0.32988  -0.32827  -0.32274  -0.31190  -0.28913
 Alpha virt. eigenvalues --   -0.15688  -0.12585  -0.09494  -0.08793  -0.07888
 Alpha virt. eigenvalues --   -0.07445  -0.06816  -0.04611  -0.04327  -0.03944
 Alpha virt. eigenvalues --   -0.03323  -0.02374  -0.01051  -0.00819  -0.00699

 Mulliken charges:
               1
     1  N   -0.744953
     2  H    0.316455
     3  H    0.330377
     4  C   -0.049957
     5  H    0.173404
     6  C    0.635269
     7  C   -0.391582
     8  H    0.169482
     9  H    0.158523
    10  O   -0.547461
    11  C    0.617748
    12  N   -0.748400
    13  H    0.353369
    14  H    0.340208
    15  O   -0.503196
    16  N   -0.623352
    17  H    0.347040
    18  C   -0.040866
    19  H    0.171747
    20  C    0.619379
    21  C   -0.076988
    22  H    0.143552
    23  O   -0.578051
    24  C   -0.255123
    25  H    0.143949
    26  H    0.138283
    27  C   -0.484534
    28  H    0.144633
    29  H    0.163603
    30  H    0.142263
    31  C   -0.451993
    32  H    0.160149
    33  H    0.146871
    34  H    0.146207
    35  N   -0.645151
    36  H    0.437766
    37  C   -0.061948
    38  H    0.187426
    39  C    0.646092
    40  C   -0.472613
    41  H    0.168565
    42  H    0.172271
    43  H    0.177655
    44  O   -0.559038
    45  N   -0.609825
    46  H    0.402448
    47  C   -0.041599
    48  H    0.173981
    49  C    0.658587
    50  C    0.109004
    51  H    0.137311
    52  O   -0.592110
    53  C   -0.475380
    54  H    0.154871
    55  H    0.191678
    56  H    0.192367
    57  O   -0.601391
    58  H    0.414508
    59  N   -0.587472
    60  H    0.400404
    61  C   -0.084747
    62  H    0.196013
    63  C    0.617688
    64  C   -0.102423
    65  H    0.216761
    66  H    0.250565
    67  O   -0.508276
    68  O   -0.633455
    69  H    0.434353
    70  N   -0.555224
    71  H    0.345613
    72  C   -0.263297
    73  H    0.208040
    74  H    0.209686
    75  C    0.632178
    76  O   -0.539808
    77  N   -0.607500
    78  H    0.362756
    79  C   -0.046586
    80  H    0.211026
    81  C    0.594781
    82  C   -0.278227
    83  H    0.175800
    84  H    0.170057
    85  O   -0.441625
    86  C   -0.279875
    87  H    0.142553
    88  H    0.146437
    89  C   -0.276283
    90  H    0.158471
    91  H    0.137449
    92  C   -0.130420
    93  H    0.141650
    94  H    0.143856
    95  N   -0.810929
    96  H    0.316983
    97  H    0.378550
    98  O   -0.587520
    99  H    0.430343
   100  H    0.480130
 Sum of Mulliken charges =   1.00000

 Dipole moment (field-independent basis, Debye):
    X=             13.6958    Y=             -7.3232    Z=            -11.8083  Tot=             19.5100
 Quadrupole moment (field-independent basis, Debye-Ang):
   XX=           -144.2831   YY=           -259.9705   ZZ=           -216.0167
   XY=            -36.0301   XZ=            -58.4046   YZ=             33.6763

 Normal termination of Gaussian 16 at Mon Jun  6 06:22:00 2022.
