 Gaussian 16, Revision C.01,
 Gaussian 16:  ES64L-G16RevC.01  3-Jul-2019

 ----------------------------------------------------------------------
 # B3LYP/6-31G* empiricaldispersion=gd3 guess=read geom=check nosymm in
 tegral(ultrafinegrid)
 ----------------------------------------------------------------------

 ------------------------------------------------------
 Candidate Structure: Conf:883 Charge calc in gas phase
 ------------------------------------------------------
 Structure from the checkpoint file:  "conf-883.chk"
 Charge =  1 Multiplicity = 1

                          Input orientation:
 ---------------------------------------------------------------------
 Center     Atomic      Atomic             Coordinates (Angstroms)
 Number     Number       Type             X           Y           Z
 ---------------------------------------------------------------------
      1          7           0       -7.847697    2.232874    1.267030
      2          1           0       -8.786153    1.869304    1.124143
      3          1           0       -7.397220    2.350563    0.362536
      4          6           0       -7.059582    1.342640    2.103183
      5          1           0       -7.405491    1.435313    3.138233
      6          6           0       -5.600849    1.825084    2.026412
      7          6           0       -7.135571   -0.161845    1.720312
      8          1           0       -8.174282   -0.395235    1.449821
      9          1           0       -6.534425   -0.359512    0.822177
     10          8           0       -5.168290    2.380863    1.006136
     11          6           0       -6.711900   -1.112259    2.843077
     12          7           0       -6.899069   -2.433768    2.585728
     13          1           0       -6.713994   -3.092090    3.331181
     14          1           0       -7.421348   -2.756748    1.784514
     15          8           0       -6.229338   -0.727124    3.907732
     16          7           0       -4.841556    1.584029    3.117507
     17          1           0       -5.211330    0.919834    3.797705
     18          6           0       -3.452527    2.028568    3.212609
     19          1           0       -3.404945    2.999047    2.707257
     20          6           0       -2.582946    1.036080    2.415975
     21          6           0       -2.980642    2.187754    4.668248
     22          1           0       -2.843291    1.177925    5.076285
     23          8           0       -1.960981    0.100095    2.947914
     24          6           0       -4.022864    2.915726    5.547442
     25          1           0       -3.589451    3.014680    6.550882
     26          1           0       -4.908474    2.279888    5.667487
     27          6           0       -1.617931    2.901063    4.689082
     28          1           0       -1.699440    3.922559    4.300214
     29          1           0       -1.240173    2.965008    5.714697
     30          1           0       -0.862244    2.378355    4.096110
     31          6           0       -4.466885    4.295141    5.044344
     32          1           0       -5.174106    4.746247    5.748159
     33          1           0       -3.623563    4.986464    4.941432
     34          1           0       -4.971384    4.228629    4.073745
     35          7           0       -2.599275    1.248559    1.078799
     36          1           0       -3.309991    1.909909    0.752025
     37          6           0       -2.070803    0.290528    0.102465
     38          1           0       -2.307597   -0.723009    0.453910
     39          6           0       -0.532418    0.422001    0.056439
     40          6           0       -2.700025    0.541359   -1.263216
     41          1           0       -2.354262   -0.201697   -1.987819
     42          1           0       -3.789589    0.479082   -1.188653
     43          1           0       -2.425456    1.531810   -1.636181
     44          8           0        0.062899    0.967993   -0.897713
     45          7           0        0.085098   -0.086032    1.131516
     46          1           0       -0.552191   -0.371265    1.882118
     47          6           0        1.491765    0.121600    1.497525
     48          1           0        1.745165    1.176620    1.335605
     49          6           0        2.342484   -0.776247    0.580756
     50          6           0        1.674605   -0.203946    2.998586
     51          1           0        1.433112   -1.266858    3.142948
     52          8           0        2.710840   -1.900282    0.871832
     53          6           0        3.105455    0.058250    3.450002
     54          1           0        3.812962   -0.578005    2.911697
     55          1           0        3.185756   -0.152018    4.519309
     56          1           0        3.365245    1.111147    3.292440
     57          8           0        0.826260    0.630101    3.774088
     58          1           0       -0.082068    0.280371    3.795866
     59          7           0        2.596221   -0.190373   -0.651152
     60          1           0        1.975401    0.594537   -0.854196
     61          6           0        2.871875   -1.063002   -1.783861
     62          1           0        3.343578   -1.968650   -1.390211
     63          6           0        3.834841   -0.324077   -2.695871
     64          6           0        1.577917   -1.429390   -2.545449
     65          1           0        0.887632   -1.913643   -1.847412
     66          1           0        1.790248   -2.122603   -3.365056
     67          8           0        3.375637    0.498221   -3.594415
     68          8           0        0.987869   -0.260034   -3.132440
     69          1           0        0.477120    0.229393   -2.438123
     70          7           0        5.122263   -0.459431   -2.574459
     71          1           0        5.543510   -1.076491   -1.866829
     72          6           0        6.133111    0.266433   -3.334205
     73          1           0        6.047942    0.032042   -4.400567
     74          1           0        5.997379    1.346230   -3.210862
     75          6           0        7.486662   -0.205093   -2.759893
     76          8           0        7.498215   -1.039166   -1.852800
     77          7           0        8.571394    0.347374   -3.313724
     78          1           0        8.500818    1.069718   -4.024711
     79          6           0        9.928945    0.039677   -2.865873
     80          1           0        9.956981    0.087084   -1.771511
     81          6           0       10.820562    1.139750   -3.426946
     82          6           0       10.410385   -1.358586   -3.314873
     83          1           0       11.395431   -1.526850   -2.865717
     84          1           0        9.725463   -2.091955   -2.875577
     85          8           0       10.448468    1.976939   -4.223457
     86          6           0       10.489497   -1.533938   -4.834805
     87          1           0        9.505651   -1.329689   -5.283018
     88          1           0       11.188344   -0.796853   -5.252221
     89          6           0       10.955792   -2.939218   -5.231288
     90          1           0       10.273541   -3.686405   -4.801207
     91          1           0       11.949986   -3.121481   -4.804350
     92          6           0       11.034125   -3.149455   -6.747816
     93          1           0       11.381608   -4.171123   -6.938663
     94          1           0       10.016475   -3.079172   -7.176810
     95          7           0       11.999185   -2.226677   -7.359650
     96          1           0       11.572162   -1.313684   -7.502844
     97          1           0       12.259967   -2.558646   -8.285649
     98          8           0       12.070163    1.043727   -2.955152
     99          1           0       12.602566    1.746533   -3.375179
    100          1           0        2.354907    0.437796   -3.587998
 ---------------------------------------------------------------------

 SCF Done:  E(RB3LYP) =  -2418.57071677     A.U. after    1 cycles

 Alpha  occ. eigenvalues --  -19.34540 -19.29251 -19.29144 -19.24351 -19.24044
 Alpha  occ. eigenvalues --  -19.23852 -19.23365 -19.22080 -19.21786 -19.20115
 Alpha  occ. eigenvalues --  -19.19813 -14.53731 -14.47498 -14.47391 -14.46758
 Alpha  occ. eigenvalues --  -14.45129 -14.43920 -14.43223 -14.37634 -14.36820
 Alpha  occ. eigenvalues --  -10.47322 -10.41809 -10.41397 -10.40432 -10.40063
 Alpha  occ. eigenvalues --  -10.38194 -10.37905 -10.37672 -10.37379 -10.37156
 Alpha  occ. eigenvalues --  -10.36318 -10.33759 -10.33597 -10.33262 -10.32518
 Alpha  occ. eigenvalues --  -10.30741 -10.29750 -10.27972 -10.27624 -10.27016
 Alpha  occ. eigenvalues --  -10.26566 -10.25725 -10.25645 -10.24796 -10.24211
 Alpha  occ. eigenvalues --  -10.23894 -10.23216 -10.22567  -1.25377  -1.20313
 Alpha  occ. eigenvalues --   -1.16500  -1.16195  -1.15280  -1.14860  -1.13284
 Alpha  occ. eigenvalues --   -1.11809  -1.11534  -1.11147  -1.10581  -1.09584
 Alpha  occ. eigenvalues --   -1.04764  -1.04178  -1.03468  -1.01875  -1.00036
 Alpha  occ. eigenvalues --   -0.98646  -0.95410  -0.93594  -0.92086  -0.89660
 Alpha  occ. eigenvalues --   -0.88408  -0.87472  -0.86683  -0.85649  -0.83561
 Alpha  occ. eigenvalues --   -0.83357  -0.80398  -0.80188  -0.79100  -0.78494
 Alpha  occ. eigenvalues --   -0.77186  -0.76829  -0.74540  -0.73155  -0.72574
 Alpha  occ. eigenvalues --   -0.71433  -0.71199  -0.70186  -0.70021  -0.68942
 Alpha  occ. eigenvalues --   -0.68230  -0.67608  -0.67186  -0.67095  -0.66659
 Alpha  occ. eigenvalues --   -0.64966  -0.64572  -0.64255  -0.63962  -0.63203
 Alpha  occ. eigenvalues --   -0.62564  -0.62180  -0.61549  -0.61493  -0.60807
 Alpha  occ. eigenvalues --   -0.60687  -0.59549  -0.59446  -0.59238  -0.58819
 Alpha  occ. eigenvalues --   -0.58120  -0.57676  -0.57414  -0.57035  -0.56572
 Alpha  occ. eigenvalues --   -0.56474  -0.55702  -0.55619  -0.55248  -0.54970
 Alpha  occ. eigenvalues --   -0.54212  -0.53998  -0.53800  -0.53225  -0.52985
 Alpha  occ. eigenvalues --   -0.52674  -0.52000  -0.51982  -0.51482  -0.51292
 Alpha  occ. eigenvalues --   -0.50966  -0.50903  -0.50600  -0.49843  -0.49825
 Alpha  occ. eigenvalues --   -0.49462  -0.48980  -0.48799  -0.48739  -0.48620
 Alpha  occ. eigenvalues --   -0.48038  -0.47950  -0.47624  -0.47162  -0.46899
 Alpha  occ. eigenvalues --   -0.46409  -0.46357  -0.45919  -0.45863  -0.45853
 Alpha  occ. eigenvalues --   -0.45463  -0.44737  -0.44471  -0.44236  -0.43978
 Alpha  occ. eigenvalues --   -0.43890  -0.43838  -0.43592  -0.43340  -0.42810
 Alpha  occ. eigenvalues --   -0.42020  -0.41376  -0.40481  -0.40450  -0.40278
 Alpha  occ. eigenvalues --   -0.39628  -0.39278  -0.39062  -0.38760  -0.38462
 Alpha  occ. eigenvalues --   -0.38208  -0.38108  -0.37448  -0.37392  -0.36933
 Alpha  occ. eigenvalues --   -0.36529  -0.35727  -0.35335  -0.35106  -0.34353
 Alpha  occ. eigenvalues --   -0.34144  -0.33503  -0.32470  -0.29630  -0.29088
 Alpha virt. eigenvalues --   -0.16380  -0.10621  -0.09541  -0.09397  -0.08278
 Alpha virt. eigenvalues --   -0.08009  -0.06252  -0.05099  -0.04504  -0.02490
 Alpha virt. eigenvalues --   -0.01623  -0.01062  -0.00499  -0.00136   0.00250

 Mulliken charges:
               1
     1  N   -0.711902
     2  H    0.301846
     3  H    0.318517
     4  C   -0.048242
     5  H    0.177432
     6  C    0.618231
     7  C   -0.399378
     8  H    0.169821
     9  H    0.173565
    10  O   -0.562371
    11  C    0.611876
    12  N   -0.739168
    13  H    0.356993
    14  H    0.347668
    15  O   -0.519739
    16  N   -0.620478
    17  H    0.394021
    18  C   -0.046142
    19  H    0.181402
    20  C    0.636433
    21  C   -0.106981
    22  H    0.152975
    23  O   -0.575397
    24  C   -0.261213
    25  H    0.146769
    26  H    0.140477
    27  C   -0.481994
    28  H    0.148628
    29  H    0.161620
    30  H    0.164312
    31  C   -0.461290
    32  H    0.158531
    33  H    0.150869
    34  H    0.156162
    35  N   -0.610675
    36  H    0.395362
    37  C   -0.055779
    38  H    0.180563
    39  C    0.638364
    40  C   -0.479558
    41  H    0.160828
    42  H    0.177537
    43  H    0.187687
    44  O   -0.595015
    45  N   -0.616252
    46  H    0.387394
    47  C   -0.050839
    48  H    0.182956
    49  C    0.620726
    50  C    0.100160
    51  H    0.155695
    52  O   -0.490819
    53  C   -0.465005
    54  H    0.165780
    55  H    0.181457
    56  H    0.156524
    57  O   -0.640563
    58  H    0.431083
    59  N   -0.612083
    60  H    0.363563
    61  C   -0.112088
    62  H    0.225292
    63  C    0.668051
    64  C   -0.080207
    65  H    0.194538
    66  H    0.192684
    67  O   -0.565228
    68  O   -0.669824
    69  H    0.466220
    70  N   -0.574674
    71  H    0.407506
    72  C   -0.226185
    73  H    0.225683
    74  H    0.226986
    75  C    0.627093
    76  O   -0.522632
    77  N   -0.618381
    78  H    0.365006
    79  C   -0.039698
    80  H    0.206316
    81  C    0.592909
    82  C   -0.277309
    83  H    0.177683
    84  H    0.175349
    85  O   -0.470005
    86  C   -0.281631
    87  H    0.118670
    88  H    0.155476
    89  C   -0.234743
    90  H    0.127414
    91  H    0.154143
    92  C   -0.148285
    93  H    0.150637
    94  H    0.110773
    95  N   -0.716001
    96  H    0.295877
    97  H    0.307767
    98  O   -0.552852
    99  H    0.432673
   100  H    0.482057
 Sum of Mulliken charges =   1.00000

 Dipole moment (field-independent basis, Debye):
    X=              9.0780    Y=             -3.5663    Z=             -9.9957  Tot=             13.9658
 Quadrupole moment (field-independent basis, Debye-Ang):
   XX=            -59.9465   YY=           -274.7245   ZZ=           -228.4707
   XY=             32.7230   XZ=            -90.0197   YZ=             10.4150

 Normal termination of Gaussian 16 at Mon Jun  6 06:25:54 2022.
