 Gaussian 16, Revision C.01,
 Gaussian 16:  ES64L-G16RevC.01  3-Jul-2019

 ----------------------------------------------------------------------
 # B3LYP/6-31G* empiricaldispersion=gd3 guess=read geom=check nosymm in
 tegral(ultrafinegrid)
 ----------------------------------------------------------------------

 ------------------------------------------------------
 Candidate Structure: Conf:121 Charge calc in gas phase
 ------------------------------------------------------
 Structure from the checkpoint file:  "conf-121.chk"
 Charge =  1 Multiplicity = 1

                          Input orientation:
 ---------------------------------------------------------------------
 Center     Atomic      Atomic             Coordinates (Angstroms)
 Number     Number       Type             X           Y           Z
 ---------------------------------------------------------------------
      1          7           0       -1.497841    1.182357    5.246575
      2          1           0       -2.294293    0.587300    5.010593
      3          1           0       -1.889036    1.977558    5.749980
      4          6           0       -0.893023    1.635462    3.994593
      5          1           0       -0.214793    2.467045    4.224796
      6          6           0       -1.920956    2.072225    2.938379
      7          6           0       -0.081976    0.489163    3.342916
      8          1           0       -0.725788   -0.399250    3.293645
      9          1           0        0.160270    0.748254    2.312215
     10          8           0       -3.038712    1.577534    2.877813
     11          6           0        1.229693    0.116656    4.031042
     12          7           0        1.191714    0.107225    5.380585
     13          1           0        2.023405   -0.154134    5.891738
     14          1           0        0.321470    0.339279    5.858493
     15          8           0        2.230140   -0.167583    3.368160
     16          7           0       -1.462981    2.985472    2.023264
     17          1           0       -0.470681    3.184996    2.042909
     18          6           0       -2.096815    3.087998    0.718804
     19          1           0       -3.156084    3.314148    0.874365
     20          6           0       -1.977556    1.732485    0.000664
     21          6           0       -1.430884    4.223284   -0.107707
     22          1           0       -0.379407    3.927202   -0.254092
     23          8           0       -1.018771    0.973196    0.208944
     24          6           0       -1.432659    5.562266    0.668222
     25          1           0       -0.921745    6.302039    0.038662
     26          1           0       -0.824024    5.465241    1.574818
     27          6           0       -2.059630    4.372095   -1.503212
     28          1           0       -3.144181    4.527847   -1.442302
     29          1           0       -1.638166    5.248726   -2.006353
     30          1           0       -1.863805    3.498736   -2.130030
     31          6           0       -2.817486    6.091352    1.057658
     32          1           0       -2.726351    7.067072    1.545663
     33          1           0       -3.467513    6.221549    0.185605
     34          1           0       -3.322062    5.421729    1.763087
     35          7           0       -2.936456    1.415141   -0.887469
     36          1           0       -3.683412    2.074436   -1.059026
     37          6           0       -2.809729    0.267510   -1.774501
     38          1           0       -2.905710   -0.646405   -1.175503
     39          6           0       -1.415997    0.285153   -2.446080
     40          6           0       -3.903957    0.315104   -2.846173
     41          1           0       -3.835314   -0.560389   -3.497537
     42          1           0       -4.897279    0.319884   -2.385293
     43          1           0       -3.789652    1.211632   -3.464774
     44          8           0       -0.850467    1.340311   -2.725018
     45          7           0       -0.924832   -0.945378   -2.728654
     46          1           0       -1.440340   -1.770498   -2.445224
     47          6           0        0.397211   -1.257461   -3.277171
     48          1           0        1.061906   -1.542525   -2.454775
     49          6           0        1.013876   -0.058327   -3.975490
     50          6           0        0.273704   -2.485135   -4.197631
     51          1           0       -0.388968   -2.219093   -5.032160
     52          8           0        0.437992    0.186927   -5.151430
     53          6           0        1.628858   -2.950793   -4.721253
     54          1           0        2.082425   -2.193288   -5.368861
     55          1           0        1.510911   -3.865415   -5.312350
     56          1           0        2.308790   -3.167242   -3.890264
     57          8           0       -0.340079   -3.473980   -3.362597
     58          1           0       -0.560447   -4.244646   -3.907962
     59          7           0        1.992494    0.535292   -3.396876
     60          1           0        1.751030    0.521822   -1.531662
     61          6           0        2.646798    1.711723   -3.963640
     62          1           0        3.159551    1.451442   -4.904600
     63          6           0        3.657387    2.210832   -2.920074
     64          6           0        1.693675    2.903512   -4.252118
     65          1           0        2.252839    3.846517   -4.266350
     66          1           0        0.935207    2.947327   -3.469780
     67          8           0        3.310087    2.404938   -1.755518
     68          8           0        0.985308    2.740598   -5.491841
     69          1           0        1.567326    2.992124   -6.226563
     70          7           0        4.911326    2.497720   -3.347862
     71          1           0        5.174902    2.315917   -4.305988
     72          6           0        5.893770    3.042187   -2.411074
     73          1           0        6.789881    3.314414   -2.976388
     74          1           0        5.494498    3.935212   -1.926814
     75          6           0        6.267003    2.068321   -1.274962
     76          8           0        6.373664    2.453840   -0.122609
     77          7           0        6.457245    0.777751   -1.672165
     78          1           0        6.508374    0.549919   -2.656362
     79          6           0        6.814866   -0.284797   -0.752078
     80          1           0        7.093289    0.175489    0.199261
     81          6           0        7.999244   -1.046030   -1.332114
     82          6           0        5.637139   -1.270083   -0.546416
     83          1           0        5.418239   -1.728570   -1.521920
     84          1           0        5.958138   -2.078219    0.120230
     85          8           0        8.307378   -1.034129   -2.504902
     86          6           0        4.375989   -0.582650   -0.009032
     87          1           0        4.475483   -0.379381    1.064398
     88          1           0        4.276545    0.387045   -0.507596
     89          6           0        3.115343   -1.417398   -0.270787
     90          1           0        3.183515   -2.382637    0.245724
     91          1           0        3.046479   -1.638482   -1.345577
     92          6           0        1.830221   -0.741940    0.198999
     93          1           0        0.947066   -1.344920   -0.029672
     94          1           0        1.859559   -0.548264    1.275595
     95          7           0        1.617650    0.578404   -0.492705
     96          1           0        2.295609    1.287637   -0.201879
     97          1           0        0.657711    0.923589   -0.300613
     98          8           0        8.618936   -1.786969   -0.396064
     99          1           0        9.332858   -2.282797   -0.841350
    100          1           0        0.613341    1.119744   -5.453958
 ---------------------------------------------------------------------

 SCF Done:  E(RB3LYP) =  -2418.59960149     A.U. after    1 cycles

 Alpha  occ. eigenvalues --  -19.28661 -19.27789 -19.27706 -19.24974 -19.22840
 Alpha  occ. eigenvalues --  -19.22748 -19.22150 -19.21855 -19.20276 -19.19200
 Alpha  occ. eigenvalues --  -19.18112 -14.50356 -14.47888 -14.46879 -14.46544
 Alpha  occ. eigenvalues --  -14.44631 -14.44024 -14.42861 -14.41486 -14.40641
 Alpha  occ. eigenvalues --  -10.40094 -10.39911 -10.39813 -10.39284 -10.39244
 Alpha  occ. eigenvalues --  -10.36936 -10.36751 -10.35773 -10.35176 -10.34419
 Alpha  occ. eigenvalues --  -10.34200 -10.34038 -10.33954 -10.32586 -10.32344
 Alpha  occ. eigenvalues --  -10.31760 -10.31669 -10.31306 -10.28925 -10.28648
 Alpha  occ. eigenvalues --  -10.27864 -10.27354 -10.27240 -10.27114 -10.26423
 Alpha  occ. eigenvalues --  -10.26314 -10.25782 -10.24719  -1.18653  -1.17938
 Alpha  occ. eigenvalues --   -1.15114  -1.14969  -1.14748  -1.13404  -1.12298
 Alpha  occ. eigenvalues --   -1.11995  -1.11339  -1.09755  -1.09551  -1.06103
 Alpha  occ. eigenvalues --   -1.03480  -1.03247  -1.03028  -1.01506  -1.01461
 Alpha  occ. eigenvalues --   -1.00598  -0.98179  -0.96104  -0.90417  -0.89701
 Alpha  occ. eigenvalues --   -0.89182  -0.87583  -0.86562  -0.85488  -0.84299
 Alpha  occ. eigenvalues --   -0.82161  -0.81689  -0.80953  -0.79266  -0.79111
 Alpha  occ. eigenvalues --   -0.76952  -0.75352  -0.73673  -0.73100  -0.72715
 Alpha  occ. eigenvalues --   -0.72427  -0.70665  -0.70109  -0.69482  -0.69178
 Alpha  occ. eigenvalues --   -0.68053  -0.67597  -0.66720  -0.66575  -0.65378
 Alpha  occ. eigenvalues --   -0.65220  -0.64640  -0.64357  -0.64169  -0.63267
 Alpha  occ. eigenvalues --   -0.62669  -0.62088  -0.61869  -0.61283  -0.60871
 Alpha  occ. eigenvalues --   -0.60048  -0.59658  -0.59070  -0.58567  -0.58328
 Alpha  occ. eigenvalues --   -0.57762  -0.57200  -0.56810  -0.56475  -0.55932
 Alpha  occ. eigenvalues --   -0.55253  -0.55035  -0.54713  -0.54558  -0.54085
 Alpha  occ. eigenvalues --   -0.53859  -0.53495  -0.53383  -0.53221  -0.52828
 Alpha  occ. eigenvalues --   -0.52705  -0.52436  -0.52268  -0.51695  -0.51572
 Alpha  occ. eigenvalues --   -0.50887  -0.50758  -0.50507  -0.50013  -0.49517
 Alpha  occ. eigenvalues --   -0.49388  -0.49321  -0.49176  -0.48739  -0.48528
 Alpha  occ. eigenvalues --   -0.48347  -0.48173  -0.48102  -0.47696  -0.47450
 Alpha  occ. eigenvalues --   -0.47117  -0.46980  -0.46816  -0.46582  -0.46503
 Alpha  occ. eigenvalues --   -0.46104  -0.46002  -0.45742  -0.45471  -0.44851
 Alpha  occ. eigenvalues --   -0.44507  -0.44336  -0.43827  -0.43184  -0.42559
 Alpha  occ. eigenvalues --   -0.42419  -0.42207  -0.41884  -0.41549  -0.41007
 Alpha  occ. eigenvalues --   -0.40940  -0.40613  -0.39723  -0.38205  -0.37815
 Alpha  occ. eigenvalues --   -0.37739  -0.37426  -0.37148  -0.36809  -0.35961
 Alpha  occ. eigenvalues --   -0.35791  -0.35617  -0.35456  -0.34666  -0.34474
 Alpha  occ. eigenvalues --   -0.33512  -0.33172  -0.32920  -0.32578  -0.31564
 Alpha virt. eigenvalues --   -0.10315  -0.09138  -0.08836  -0.07707  -0.07068
 Alpha virt. eigenvalues --   -0.06509  -0.06053  -0.04705  -0.03809  -0.03184
 Alpha virt. eigenvalues --   -0.03088  -0.02491  -0.01972  -0.01622   0.00030

 Mulliken charges:
               1
     1  N   -0.723394
     2  H    0.330366
     3  H    0.323462
     4  C   -0.102400
     5  H    0.156508
     6  C    0.611252
     7  C   -0.363581
     8  H    0.183269
     9  H    0.169063
    10  O   -0.518961
    11  C    0.584504
    12  N   -0.739720
    13  H    0.344750
    14  H    0.383509
    15  O   -0.528236
    16  N   -0.593476
    17  H    0.330142
    18  C   -0.057164
    19  H    0.180859
    20  C    0.680425
    21  C   -0.106094
    22  H    0.126581
    23  O   -0.590559
    24  C   -0.248689
    25  H    0.147424
    26  H    0.137965
    27  C   -0.500810
    28  H    0.141909
    29  H    0.160400
    30  H    0.189915
    31  C   -0.462170
    32  H    0.164679
    33  H    0.152962
    34  H    0.159282
    35  N   -0.588850
    36  H    0.350832
    37  C   -0.025957
    38  H    0.175995
    39  C    0.657399
    40  C   -0.490184
    41  H    0.178627
    42  H    0.182088
    43  H    0.182864
    44  O   -0.549773
    45  N   -0.639659
    46  H    0.358842
    47  C    0.000122
    48  H    0.175482
    49  C    0.580902
    50  C    0.120487
    51  H    0.160971
    52  O   -0.627722
    53  C   -0.472497
    54  H    0.162800
    55  H    0.163709
    56  H    0.164466
    57  O   -0.644243
    58  H    0.412895
    59  N   -0.525480
    60  H    0.448969
    61  C   -0.092525
    62  H    0.138347
    63  C    0.633405
    64  C   -0.070346
    65  H    0.169316
    66  H    0.226017
    67  O   -0.552130
    68  O   -0.625239
    69  H    0.420195
    70  N   -0.606051
    71  H    0.341829
    72  C   -0.238931
    73  H    0.190608
    74  H    0.213634
    75  C    0.614372
    76  O   -0.495211
    77  N   -0.584509
    78  H    0.330542
    79  C   -0.054689
    80  H    0.214200
    81  C    0.587731
    82  C   -0.268676
    83  H    0.135777
    84  H    0.174982
    85  O   -0.468811
    86  C   -0.297543
    87  H    0.183905
    88  H    0.160442
    89  C   -0.287564
    90  H    0.171367
    91  H    0.148384
    92  C   -0.220517
    93  H    0.177236
    94  H    0.249147
    95  N   -0.831850
    96  H    0.413222
    97  H    0.434347
    98  O   -0.555679
    99  H    0.424377
   100  H    0.459835
 Sum of Mulliken charges =   1.00000

 Dipole moment (field-independent basis, Debye):
    X=              4.3586    Y=              3.5297    Z=            -11.3949  Tot=             12.7004
 Quadrupole moment (field-independent basis, Debye-Ang):
   XX=           -219.6137   YY=           -230.6887   ZZ=           -186.9143
   XY=             -7.0738   XZ=            -33.3151   YZ=             -4.9922

 Normal termination of Gaussian 16 at Mon Jun  6 06:22:02 2022.
