 Gaussian 16, Revision C.01,
 Gaussian 16:  ES64L-G16RevC.01  3-Jul-2019

 ----------------------------------------------------------------------
 # B3LYP/6-31G* empiricaldispersion=gd3 guess=read geom=check nosymm in
 tegral(ultrafinegrid)
 ----------------------------------------------------------------------

 ------------------------------------------------------
 Candidate Structure: Conf:807 Charge calc in gas phase
 ------------------------------------------------------
 Structure from the checkpoint file:  "conf-807.chk"
 Charge =  1 Multiplicity = 1

                          Input orientation:
 ---------------------------------------------------------------------
 Center     Atomic      Atomic             Coordinates (Angstroms)
 Number     Number       Type             X           Y           Z
 ---------------------------------------------------------------------
      1          7           0       -5.972297   -2.663468    2.434875
      2          1           0       -6.394945   -1.941585    3.018717
      3          1           0       -6.223514   -3.570752    2.821010
      4          6           0       -4.514779   -2.476151    2.472361
      5          1           0       -4.071619   -2.852099    3.410986
      6          6           0       -4.256253   -0.956554    2.516217
      7          6           0       -3.829963   -3.235924    1.318952
      8          1           0       -2.742741   -3.217864    1.441473
      9          1           0       -4.125673   -4.291411    1.382414
     10          8           0       -5.029780   -0.222655    3.131030
     11          6           0       -4.144233   -2.750553   -0.100191
     12          7           0       -5.419528   -2.374774   -0.310780
     13          1           0       -5.682660   -2.044647   -1.229008
     14          1           0       -6.077608   -2.395855    0.474233
     15          8           0       -3.276083   -2.738645   -0.980020
     16          7           0       -3.116984   -0.498044    1.942925
     17          1           0       -2.603824   -1.040557    1.258178
     18          6           0       -2.798222    0.922441    1.983835
     19          1           0       -3.735394    1.475280    1.848789
     20          6           0       -1.908922    1.199982    0.769985
     21          6           0       -2.201452    1.302262    3.376721
     22          1           0       -2.872219    0.785914    4.072875
     23          8           0       -1.716894    0.343764   -0.100811
     24          6           0       -2.286425    2.797183    3.757186
     25          1           0       -1.476774    3.375562    3.282367
     26          1           0       -2.059221    2.857136    4.829008
     27          6           0       -0.782271    0.753158    3.566435
     28          1           0       -0.059999    1.295038    2.943399
     29          1           0       -0.469288    0.862204    4.610717
     30          1           0       -0.713349   -0.301648    3.289239
     31          6           0       -3.642425    3.463448    3.492827
     32          1           0       -3.701340    4.438748    3.986491
     33          1           0       -3.820241    3.630708    2.423118
     34          1           0       -4.461009    2.839085    3.867653
     35          7           0       -1.328656    2.422783    0.692178
     36          1           0       -1.450319    3.081095    1.448917
     37          6           0       -0.470833    2.816369   -0.425861
     38          1           0       -0.885650    2.330375   -1.317539
     39          6           0        0.974897    2.280854   -0.270695
     40          6           0       -0.484873    4.333289   -0.590523
     41          1           0        0.135095    4.630694   -1.438487
     42          1           0       -1.508520    4.680341   -0.756968
     43          1           0       -0.076569    4.827720    0.297081
     44          8           0        1.955839    3.032729   -0.407062
     45          7           0        1.079987    0.957885   -0.037737
     46          1           0        0.238253    0.393883    0.107989
     47          6           0        2.312785    0.263135    0.314722
     48          1           0        2.907752    0.917554    0.964605
     49          6           0        3.110410    0.049163   -0.986523
     50          6           0        1.957628   -1.085564    1.061827
     51          1           0        2.311301   -1.906013    0.425533
     52          8           0        3.231620   -1.044617   -1.558089
     53          6           0        2.672267   -1.136932    2.408995
     54          1           0        3.758059   -1.030462    2.293634
     55          1           0        2.464482   -2.090771    2.901469
     56          1           0        2.307650   -0.332025    3.057109
     57          8           0        0.567961   -1.194171    1.267249
     58          1           0        0.166250   -1.854311    0.611015
     59          7           0        3.639812    1.192496   -1.513861
     60          1           0        3.329352    2.052323   -1.033655
     61          6           0        3.798797    1.318588   -2.954239
     62          1           0        3.009134    0.738188   -3.456203
     63          6           0        5.050003    0.673573   -3.542582
     64          6           0        3.631646    2.790884   -3.385427
     65          1           0        4.397083    3.423326   -2.927855
     66          1           0        2.651593    3.150229   -3.055849
     67          8           0        5.607098    1.158347   -4.606676
     68          8           0        3.798737    2.924892   -4.803382
     69          1           0        5.074320    1.967930   -4.917223
     70          7           0        5.471075   -0.487942   -3.103440
     71          1           0        4.914642   -0.878653   -2.334732
     72          6           0        6.154925   -1.424692   -4.011981
     73          1           0        7.053090   -0.972209   -4.429805
     74          1           0        6.432369   -2.310848   -3.437032
     75          6           0        5.218074   -1.782777   -5.197722
     76          8           0        5.654061   -1.914365   -6.324842
     77          7           0        3.894800   -1.908596   -4.867665
     78          1           0        3.595190   -1.771640   -3.910565
     79          6           0        2.859551   -1.955911   -5.882366
     80          1           0        3.245364   -2.515791   -6.738046
     81          6           0        2.525872   -0.544022   -6.370511
     82          6           0        1.585960   -2.642917   -5.334303
     83          1           0        0.893996   -2.805061   -6.165984
     84          1           0        1.901000   -3.632857   -4.985051
     85          8           0        2.784221    0.486452   -5.764788
     86          6           0        0.900287   -1.861678   -4.190937
     87          1           0        1.628818   -1.210872   -3.689097
     88          1           0        0.140967   -1.185120   -4.603731
     89          6           0        0.284728   -2.759989   -3.109560
     90          1           0        1.043960   -3.498771   -2.809621
     91          1           0       -0.568449   -3.326466   -3.503271
     92          6           0       -0.122115   -1.961928   -1.865445
     93          1           0        0.701763   -1.282444   -1.619670
     94          1           0       -1.000826   -1.338670   -2.053388
     95          7           0       -0.416961   -2.785230   -0.677810
     96          1           0        0.085688   -3.670892   -0.721806
     97          1           0       -1.422814   -2.989466   -0.664130
     98          8           0        1.865187   -0.571488   -7.527662
     99          1           0        1.646000    0.343083   -7.790776
    100          1           0        3.127074    2.378914   -5.262225
 ---------------------------------------------------------------------

 SCF Done:  E(RB3LYP) =  -2418.59424555     A.U. after    1 cycles

 Alpha  occ. eigenvalues --  -19.34577 -19.32174 -19.30625 -19.27484 -19.26329
 Alpha  occ. eigenvalues --  -19.23059 -19.22865 -19.21463 -19.20214 -19.18819
 Alpha  occ. eigenvalues --  -19.18516 -14.52886 -14.48706 -14.47369 -14.45987
 Alpha  occ. eigenvalues --  -14.45787 -14.43164 -14.41364 -14.39863 -14.39790
 Alpha  occ. eigenvalues --  -10.47271 -10.44911 -10.42187 -10.40536 -10.39426
 Alpha  occ. eigenvalues --  -10.38919 -10.38399 -10.38125 -10.36122 -10.36016
 Alpha  occ. eigenvalues --  -10.35987 -10.35105 -10.33771 -10.33574 -10.32474
 Alpha  occ. eigenvalues --  -10.31109 -10.30773 -10.29740 -10.28519 -10.28362
 Alpha  occ. eigenvalues --  -10.27352 -10.27331 -10.26980 -10.26681 -10.26043
 Alpha  occ. eigenvalues --  -10.25332 -10.24360 -10.23879  -1.25644  -1.23436
 Alpha  occ. eigenvalues --   -1.17692  -1.17316  -1.15155  -1.14465  -1.14333
 Alpha  occ. eigenvalues --   -1.13459  -1.10827  -1.10565  -1.09879  -1.08491
 Alpha  occ. eigenvalues --   -1.06037  -1.04041  -1.02846  -1.01781  -0.99833
 Alpha  occ. eigenvalues --   -0.97764  -0.96267  -0.95649  -0.92193  -0.90766
 Alpha  occ. eigenvalues --   -0.88999  -0.87438  -0.86881  -0.85487  -0.85108
 Alpha  occ. eigenvalues --   -0.83926  -0.80806  -0.80595  -0.79621  -0.79001
 Alpha  occ. eigenvalues --   -0.78702  -0.78308  -0.74916  -0.74558  -0.73317
 Alpha  occ. eigenvalues --   -0.72176  -0.71391  -0.70464  -0.69914  -0.69011
 Alpha  occ. eigenvalues --   -0.68818  -0.68493  -0.68208  -0.67899  -0.67662
 Alpha  occ. eigenvalues --   -0.66885  -0.65454  -0.65300  -0.65085  -0.64154
 Alpha  occ. eigenvalues --   -0.63524  -0.63046  -0.62295  -0.61683  -0.61360
 Alpha  occ. eigenvalues --   -0.61044  -0.60385  -0.59664  -0.59336  -0.58699
 Alpha  occ. eigenvalues --   -0.58528  -0.57971  -0.57782  -0.57552  -0.57339
 Alpha  occ. eigenvalues --   -0.56566  -0.56021  -0.55909  -0.55832  -0.55504
 Alpha  occ. eigenvalues --   -0.54910  -0.54696  -0.54371  -0.53550  -0.53220
 Alpha  occ. eigenvalues --   -0.53060  -0.52702  -0.52612  -0.52119  -0.51866
 Alpha  occ. eigenvalues --   -0.51792  -0.51513  -0.51317  -0.50683  -0.50227
 Alpha  occ. eigenvalues --   -0.49853  -0.49642  -0.49594  -0.49137  -0.48971
 Alpha  occ. eigenvalues --   -0.48653  -0.48348  -0.47711  -0.47602  -0.47398
 Alpha  occ. eigenvalues --   -0.47144  -0.47000  -0.46696  -0.46570  -0.46253
 Alpha  occ. eigenvalues --   -0.46138  -0.45624  -0.45495  -0.45274  -0.44892
 Alpha  occ. eigenvalues --   -0.44669  -0.44662  -0.44465  -0.43655  -0.43543
 Alpha  occ. eigenvalues --   -0.43415  -0.43381  -0.43086  -0.42736  -0.41574
 Alpha  occ. eigenvalues --   -0.40937  -0.40819  -0.40514  -0.40160  -0.39913
 Alpha  occ. eigenvalues --   -0.39728  -0.38859  -0.38102  -0.36996  -0.36317
 Alpha  occ. eigenvalues --   -0.35802  -0.35290  -0.34847  -0.34122  -0.33652
 Alpha  occ. eigenvalues --   -0.33288  -0.33034  -0.32630  -0.32132  -0.31666
 Alpha virt. eigenvalues --   -0.17078  -0.12606  -0.11821  -0.09248  -0.09228
 Alpha virt. eigenvalues --   -0.06993  -0.05202  -0.04883  -0.04307  -0.03717
 Alpha virt. eigenvalues --   -0.03669  -0.01436  -0.01032  -0.00671   0.00108

 Mulliken charges:
               1
     1  N   -0.752976
     2  H    0.346317
     3  H    0.317805
     4  C   -0.076845
     5  H    0.169741
     6  C    0.632610
     7  C   -0.393163
     8  H    0.170154
     9  H    0.184050
    10  O   -0.536621
    11  C    0.599473
    12  N   -0.737779
    13  H    0.339996
    14  H    0.392255
    15  O   -0.545683
    16  N   -0.631156
    17  H    0.373560
    18  C   -0.053143
    19  H    0.201006
    20  C    0.611666
    21  C   -0.092832
    22  H    0.174796
    23  O   -0.552044
    24  C   -0.283776
    25  H    0.117313
    26  H    0.160322
    27  C   -0.465939
    28  H    0.125454
    29  H    0.150701
    30  H    0.182291
    31  C   -0.464673
    32  H    0.160607
    33  H    0.135070
    34  H    0.184336
    35  N   -0.608723
    36  H    0.359578
    37  C   -0.056105
    38  H    0.193799
    39  C    0.622138
    40  C   -0.462052
    41  H    0.172103
    42  H    0.170939
    43  H    0.171357
    44  O   -0.564534
    45  N   -0.636433
    46  H    0.445977
    47  C   -0.096454
    48  H    0.188685
    49  C    0.617359
    50  C    0.131502
    51  H    0.149185
    52  O   -0.556566
    53  C   -0.458757
    54  H    0.137343
    55  H    0.168577
    56  H    0.166700
    57  O   -0.688555
    58  H    0.470898
    59  N   -0.619546
    60  H    0.406323
    61  C   -0.110551
    62  H    0.238975
    63  C    0.655271
    64  C   -0.102300
    65  H    0.208144
    66  H    0.204447
    67  O   -0.550989
    68  O   -0.639320
    69  H    0.481859
    70  N   -0.565056
    71  H    0.407621
    72  C   -0.257476
    73  H    0.243328
    74  H    0.221416
    75  C    0.597503
    76  O   -0.467525
    77  N   -0.610562
    78  H    0.354368
    79  C   -0.069882
    80  H    0.224423
    81  C    0.635644
    82  C   -0.286362
    83  H    0.185782
    84  H    0.177029
    85  O   -0.528273
    86  C   -0.307723
    87  H    0.135214
    88  H    0.154201
    89  C   -0.275129
    90  H    0.129845
    91  H    0.165888
    92  C   -0.132920
    93  H    0.123097
    94  H    0.185982
    95  N   -0.830505
    96  H    0.309083
    97  H    0.382311
    98  O   -0.530473
    99  H    0.429547
   100  H    0.446436
 Sum of Mulliken charges =   1.00000

 Dipole moment (field-independent basis, Debye):
    X=              6.3340    Y=              0.0100    Z=             -9.1699  Tot=             11.1448
 Quadrupole moment (field-independent basis, Debye-Ang):
   XX=           -211.7507   YY=           -242.8915   ZZ=           -215.3204
   XY=             12.6494   XZ=            -33.5714   YZ=            -13.0943

 Normal termination of Gaussian 16 at Mon Jun  6 06:22:08 2022.
