 Gaussian 16, Revision C.01,
 Gaussian 16:  ES64L-G16RevC.01  3-Jul-2019

 ----------------------------------------------------------------------
 # B3LYP/6-31G* empiricaldispersion=gd3 guess=read geom=check nosymm in
 tegral(ultrafinegrid)
 ----------------------------------------------------------------------

 ------------------------------------------------------
 Candidate Structure: Conf:472 Charge calc in gas phase
 ------------------------------------------------------
 Structure from the checkpoint file:  "conf-472.chk"
 Charge =  1 Multiplicity = 1

                          Input orientation:
 ---------------------------------------------------------------------
 Center     Atomic      Atomic             Coordinates (Angstroms)
 Number     Number       Type             X           Y           Z
 ---------------------------------------------------------------------
      1          7           0       -5.180834    3.216675    0.001984
      2          1           0       -4.656296    4.076676    0.173211
      3          1           0       -6.033226    3.292512    0.555638
      4          6           0       -4.371470    2.091773    0.478059
      5          1           0       -5.007867    1.198337    0.491415
      6          6           0       -3.744490    2.337895    1.860322
      7          6           0       -3.172559    1.851192   -0.470835
      8          1           0       -2.588587    2.779843   -0.529419
      9          1           0       -2.505345    1.103123   -0.037715
     10          8           0       -3.262089    3.428289    2.142237
     11          6           0       -3.485784    1.400974   -1.891551
     12          7           0       -4.661736    1.788474   -2.404774
     13          1           0       -4.872949    1.560281   -3.367252
     14          1           0       -5.237600    2.442123   -1.868492
     15          8           0       -2.665303    0.715693   -2.529221
     16          7           0       -3.669667    1.254649    2.698051
     17          1           0       -3.886776    0.356726    2.281364
     18          6           0       -2.598896    1.213721    3.692073
     19          1           0       -2.703826    2.089106    4.340748
     20          6           0       -1.273777    1.291056    2.917802
     21          6           0       -2.688329   -0.082731    4.537689
     22          1           0       -2.702414   -0.923934    3.825737
     23          8           0       -1.186153    0.726398    1.812369
     24          6           0       -4.006130   -0.094007    5.341174
     25          1           0       -4.828617    0.218308    4.687066
     26          1           0       -3.938770    0.667506    6.131083
     27          6           0       -1.457321   -0.253024    5.442234
     28          1           0       -1.336595    0.616244    6.103070
     29          1           0       -1.575066   -1.130551    6.082801
     30          1           0       -0.530496   -0.393776    4.877458
     31          6           0       -4.348491   -1.454977    5.956921
     32          1           0       -5.317036   -1.412570    6.465589
     33          1           0       -4.411404   -2.232501    5.185566
     34          1           0       -3.606197   -1.775834    6.694829
     35          7           0       -0.240922    1.954675    3.471077
     36          1           0       -0.381025    2.389532    4.373970
     37          6           0        0.990858    2.315286    2.747182
     38          1           0        0.683432    2.621379    1.738325
     39          6           0        1.945700    1.108512    2.563892
     40          6           0        1.688481    3.468197    3.458609
     41          1           0        2.580486    3.765031    2.903366
     42          1           0        1.016319    4.328515    3.528870
     43          1           0        2.010562    3.169927    4.461120
     44          8           0        3.097301    1.109261    3.011465
     45          7           0        1.417361    0.109471    1.824773
     46          1           0        0.396670    0.168837    1.691820
     47          6           0        2.066474   -1.168484    1.629238
     48          1           0        3.148885   -1.008278    1.584725
     49          6           0        1.665221   -1.673352    0.258830
     50          6           0        1.760307   -2.198624    2.762639
     51          1           0        0.757334   -2.606608    2.598645
     52          8           0        1.354616   -2.786141   -0.053535
     53          6           0        2.793671   -3.321637    2.776078
     54          1           0        2.826410   -3.843001    1.815728
     55          1           0        2.547957   -4.037014    3.565257
     56          1           0        3.794803   -2.916362    2.968756
     57          8           0        1.676623   -1.519841    4.004696
     58          1           0        2.551723   -1.152587    4.216799
     59          7           0        1.627820   -0.574319   -0.779763
     60          1           0        2.519383   -0.022044   -0.693167
     61          6           0        1.329518   -0.966016   -2.209003
     62          1           0        0.630016   -1.803448   -2.157319
     63          6           0        2.679292   -1.355435   -2.825526
     64          6           0        0.668494    0.289718   -2.825747
     65          1           0        0.078459   -0.001444   -3.700425
     66          1           0        1.454929    0.979810   -3.144622
     67          8           0        3.386514   -0.522781   -3.375991
     68          8           0       -0.126952    0.904842   -1.824162
     69          1           0       -1.098713    0.765754   -2.026271
     70          7           0        3.084102   -2.631443   -2.558709
     71          1           0        2.496824   -3.183324   -1.944310
     72          6           0        4.524333   -2.861324   -2.438890
     73          1           0        4.696315   -3.919053   -2.233097
     74          1           0        5.016207   -2.594408   -3.375844
     75          6           0        5.010819   -2.028542   -1.240876
     76          8           0        4.603431   -2.272026   -0.100837
     77          7           0        5.815152   -0.980968   -1.527037
     78          1           0        5.874252   -0.680472   -2.492014
     79          6           0        6.238252   -0.043037   -0.493672
     80          1           0        6.938543   -0.543803    0.181587
     81          6           0        5.042524    0.409744    0.343122
     82          6           0        6.912571    1.175395   -1.154056
     83          1           0        7.696144    0.790429   -1.817421
     84          1           0        6.168706    1.679765   -1.785964
     85          8           0        3.950524    0.710558   -0.133767
     86          6           0        7.514530    2.171758   -0.153444
     87          1           0        6.736576    2.507421    0.542714
     88          1           0        8.268429    1.657583    0.458656
     89          6           0        8.138654    3.402022   -0.828247
     90          1           0        8.427741    4.115849   -0.044387
     91          1           0        7.393599    3.913738   -1.450737
     92          6           0        9.370132    3.099773   -1.688993
     93          1           0       10.102190    2.534571   -1.079681
     94          1           0        9.091007    2.445337   -2.524645
     95          7           0        9.889958    4.340931   -2.266556
     96          1           0       10.667725    4.139077   -2.892072
     97          1           0       10.267887    4.933191   -1.527922
     98          8           0        5.331892    0.505246    1.626985
     99          1           0        4.527346    0.803300    2.137882
    100          1           0        0.847051    0.109335   -0.582297
 ---------------------------------------------------------------------

 SCF Done:  E(RB3LYP) =  -2418.58623677     A.U. after    3 cycles

 Alpha  occ. eigenvalues --  -19.31005 -19.28662 -19.24704 -19.24693 -19.24687
 Alpha  occ. eigenvalues --  -19.24510 -19.24049 -19.23815 -19.22547 -19.21365
 Alpha  occ. eigenvalues --  -19.21336 -14.55116 -14.48280 -14.47520 -14.47131
 Alpha  occ. eigenvalues --  -14.46835 -14.45595 -14.43880 -14.42117 -14.36671
 Alpha  occ. eigenvalues --  -10.46339 -10.42743 -10.41049 -10.40809 -10.40469
 Alpha  occ. eigenvalues --  -10.39511 -10.38526 -10.37883 -10.36556 -10.35810
 Alpha  occ. eigenvalues --  -10.35039 -10.34654 -10.34331 -10.33603 -10.33502
 Alpha  occ. eigenvalues --  -10.33378 -10.32707 -10.29143 -10.28688 -10.28311
 Alpha  occ. eigenvalues --  -10.28202 -10.26779 -10.26453 -10.26365 -10.26270
 Alpha  occ. eigenvalues --  -10.26044 -10.24866 -10.24639  -1.22488  -1.20656
 Alpha  occ. eigenvalues --   -1.16373  -1.16082  -1.15507  -1.14172  -1.13261
 Alpha  occ. eigenvalues --   -1.13125  -1.12284  -1.12170  -1.11523  -1.08998
 Alpha  occ. eigenvalues --   -1.04811  -1.04184  -1.03816  -1.03201  -1.02289
 Alpha  occ. eigenvalues --   -1.00098  -0.98152  -0.93595  -0.91305  -0.90305
 Alpha  occ. eigenvalues --   -0.89584  -0.88297  -0.87247  -0.85720  -0.84537
 Alpha  occ. eigenvalues --   -0.82504  -0.82366  -0.81809  -0.79347  -0.76963
 Alpha  occ. eigenvalues --   -0.76249  -0.75710  -0.74929  -0.73855  -0.73064
 Alpha  occ. eigenvalues --   -0.72921  -0.71985  -0.70709  -0.70180  -0.69985
 Alpha  occ. eigenvalues --   -0.69491  -0.68470  -0.68014  -0.67913  -0.67396
 Alpha  occ. eigenvalues --   -0.66467  -0.65351  -0.64257  -0.64173  -0.63744
 Alpha  occ. eigenvalues --   -0.62986  -0.62486  -0.62117  -0.61756  -0.61421
 Alpha  occ. eigenvalues --   -0.60980  -0.60596  -0.60395  -0.59851  -0.59414
 Alpha  occ. eigenvalues --   -0.59055  -0.58355  -0.57922  -0.57311  -0.56229
 Alpha  occ. eigenvalues --   -0.56005  -0.55955  -0.55690  -0.54992  -0.54675
 Alpha  occ. eigenvalues --   -0.54639  -0.54420  -0.54260  -0.53947  -0.53657
 Alpha  occ. eigenvalues --   -0.53260  -0.52989  -0.52640  -0.52260  -0.51755
 Alpha  occ. eigenvalues --   -0.51469  -0.51143  -0.51015  -0.50823  -0.50443
 Alpha  occ. eigenvalues --   -0.50386  -0.49928  -0.49785  -0.49610  -0.49478
 Alpha  occ. eigenvalues --   -0.49201  -0.49120  -0.48768  -0.48691  -0.48349
 Alpha  occ. eigenvalues --   -0.47740  -0.47243  -0.47207  -0.46764  -0.46551
 Alpha  occ. eigenvalues --   -0.46326  -0.46026  -0.45833  -0.45470  -0.44924
 Alpha  occ. eigenvalues --   -0.44410  -0.44341  -0.44084  -0.43814  -0.43138
 Alpha  occ. eigenvalues --   -0.42640  -0.42068  -0.41930  -0.41196  -0.41149
 Alpha  occ. eigenvalues --   -0.40947  -0.40202  -0.40051  -0.39432  -0.39158
 Alpha  occ. eigenvalues --   -0.38870  -0.38586  -0.38478  -0.37741  -0.37218
 Alpha  occ. eigenvalues --   -0.36937  -0.36872  -0.36456  -0.36289  -0.35973
 Alpha  occ. eigenvalues --   -0.35535  -0.35373  -0.35023  -0.33458  -0.28924
 Alpha virt. eigenvalues --   -0.16842  -0.11668  -0.10715  -0.10187  -0.10100
 Alpha virt. eigenvalues --   -0.08569  -0.07962  -0.06198  -0.03593  -0.02501
 Alpha virt. eigenvalues --   -0.01789  -0.01125  -0.01012  -0.00407  -0.00253

 Mulliken charges:
               1
     1  N   -0.730937
     2  H    0.334298
     3  H    0.328147
     4  C   -0.094968
     5  H    0.154711
     6  C    0.613690
     7  C   -0.388021
     8  H    0.197271
     9  H    0.202487
    10  O   -0.524318
    11  C    0.614202
    12  N   -0.732050
    13  H    0.352173
    14  H    0.393960
    15  O   -0.569406
    16  N   -0.584076
    17  H    0.335321
    18  C   -0.046024
    19  H    0.179063
    20  C    0.655211
    21  C   -0.098650
    22  H    0.130560
    23  O   -0.589354
    24  C   -0.259616
    25  H    0.152114
    26  H    0.144682
    27  C   -0.494722
    28  H    0.138191
    29  H    0.175431
    30  H    0.182221
    31  C   -0.453031
    32  H    0.164436
    33  H    0.145152
    34  H    0.157780
    35  N   -0.587895
    36  H    0.357433
    37  C   -0.068533
    38  H    0.202207
    39  C    0.661578
    40  C   -0.478316
    41  H    0.188790
    42  H    0.177185
    43  H    0.179232
    44  O   -0.567521
    45  N   -0.650276
    46  H    0.409945
    47  C   -0.088002
    48  H    0.227994
    49  C    0.604891
    50  C    0.145778
    51  H    0.156044
    52  O   -0.403413
    53  C   -0.472088
    54  H    0.179534
    55  H    0.179854
    56  H    0.159922
    57  O   -0.610374
    58  H    0.405541
    59  N   -0.761389
    60  H    0.473297
    61  C   -0.098883
    62  H    0.208180
    63  C    0.596125
    64  C   -0.053167
    65  H    0.190155
    66  H    0.198078
    67  O   -0.493752
    68  O   -0.691787
    69  H    0.466432
    70  N   -0.569372
    71  H    0.366194
    72  C   -0.237471
    73  H    0.205688
    74  H    0.199065
    75  C    0.597948
    76  O   -0.546695
    77  N   -0.591146
    78  H    0.362991
    79  C    0.010881
    80  H    0.195869
    81  C    0.628991
    82  C   -0.325348
    83  H    0.167796
    84  H    0.169560
    85  O   -0.549590
    86  C   -0.275863
    87  H    0.148597
    88  H    0.148289
    89  C   -0.252778
    90  H    0.139187
    91  H    0.152819
    92  C   -0.134608
    93  H    0.116218
    94  H    0.136686
    95  N   -0.715851
    96  H    0.304180
    97  H    0.298568
    98  O   -0.577295
    99  H    0.465521
   100  H    0.432245
 Sum of Mulliken charges =   1.00000

 Dipole moment (field-independent basis, Debye):
    X=              3.8114    Y=              0.4555    Z=              3.1402  Tot=              4.9594
 Quadrupole moment (field-independent basis, Debye-Ang):
   XX=           -152.7869   YY=           -262.5003   ZZ=           -241.2678
   XY=            -11.8817   XZ=            -16.9041   YZ=             16.0891

 Normal termination of Gaussian 16 at Mon Jun  6 06:22:53 2022.
