 Gaussian 16, Revision C.01,
 Gaussian 16:  ES64L-G16RevC.01  3-Jul-2019

 ----------------------------------------------------------------------
 # B3LYP/6-31G* empiricaldispersion=gd3 guess=read geom=check nosymm in
 tegral(ultrafinegrid)
 ----------------------------------------------------------------------

 ------------------------------------------------------
 Candidate Structure: Conf:197 Charge calc in gas phase
 ------------------------------------------------------
 Structure from the checkpoint file:  "conf-197.chk"
 Charge =  1 Multiplicity = 1

                          Input orientation:
 ---------------------------------------------------------------------
 Center     Atomic      Atomic             Coordinates (Angstroms)
 Number     Number       Type             X           Y           Z
 ---------------------------------------------------------------------
      1          7           0       -4.263302   -1.553580    4.269588
      2          1           0       -5.017273   -2.228602    4.368071
      3          1           0       -3.915259   -1.325196    5.199950
      4          6           0       -4.751968   -0.319527    3.647632
      5          1           0       -5.401317   -0.600870    2.808918
      6          6           0       -3.591418    0.472774    3.025345
      7          6           0       -5.553670    0.629009    4.562238
      8          1           0       -5.952195    1.457773    3.968345
      9          1           0       -6.405877    0.087634    4.992635
     10          8           0       -3.747066    1.635085    2.626872
     11          6           0       -4.689695    1.173651    5.700776
     12          7           0       -5.201308    2.242580    6.362813
     13          1           0       -4.649641    2.654731    7.103059
     14          1           0       -6.010731    2.745447    6.030828
     15          8           0       -3.618480    0.658354    6.020484
     16          7           0       -2.423982   -0.194804    2.935802
     17          1           0       -2.433521   -1.145267    3.296228
     18          6           0       -1.176036    0.468038    2.568987
     19          1           0       -1.279881    1.519076    2.866944
     20          6           0       -1.087717    0.414718    1.028524
     21          6           0        0.020866   -0.144280    3.313049
     22          1           0        0.074039   -1.202616    3.024971
     23          8           0       -0.391083   -0.408925    0.411705
     24          6           0       -0.186065   -0.046528    4.842770
     25          1           0       -1.233063   -0.232080    5.104184
     26          1           0        0.012811    0.988237    5.154926
     27          6           0        1.327937    0.546656    2.896235
     28          1           0        1.262937    1.628107    3.072977
     29          1           0        2.169645    0.169175    3.484270
     30          1           0        1.564279    0.385297    1.844630
     31          6           0        0.703809   -1.007639    5.638173
     32          1           0        0.544449   -0.884906    6.714526
     33          1           0        0.476376   -2.052606    5.390421
     34          1           0        1.770295   -0.846121    5.443131
     35          7           0       -1.899126    1.312606    0.428720
     36          1           0       -2.529371    1.826867    1.048864
     37          6           0       -2.230593    1.305290   -1.003059
     38          1           0       -2.401827    0.264454   -1.306846
     39          6           0       -1.024332    1.870222   -1.786379
     40          6           0       -3.479710    2.146519   -1.239493
     41          1           0       -3.787338    2.078412   -2.286628
     42          1           0       -4.301472    1.796950   -0.606689
     43          1           0       -3.269391    3.196397   -1.018184
     44          8           0       -0.883537    3.060240   -2.031651
     45          7           0       -0.117942    0.911016   -2.135645
     46          1           0       -0.255947   -0.017132   -1.752765
     47          6           0        1.230165    1.241400   -2.523120
     48          1           0        1.209387    2.219430   -3.016979
     49          6           0        1.734871    0.155708   -3.467931
     50          6           0        2.188624    1.298816   -1.283891
     51          1           0        3.206183    1.505372   -1.637804
     52          8           0        1.191739   -0.919381   -3.633145
     53          6           0        1.806215    2.390921   -0.289591
     54          1           0        1.785993    3.373001   -0.771521
     55          1           0        2.539306    2.399347    0.521806
     56          1           0        0.817632    2.214646    0.139792
     57          8           0        2.267556    0.006912   -0.695417
     58          1           0        1.406776   -0.198998   -0.273407
     59          7           0        2.954419    0.442334   -4.082831
     60          1           0        3.361175    1.364682   -3.993688
     61          6           0        3.615066   -0.551641   -4.880748
     62          1           0        2.906822   -1.388291   -4.973347
     63          6           0        4.846026   -1.118112   -4.174458
     64          6           0        3.943008   -0.045302   -6.296187
     65          1           0        4.638914    0.804993   -6.257133
     66          1           0        3.009638    0.279093   -6.766744
     67          8           0        5.754842   -1.779639   -4.837244
     68          8           0        4.521752   -1.154996   -7.000938
     69          1           0        4.800319   -0.884864   -7.891101
     70          7           0        4.993014   -0.971879   -2.894245
     71          1           0        4.303222   -0.428494   -2.361926
     72          6           0        6.115894   -1.458872   -2.096463
     73          1           0        6.080862   -2.551024   -2.028937
     74          1           0        7.059573   -1.173946   -2.573454
     75          6           0        5.960175   -0.780770   -0.719875
     76          8           0        5.227995    0.200532   -0.617422
     77          7           0        6.631363   -1.357433    0.288801
     78          1           0        7.283221   -2.116924    0.126999
     79          6           0        6.467039   -0.931988    1.674618
     80          1           0        6.146599    0.112519    1.667684
     81          6           0        7.821045   -1.059544    2.355567
     82          6           0        5.418175   -1.793550    2.425529
     83          1           0        5.836927   -2.796172    2.589336
     84          1           0        5.275104   -1.345708    3.415880
     85          8           0        8.742246   -1.713850    1.915875
     86          6           0        4.080103   -1.913043    1.687392
     87          1           0        3.682698   -0.919240    1.452174
     88          1           0        4.247282   -2.403833    0.718996
     89          6           0        3.052413   -2.731709    2.475230
     90          1           0        2.801728   -2.205704    3.408354
     91          1           0        3.477280   -3.699622    2.771854
     92          6           0        1.772706   -2.983819    1.676163
     93          1           0        1.355018   -2.023316    1.336597
     94          1           0        2.022558   -3.552709    0.770101
     95          7           0        0.833854   -3.794732    2.461906
     96          1           0       -0.038709   -3.908718    1.948475
     97          1           0        0.594673   -3.305015    3.323522
     98          8           0        7.842885   -0.407979    3.529583
     99          1           0        8.711823   -0.575304    3.943125
    100          1           0        5.518386   -1.759217   -5.812890
 ---------------------------------------------------------------------

 SCF Done:  E(RB3LYP) =  -2418.57219586     A.U. after    3 cycles

 Alpha  occ. eigenvalues --  -19.35691 -19.32224 -19.28676 -19.23614 -19.23400
 Alpha  occ. eigenvalues --  -19.23165 -19.22277 -19.20315 -19.18629 -19.18453
 Alpha  occ. eigenvalues --  -19.18173 -14.54244 -14.49474 -14.47258 -14.43394
 Alpha  occ. eigenvalues --  -14.43051 -14.42465 -14.42275 -14.38573 -14.36513
 Alpha  occ. eigenvalues --  -10.47924 -10.41200 -10.41038 -10.40536 -10.39484
 Alpha  occ. eigenvalues --  -10.39423 -10.37253 -10.36690 -10.35824 -10.35679
 Alpha  occ. eigenvalues --  -10.35167 -10.33169 -10.32789 -10.32382 -10.30668
 Alpha  occ. eigenvalues --  -10.30120 -10.29643 -10.27283 -10.26321 -10.25921
 Alpha  occ. eigenvalues --  -10.25815 -10.25174 -10.24816 -10.24546 -10.24113
 Alpha  occ. eigenvalues --  -10.23794 -10.23697 -10.23251  -1.26389  -1.19691
 Alpha  occ. eigenvalues --   -1.18692  -1.16103  -1.15786  -1.11809  -1.11389
 Alpha  occ. eigenvalues --   -1.10860  -1.10570  -1.10194  -1.09703  -1.09585
 Alpha  occ. eigenvalues --   -1.05929  -1.03898  -1.00435  -1.00080  -0.99291
 Alpha  occ. eigenvalues --   -0.96996  -0.95538  -0.93211  -0.92683  -0.89853
 Alpha  occ. eigenvalues --   -0.87541  -0.87479  -0.86113  -0.83860  -0.83506
 Alpha  occ. eigenvalues --   -0.82633  -0.80722  -0.80016  -0.79878  -0.78899
 Alpha  occ. eigenvalues --   -0.77061  -0.76454  -0.73405  -0.72690  -0.72625
 Alpha  occ. eigenvalues --   -0.71694  -0.70557  -0.70163  -0.69798  -0.69306
 Alpha  occ. eigenvalues --   -0.68502  -0.68425  -0.66923  -0.66286  -0.65537
 Alpha  occ. eigenvalues --   -0.65047  -0.64801  -0.64525  -0.63646  -0.63497
 Alpha  occ. eigenvalues --   -0.62795  -0.61954  -0.60591  -0.60494  -0.60055
 Alpha  occ. eigenvalues --   -0.59723  -0.58860  -0.58722  -0.58322  -0.57874
 Alpha  occ. eigenvalues --   -0.57638  -0.57261  -0.56723  -0.56441  -0.56026
 Alpha  occ. eigenvalues --   -0.55930  -0.55587  -0.55205  -0.54861  -0.54367
 Alpha  occ. eigenvalues --   -0.53970  -0.53687  -0.53063  -0.52944  -0.52343
 Alpha  occ. eigenvalues --   -0.52168  -0.52028  -0.51364  -0.51011  -0.50766
 Alpha  occ. eigenvalues --   -0.50671  -0.50253  -0.50127  -0.49813  -0.48971
 Alpha  occ. eigenvalues --   -0.48857  -0.48438  -0.48335  -0.48149  -0.47519
 Alpha  occ. eigenvalues --   -0.47416  -0.47059  -0.46863  -0.46683  -0.46400
 Alpha  occ. eigenvalues --   -0.45937  -0.45494  -0.45172  -0.45070  -0.44853
 Alpha  occ. eigenvalues --   -0.44560  -0.44267  -0.44166  -0.44082  -0.43902
 Alpha  occ. eigenvalues --   -0.43477  -0.42889  -0.42647  -0.42543  -0.42164
 Alpha  occ. eigenvalues --   -0.41936  -0.41372  -0.40779  -0.40398  -0.39776
 Alpha  occ. eigenvalues --   -0.39553  -0.39110  -0.38931  -0.38715  -0.38238
 Alpha  occ. eigenvalues --   -0.38073  -0.37355  -0.36638  -0.35954  -0.35810
 Alpha  occ. eigenvalues --   -0.35277  -0.35088  -0.33949  -0.33321  -0.32791
 Alpha  occ. eigenvalues --   -0.31919  -0.31303  -0.30971  -0.30574  -0.28578
 Alpha virt. eigenvalues --   -0.16794  -0.09431  -0.09267  -0.08116  -0.07893
 Alpha virt. eigenvalues --   -0.06806  -0.05237  -0.04711  -0.04252  -0.03813
 Alpha virt. eigenvalues --   -0.02562  -0.01652  -0.00796  -0.00431  -0.00283

 Mulliken charges:
               1
     1  N   -0.763419
     2  H    0.314822
     3  H    0.345487
     4  C   -0.065795
     5  H    0.170626
     6  C    0.645085
     7  C   -0.376095
     8  H    0.183786
     9  H    0.175115
    10  O   -0.573876
    11  C    0.621003
    12  N   -0.742828
    13  H    0.352113
    14  H    0.348459
    15  O   -0.524888
    16  N   -0.603848
    17  H    0.364905
    18  C   -0.053523
    19  H    0.177913
    20  C    0.638599
    21  C   -0.102181
    22  H    0.130998
    23  O   -0.580096
    24  C   -0.277204
    25  H    0.175225
    26  H    0.140100
    27  C   -0.484691
    28  H    0.145600
    29  H    0.151758
    30  H    0.163504
    31  C   -0.461101
    32  H    0.161833
    33  H    0.143621
    34  H    0.144439
    35  N   -0.613450
    36  H    0.390336
    37  C   -0.047174
    38  H    0.166188
    39  C    0.629954
    40  C   -0.480457
    41  H    0.170281
    42  H    0.165447
    43  H    0.190199
    44  O   -0.521085
    45  N   -0.594133
    46  H    0.359748
    47  C   -0.094129
    48  H    0.187660
    49  C    0.636329
    50  C    0.124114
    51  H    0.125533
    52  O   -0.477106
    53  C   -0.473083
    54  H    0.165870
    55  H    0.171714
    56  H    0.169862
    57  O   -0.671714
    58  H    0.459029
    59  N   -0.663838
    60  H    0.350125
    61  C   -0.064448
    62  H    0.267787
    63  C    0.636680
    64  C   -0.063876
    65  H    0.169154
    66  H    0.208382
    67  O   -0.563289
    68  O   -0.642480
    69  H    0.446508
    70  N   -0.570603
    71  H    0.438156
    72  C   -0.226367
    73  H    0.220891
    74  H    0.229528
    75  C    0.624704
    76  O   -0.511637
    77  N   -0.599673
    78  H    0.356312
    79  C   -0.058292
    80  H    0.210320
    81  C    0.592782
    82  C   -0.270843
    83  H    0.150275
    84  H    0.172330
    85  O   -0.464057
    86  C   -0.273533
    87  H    0.178710
    88  H    0.115667
    89  C   -0.263832
    90  H    0.134322
    91  H    0.149816
    92  C   -0.148579
    93  H    0.148213
    94  H    0.130562
    95  N   -0.730285
    96  H    0.300777
    97  H    0.303916
    98  O   -0.555748
    99  H    0.429090
   100  H    0.480996
 Sum of Mulliken charges =   1.00000

 Dipole moment (field-independent basis, Debye):
    X=             13.8400    Y=             -0.4852    Z=             -8.9692  Tot=             16.4993
 Quadrupole moment (field-independent basis, Debye-Ang):
   XX=           -107.6303   YY=           -285.6775   ZZ=           -129.2116
   XY=            -16.3537   XZ=           -107.9245   YZ=             17.2903

 Normal termination of Gaussian 16 at Mon Jun  6 06:22:48 2022.
