 Gaussian 16, Revision C.01,
 Gaussian 16:  ES64L-G16RevC.01  3-Jul-2019

 ----------------------------------------------------------------------
 # B3LYP/6-31G* empiricaldispersion=gd3 guess=read geom=check nosymm in
 tegral(ultrafinegrid)
 ----------------------------------------------------------------------

 ------------------------------------------------------
 Candidate Structure: Conf:950 Charge calc in gas phase
 ------------------------------------------------------
 Structure from the checkpoint file:  "conf-950.chk"
 Charge =  1 Multiplicity = 1

                          Input orientation:
 ---------------------------------------------------------------------
 Center     Atomic      Atomic             Coordinates (Angstroms)
 Number     Number       Type             X           Y           Z
 ---------------------------------------------------------------------
      1          7           0       -5.560516   -0.582173    3.456093
      2          1           0       -6.133633   -1.391753    3.691039
      3          1           0       -4.855017   -0.509919    4.190385
      4          6           0       -6.437824    0.593648    3.510537
      5          1           0       -7.293054    0.365535    2.860647
      6          6           0       -5.751794    1.816877    2.881205
      7          6           0       -6.991204    0.949735    4.897535
      8          1           0       -6.162511    1.078664    5.608883
      9          1           0       -7.503481    1.917101    4.848229
     10          8           0       -6.101960    2.973461    3.114960
     11          6           0       -7.929062   -0.134498    5.425790
     12          7           0       -8.611759    0.196784    6.558162
     13          1           0       -9.285825   -0.465512    6.917187
     14          1           0       -8.624356    1.138092    6.921666
     15          8           0       -8.046071   -1.234489    4.893473
     16          7           0       -4.751364    1.505943    2.018832
     17          1           0       -4.541299    0.524304    1.862864
     18          6           0       -4.068950    2.533106    1.265681
     19          1           0       -4.816756    3.273183    0.960098
     20          6           0       -3.448588    1.881605    0.034096
     21          6           0       -3.001502    3.267036    2.147222
     22          1           0       -3.566240    3.530255    3.049480
     23          8           0       -3.217561    0.672479   -0.037527
     24          6           0       -2.458851    4.581405    1.553001
     25          1           0       -1.803942    4.369321    0.695202
     26          1           0       -1.802164    5.026002    2.312003
     27          6           0       -1.853022    2.329950    2.535679
     28          1           0       -1.218986    2.100953    1.669498
     29          1           0       -1.217993    2.794166    3.298140
     30          1           0       -2.228998    1.383064    2.935439
     31          6           0       -3.530075    5.613943    1.174680
     32          1           0       -3.075493    6.583247    0.944990
     33          1           0       -4.120744    5.320805    0.296162
     34          1           0       -4.241917    5.755071    1.995402
     35          7           0       -3.122023    2.730085   -0.980397
     36          1           0       -3.263847    3.723945   -0.863518
     37          6           0       -2.367560    2.276552   -2.144494
     38          1           0       -2.805322    1.325660   -2.464252
     39          6           0       -0.906849    2.042328   -1.711784
     40          6           0       -2.449213    3.305573   -3.267039
     41          1           0       -1.937646    2.934613   -4.160765
     42          1           0       -3.494260    3.498795   -3.525221
     43          1           0       -1.967306    4.240208   -2.964563
     44          8           0       -0.077890    2.971812   -1.712740
     45          7           0       -0.611507    0.786865   -1.328420
     46          1           0       -1.362324    0.102682   -1.289348
     47          6           0        0.626423    0.377385   -0.662343
     48          1           0        0.902236    1.150086    0.068645
     49          6           0        1.797394    0.275571   -1.663997
     50          6           0        0.389410   -0.958323    0.067296
     51          1           0        1.378966   -1.373502    0.301916
     52          8           0        2.455577   -0.751127   -1.843903
     53          6           0       -0.427580   -0.794312    1.347827
     54          1           0        0.085772   -0.142896    2.063624
     55          1           0       -0.557683   -1.771556    1.827535
     56          1           0       -1.416923   -0.380353    1.135737
     57          8           0       -0.280288   -1.783066   -0.884959
     58          1           0       -0.557213   -2.600090   -0.442651
     59          7           0        2.087423    1.449998   -2.293781
     60          1           0        1.451489    2.235454   -2.069525
     61          6           0        2.829110    1.524012   -3.541152
     62          1           0        2.515713    0.717321   -4.221374
     63          6           0        4.346222    1.332086   -3.372174
     64          6           0        2.480215    2.880296   -4.181395
     65          1           0        2.719669    3.694376   -3.483629
     66          1           0        1.404954    2.902610   -4.385374
     67          8           0        5.199542    2.056899   -4.052978
     68          8           0        3.244214    2.993662   -5.390369
     69          1           0        3.052765    3.840327   -5.826436
     70          7           0        4.799313    0.406616   -2.582518
     71          1           0        4.069030   -0.211304   -2.171933
     72          6           0        6.215898    0.048653   -2.424926
     73          1           0        6.824861    0.950129   -2.526298
     74          1           0        6.343855   -0.371835   -1.428391
     75          6           0        6.618539   -1.038473   -3.450886
     76          8           0        6.808685   -2.188777   -3.102800
     77          7           0        6.661090   -0.605745   -4.744429
     78          1           0        6.771425    0.386983   -4.909699
     79          6           0        7.127278   -1.503146   -5.798238
     80          1           0        6.597819   -2.452756   -5.689966
     81          6           0        8.615522   -1.835864   -5.676326
     82          6           0        6.820843   -0.881858   -7.175908
     83          1           0        5.773400   -0.551982   -7.156596
     84          1           0        7.436478    0.020821   -7.305257
     85          8           0        9.124312   -2.827072   -6.139316
     86          6           0        7.033618   -1.832601   -8.359472
     87          1           0        8.070039   -2.187687   -8.371554
     88          1           0        6.408481   -2.724805   -8.216104
     89          6           0        6.686630   -1.169001   -9.696395
     90          1           0        7.329924   -0.287836   -9.844899
     91          1           0        5.652765   -0.799452   -9.685993
     92          6           0        6.846617   -2.113960  -10.889798
     93          1           0        7.876546   -2.517029  -10.896069
     94          1           0        6.178118   -2.974192  -10.755609
     95          7           0        6.456510   -1.434312  -12.129702
     96          1           0        6.464920   -2.095691  -12.904318
     97          1           0        7.150756   -0.724782  -12.362845
     98          8           0        9.310320   -0.854685   -5.048715
     99          1           0       10.244272   -1.139491   -5.043195
    100          1           0        4.694032    2.622746   -4.711129
 ---------------------------------------------------------------------

 SCF Done:  E(RB3LYP) =  -2418.53936178     A.U. after    1 cycles

 Alpha  occ. eigenvalues --  -19.36205 -19.33210 -19.27757 -19.25916 -19.24096
 Alpha  occ. eigenvalues --  -19.23675 -19.22502 -19.21687 -19.21053 -19.16534
 Alpha  occ. eigenvalues --  -19.16408 -14.54027 -14.49048 -14.47282 -14.46491
 Alpha  occ. eigenvalues --  -14.45790 -14.40810 -14.40753 -14.37099 -14.36280
 Alpha  occ. eigenvalues --  -10.48236 -10.42329 -10.40654 -10.40234 -10.40040
 Alpha  occ. eigenvalues --  -10.39923 -10.39839 -10.37784 -10.36336 -10.35136
 Alpha  occ. eigenvalues --  -10.34207 -10.34068 -10.33722 -10.33431 -10.32645
 Alpha  occ. eigenvalues --  -10.30208 -10.28081 -10.28013 -10.27643 -10.26326
 Alpha  occ. eigenvalues --  -10.26177 -10.26103 -10.25545 -10.25303 -10.24651
 Alpha  occ. eigenvalues --  -10.24616 -10.24601 -10.24243  -1.26721  -1.19704
 Alpha  occ. eigenvalues --   -1.18437  -1.17764  -1.15105  -1.14598  -1.12859
 Alpha  occ. eigenvalues --   -1.11768  -1.11281  -1.09495  -1.08392  -1.08162
 Alpha  occ. eigenvalues --   -1.06586  -1.03630  -1.03056  -1.02135  -0.98153
 Alpha  occ. eigenvalues --   -0.95422  -0.94166  -0.93300  -0.93079  -0.89649
 Alpha  occ. eigenvalues --   -0.88948  -0.87845  -0.87463  -0.86179  -0.82834
 Alpha  occ. eigenvalues --   -0.81755  -0.81174  -0.80615  -0.80021  -0.79705
 Alpha  occ. eigenvalues --   -0.78304  -0.76201  -0.75596  -0.73978  -0.71846
 Alpha  occ. eigenvalues --   -0.71616  -0.70541  -0.69927  -0.69424  -0.69352
 Alpha  occ. eigenvalues --   -0.69197  -0.68828  -0.68298  -0.67968  -0.67535
 Alpha  occ. eigenvalues --   -0.65687  -0.65157  -0.64925  -0.64613  -0.63661
 Alpha  occ. eigenvalues --   -0.62677  -0.62303  -0.61775  -0.61319  -0.61062
 Alpha  occ. eigenvalues --   -0.59763  -0.59552  -0.59064  -0.58464  -0.58026
 Alpha  occ. eigenvalues --   -0.57730  -0.57677  -0.57219  -0.56924  -0.55780
 Alpha  occ. eigenvalues --   -0.55425  -0.55281  -0.54880  -0.54615  -0.54398
 Alpha  occ. eigenvalues --   -0.54107  -0.53517  -0.53429  -0.53086  -0.52852
 Alpha  occ. eigenvalues --   -0.52527  -0.52276  -0.51591  -0.51298  -0.51147
 Alpha  occ. eigenvalues --   -0.50890  -0.50816  -0.50443  -0.50345  -0.49892
 Alpha  occ. eigenvalues --   -0.49584  -0.49170  -0.49117  -0.49012  -0.48470
 Alpha  occ. eigenvalues --   -0.48214  -0.47632  -0.47094  -0.47087  -0.46868
 Alpha  occ. eigenvalues --   -0.46556  -0.46122  -0.45947  -0.45916  -0.45835
 Alpha  occ. eigenvalues --   -0.45675  -0.45375  -0.45166  -0.45008  -0.44786
 Alpha  occ. eigenvalues --   -0.43952  -0.43771  -0.42825  -0.42491  -0.42319
 Alpha  occ. eigenvalues --   -0.42066  -0.40949  -0.40879  -0.40764  -0.40240
 Alpha  occ. eigenvalues --   -0.40149  -0.40019  -0.39483  -0.39413  -0.39059
 Alpha  occ. eigenvalues --   -0.38998  -0.38325  -0.38138  -0.36781  -0.36493
 Alpha  occ. eigenvalues --   -0.35707  -0.35018  -0.34074  -0.33960  -0.31984
 Alpha  occ. eigenvalues --   -0.31705  -0.30569  -0.30240  -0.28895  -0.28564
 Alpha virt. eigenvalues --   -0.17594  -0.12311  -0.09746  -0.09294  -0.08726
 Alpha virt. eigenvalues --   -0.06902  -0.06837  -0.03467  -0.03091  -0.02951
 Alpha virt. eigenvalues --   -0.02054  -0.01983  -0.01081  -0.00544  -0.00168

 Mulliken charges:
               1
     1  N   -0.751088
     2  H    0.343470
     3  H    0.293155
     4  C   -0.068399
     5  H    0.188515
     6  C    0.612180
     7  C   -0.384129
     8  H    0.163233
     9  H    0.190576
    10  O   -0.550359
    11  C    0.607695
    12  N   -0.747689
    13  H    0.348901
    14  H    0.342815
    15  O   -0.514636
    16  N   -0.619523
    17  H    0.371091
    18  C   -0.048310
    19  H    0.182166
    20  C    0.627862
    21  C   -0.079113
    22  H    0.176382
    23  O   -0.545684
    24  C   -0.280842
    25  H    0.125564
    26  H    0.150994
    27  C   -0.468837
    28  H    0.130848
    29  H    0.153148
    30  H    0.160215
    31  C   -0.467618
    32  H    0.156962
    33  H    0.130960
    34  H    0.183926
    35  N   -0.607930
    36  H    0.355462
    37  C   -0.034877
    38  H    0.185949
    39  C    0.635966
    40  C   -0.480039
    41  H    0.157669
    42  H    0.181951
    43  H    0.177743
    44  O   -0.583942
    45  N   -0.591392
    46  H    0.391685
    47  C   -0.071227
    48  H    0.197071
    49  C    0.644243
    50  C    0.113957
    51  H    0.157639
    52  O   -0.524595
    53  C   -0.503526
    54  H    0.156186
    55  H    0.159547
    56  H    0.208827
    57  O   -0.629962
    58  H    0.415428
    59  N   -0.659770
    60  H    0.417232
    61  C   -0.054811
    62  H    0.239272
    63  C    0.638577
    64  C   -0.107281
    65  H    0.192080
    66  H    0.208839
    67  O   -0.579667
    68  O   -0.643527
    69  H    0.448593
    70  N   -0.549233
    71  H    0.435847
    72  C   -0.270213
    73  H    0.215127
    74  H    0.229134
    75  C    0.612919
    76  O   -0.462237
    77  N   -0.608018
    78  H    0.341137
    79  C   -0.024895
    80  H    0.207680
    81  C    0.604585
    82  C   -0.302886
    83  H    0.144950
    84  H    0.145203
    85  O   -0.440777
    86  C   -0.270843
    87  H    0.171639
    88  H    0.146071
    89  C   -0.248380
    90  H    0.124875
    91  H    0.141840
    92  C   -0.137274
    93  H    0.122572
    94  H    0.143695
    95  N   -0.718569
    96  H    0.304543
    97  H    0.294380
    98  O   -0.581563
    99  H    0.424195
   100  H    0.478696
 Sum of Mulliken charges =   1.00000

 Dipole moment (field-independent basis, Debye):
    X=             11.3974    Y=             12.3136    Z=            -12.0903  Tot=             20.6809
 Quadrupole moment (field-independent basis, Debye-Ang):
   XX=           -165.9954   YY=           -259.6664   ZZ=           -145.6928
   XY=             23.5413   XZ=           -107.1838   YZ=            -37.1666

 Normal termination of Gaussian 16 at Mon Jun  6 06:22:01 2022.
