 Gaussian 16, Revision C.01,
 Gaussian 16:  ES64L-G16RevC.01  3-Jul-2019

 ----------------------------------------------------------------------
 # B3LYP/6-31G* empiricaldispersion=gd3 guess=read geom=check nosymm in
 tegral(ultrafinegrid)
 ----------------------------------------------------------------------

 ------------------------------------------------------
 Candidate Structure: Conf:545 Charge calc in gas phase
 ------------------------------------------------------
 Structure from the checkpoint file:  "conf-545.chk"
 Charge =  1 Multiplicity = 1

                          Input orientation:
 ---------------------------------------------------------------------
 Center     Atomic      Atomic             Coordinates (Angstroms)
 Number     Number       Type             X           Y           Z
 ---------------------------------------------------------------------
      1          7           0       -4.429475    1.992166   -0.804837
      2          1           0       -4.149797    2.973479   -0.766738
      3          1           0       -5.387994    1.951821   -0.460989
      4          6           0       -3.537979    1.209697    0.070208
      5          1           0       -3.956274    0.198818    0.143285
      6          6           0       -3.381007    1.847114    1.464069
      7          6           0       -2.123300    1.152355   -0.524030
      8          1           0       -1.747156    2.179196   -0.555521
      9          1           0       -1.464710    0.600310    0.154597
     10          8           0       -2.692879    2.866438    1.594668
     11          6           0       -1.900872    0.583283   -1.913645
     12          7           0       -2.949371    0.550077   -2.743100
     13          1           0       -2.816401    0.221804   -3.691021
     14          1           0       -3.822075    0.996264   -2.447241
     15          8           0       -0.755139    0.221300   -2.245496
     16          7           0       -4.025377    1.246113    2.487038
     17          1           0       -4.493782    0.363468    2.323666
     18          6           0       -3.816044    1.635634    3.890354
     19          1           0       -3.461874    2.669270    3.860163
     20          6           0       -2.683518    0.721480    4.425365
     21          6           0       -5.107100    1.545737    4.718309
     22          1           0       -5.345218    0.479611    4.833096
     23          8           0       -2.884095   -0.198058    5.208624
     24          6           0       -6.294950    2.230689    4.006325
     25          1           0       -7.169022    2.144713    4.663690
     26          1           0       -6.547476    1.668382    3.097378
     27          6           0       -4.862923    2.114318    6.125599
     28          1           0       -4.543952    3.162633    6.088152
     29          1           0       -5.783338    2.067044    6.716787
     30          1           0       -4.096535    1.538799    6.650463
     31          6           0       -6.080608    3.703908    3.634140
     32          1           0       -6.983939    4.117207    3.172628
     33          1           0       -5.854810    4.316376    4.513373
     34          1           0       -5.257332    3.829595    2.920435
     35          7           0       -1.475417    0.975314    3.847268
     36          1           0       -1.335305    1.853514    3.358270
     37          6           0       -0.284068    0.177559    4.115674
     38          1           0       -0.064638    0.205003    5.193890
     39          6           0        0.869298    0.900679    3.404187
     40          6           0       -0.464850   -1.288371    3.692142
     41          1           0        0.384662   -1.903434    4.008620
     42          1           0       -1.354910   -1.687879    4.179145
     43          1           0       -0.583400   -1.372303    2.605807
     44          8           0        0.850877    2.134940    3.269500
     45          7           0        1.870684    0.138542    2.922714
     46          1           0        1.821848   -0.876131    2.918293
     47          6           0        3.051115    0.662430    2.240489
     48          1           0        3.417906    1.539800    2.785148
     49          6           0        2.664147    1.103062    0.819715
     50          6           0        4.117755   -0.464581    2.214096
     51          1           0        4.860124   -0.200043    1.450210
     52          8           0        3.050113    0.516215   -0.202167
     53          6           0        4.799449   -0.619870    3.567256
     54          1           0        5.341234    0.291272    3.841151
     55          1           0        5.506708   -1.451691    3.522369
     56          1           0        4.064339   -0.838703    4.348679
     57          8           0        3.497483   -1.708579    1.913161
     58          1           0        3.213026   -1.740163    0.979006
     59          7           0        1.838941    2.167621    0.721840
     60          1           0        1.420078    2.527502    1.589056
     61          6           0        1.211502    2.389410   -0.560306
     62          1           0        0.536907    1.561896   -0.808268
     63          6           0        2.273014    2.456174   -1.650786
     64          6           0        0.415795    3.696156   -0.595140
     65          1           0        1.088073    4.546095   -0.422186
     66          1           0       -0.357330    3.677491    0.185909
     67          8           0        3.272619    3.099791   -1.678886
     68          8           0       -0.152479    3.720322   -1.908570
     69          1           0       -0.561707    4.585797   -2.062336
     70          7           0        1.849777    1.672167   -2.913803
     71          1           0        1.534858    0.716513   -2.638092
     72          6           0        2.913077    1.562487   -3.991953
     73          1           0        2.451439    1.759681   -4.957500
     74          1           0        3.675327    2.313768   -3.773397
     75          6           0        3.450638    0.117356   -3.992198
     76          8           0        3.315326   -0.590203   -4.970589
     77          7           0        3.972125   -0.285929   -2.791076
     78          1           0        4.032630    0.389640   -2.037544
     79          6           0        3.791716   -1.665921   -2.326974
     80          1           0        3.745568   -2.287673   -3.226518
     81          6           0        2.408607   -1.756263   -1.655514
     82          6           0        4.953907   -2.105367   -1.429425
     83          1           0        5.866827   -1.927739   -2.009843
     84          1           0        4.997233   -1.438172   -0.560042
     85          8           0        2.138971   -2.260687   -0.587589
     86          6           0        4.919759   -3.569540   -0.958423
     87          1           0        5.862422   -3.762141   -0.429606
     88          1           0        4.121668   -3.704896   -0.222417
     89          6           0        4.752867   -4.589376   -2.090640
     90          1           0        5.497264   -4.396415   -2.878793
     91          1           0        3.766782   -4.492745   -2.562884
     92          6           0        4.890763   -6.035104   -1.607030
     93          1           0        5.885807   -6.164904   -1.140978
     94          1           0        4.151467   -6.217280   -0.816044
     95          7           0        4.610240   -6.966371   -2.703719
     96          1           0        4.625086   -7.924538   -2.358628
     97          1           0        5.352486   -6.908869   -3.400427
     98          8           0        1.469130   -1.160601   -2.431942
     99          1           0        0.581979   -1.158323   -2.008702
    100          1           0        0.997225    2.149982   -3.242647
 ---------------------------------------------------------------------

 SCF Done:  E(RB3LYP) =  -2418.56565358     A.U. after    3 cycles

 Alpha  occ. eigenvalues --  -19.31623 -19.30268 -19.29877 -19.26263 -19.25108
 Alpha  occ. eigenvalues --  -19.23729 -19.23563 -19.23516 -19.22738 -19.22563
 Alpha  occ. eigenvalues --  -19.20169 -14.57778 -14.48902 -14.47666 -14.47210
 Alpha  occ. eigenvalues --  -14.46636 -14.46243 -14.44931 -14.44385 -14.36246
 Alpha  occ. eigenvalues --  -10.47268 -10.42925 -10.42065 -10.41247 -10.40414
 Alpha  occ. eigenvalues --  -10.40357 -10.39470 -10.38031 -10.37865 -10.37187
 Alpha  occ. eigenvalues --  -10.36915 -10.34841 -10.34807 -10.34026 -10.33503
 Alpha  occ. eigenvalues --  -10.33424 -10.31802 -10.31146 -10.27243 -10.27209
 Alpha  occ. eigenvalues --  -10.26828 -10.26207 -10.26170 -10.25578 -10.25131
 Alpha  occ. eigenvalues --  -10.24466 -10.24237 -10.23926  -1.23448  -1.21177
 Alpha  occ. eigenvalues --   -1.17885  -1.16682  -1.15304  -1.14964  -1.14889
 Alpha  occ. eigenvalues --   -1.14332  -1.12522  -1.11975  -1.11438  -1.11227
 Alpha  occ. eigenvalues --   -1.06157  -1.03824  -1.03314  -1.03288  -1.02632
 Alpha  occ. eigenvalues --   -1.01008  -1.00646  -0.93092  -0.92278  -0.89465
 Alpha  occ. eigenvalues --   -0.89171  -0.88469  -0.87929  -0.86154  -0.85619
 Alpha  occ. eigenvalues --   -0.82606  -0.81978  -0.81256  -0.79203  -0.78973
 Alpha  occ. eigenvalues --   -0.77644  -0.76626  -0.75311  -0.74155  -0.72939
 Alpha  occ. eigenvalues --   -0.72315  -0.71628  -0.71425  -0.70318  -0.70061
 Alpha  occ. eigenvalues --   -0.69377  -0.69039  -0.68940  -0.67829  -0.67179
 Alpha  occ. eigenvalues --   -0.66916  -0.66409  -0.66001  -0.64947  -0.64467
 Alpha  occ. eigenvalues --   -0.64102  -0.63894  -0.63351  -0.63227  -0.61994
 Alpha  occ. eigenvalues --   -0.61892  -0.61025  -0.59885  -0.59670  -0.59159
 Alpha  occ. eigenvalues --   -0.58753  -0.58361  -0.58208  -0.57954  -0.57848
 Alpha  occ. eigenvalues --   -0.57213  -0.56855  -0.56633  -0.56501  -0.55862
 Alpha  occ. eigenvalues --   -0.55343  -0.54685  -0.54329  -0.54136  -0.53529
 Alpha  occ. eigenvalues --   -0.53362  -0.53118  -0.52850  -0.52595  -0.52368
 Alpha  occ. eigenvalues --   -0.52313  -0.51863  -0.51595  -0.51309  -0.50855
 Alpha  occ. eigenvalues --   -0.50592  -0.50448  -0.50260  -0.49992  -0.49356
 Alpha  occ. eigenvalues --   -0.48863  -0.48627  -0.48303  -0.48273  -0.47981
 Alpha  occ. eigenvalues --   -0.47570  -0.47498  -0.47348  -0.47218  -0.46840
 Alpha  occ. eigenvalues --   -0.46661  -0.46533  -0.45570  -0.45441  -0.45311
 Alpha  occ. eigenvalues --   -0.45136  -0.44081  -0.44020  -0.43642  -0.43541
 Alpha  occ. eigenvalues --   -0.42704  -0.42141  -0.41700  -0.40892  -0.40484
 Alpha  occ. eigenvalues --   -0.40468  -0.39834  -0.39798  -0.39744  -0.39588
 Alpha  occ. eigenvalues --   -0.39460  -0.39232  -0.38735  -0.38564  -0.37867
 Alpha  occ. eigenvalues --   -0.37724  -0.37315  -0.37159  -0.36453  -0.36241
 Alpha  occ. eigenvalues --   -0.35162  -0.35105  -0.34156  -0.32773  -0.28530
 Alpha virt. eigenvalues --   -0.17126  -0.12344  -0.11548  -0.10687  -0.09406
 Alpha virt. eigenvalues --   -0.08998  -0.08749  -0.07167  -0.05740  -0.04541
 Alpha virt. eigenvalues --   -0.03770  -0.02799  -0.01989  -0.01140  -0.00710

 Mulliken charges:
               1
     1  N   -0.736127
     2  H    0.328427
     3  H    0.334407
     4  C   -0.086929
     5  H    0.159783
     6  C    0.650303
     7  C   -0.386448
     8  H    0.206910
     9  H    0.175924
    10  O   -0.564549
    11  C    0.616390
    12  N   -0.730775
    13  H    0.354210
    14  H    0.397985
    15  O   -0.597665
    16  N   -0.606315
    17  H    0.341700
    18  C   -0.073223
    19  H    0.193032
    20  C    0.627226
    21  C   -0.092452
    22  H    0.149203
    23  O   -0.511753
    24  C   -0.251574
    25  H    0.153306
    26  H    0.112974
    27  C   -0.471202
    28  H    0.145639
    29  H    0.160221
    30  H    0.180111
    31  C   -0.465952
    32  H    0.153964
    33  H    0.161533
    34  H    0.145539
    35  N   -0.640749
    36  H    0.364114
    37  C    0.004084
    38  H    0.204532
    39  C    0.603946
    40  C   -0.493754
    41  H    0.166700
    42  H    0.218558
    43  H    0.144726
    44  O   -0.558880
    45  N   -0.617664
    46  H    0.378167
    47  C   -0.077219
    48  H    0.201493
    49  C    0.647371
    50  C    0.100221
    51  H    0.154335
    52  O   -0.572786
    53  C   -0.451087
    54  H    0.156984
    55  H    0.183928
    56  H    0.160185
    57  O   -0.667209
    58  H    0.456957
    59  N   -0.629233
    60  H    0.406024
    61  C   -0.051481
    62  H    0.207938
    63  C    0.595617
    64  C   -0.092096
    65  H    0.191333
    66  H    0.204115
    67  O   -0.376739
    68  O   -0.648563
    69  H    0.431015
    70  N   -0.739153
    71  H    0.482137
    72  C   -0.255079
    73  H    0.228468
    74  H    0.245607
    75  C    0.583947
    76  O   -0.452436
    77  N   -0.604475
    78  H    0.360435
    79  C   -0.067212
    80  H    0.230719
    81  C    0.645747
    82  C   -0.294988
    83  H    0.166585
    84  H    0.146457
    85  O   -0.478407
    86  C   -0.275048
    87  H    0.145416
    88  H    0.164536
    89  C   -0.260289
    90  H    0.131528
    91  H    0.144932
    92  C   -0.135445
    93  H    0.118767
    94  H    0.143286
    95  N   -0.717557
    96  H    0.303676
    97  H    0.296490
    98  O   -0.603944
    99  H    0.442641
   100  H    0.423954
 Sum of Mulliken charges =   1.00000

 Dipole moment (field-independent basis, Debye):
    X=             -0.9735    Y=              8.1030    Z=             -3.1100  Tot=              8.7338
 Quadrupole moment (field-independent basis, Debye-Ang):
   XX=           -200.7469   YY=           -244.3072   ZZ=           -263.3219
   XY=            -23.3748   XZ=              1.4464   YZ=            -16.7203

 Normal termination of Gaussian 16 at Mon Jun  6 06:22:51 2022.
