 Gaussian 16, Revision C.01,
 Gaussian 16:  ES64L-G16RevC.01  3-Jul-2019

 ----------------------------------------------------------------------
 # B3LYP/6-31G* empiricaldispersion=gd3 guess=read geom=check nosymm in
 tegral(ultrafinegrid)
 ----------------------------------------------------------------------

 -----------------------------------------------------
 Candidate Structure: Conf:84 Charge calc in gas phase
 -----------------------------------------------------
 Structure from the checkpoint file:  "conf-84.chk"
 Charge =  1 Multiplicity = 1

                          Input orientation:
 ---------------------------------------------------------------------
 Center     Atomic      Atomic             Coordinates (Angstroms)
 Number     Number       Type             X           Y           Z
 ---------------------------------------------------------------------
      1          7           0       -9.228388    1.209853    2.173242
      2          1           0       -9.985478    1.500503    1.557725
      3          1           0       -9.193293    1.867085    2.951819
      4          6           0       -7.955121    1.255658    1.471926
      5          1           0       -7.921073    0.435885    0.745386
      6          6           0       -6.829799    1.101612    2.497416
      7          6           0       -7.671212    2.593660    0.706008
      8          1           0       -8.306215    2.635843   -0.183182
      9          1           0       -7.933380    3.422324    1.371780
     10          8           0       -6.758813    1.863345    3.464925
     11          6           0       -6.213877    2.687820    0.266140
     12          7           0       -5.404390    3.398067    1.117769
     13          1           0       -4.409778    3.254062    1.000049
     14          1           0       -5.720135    3.548234    2.068608
     15          8           0       -5.792223    2.138683   -0.746105
     16          7           0       -5.886317    0.177854    2.191318
     17          1           0       -5.972026   -0.336304    1.321752
     18          6           0       -4.541024    0.190886    2.758323
     19          1           0       -4.467155    1.086786    3.381229
     20          6           0       -3.607386    0.272275    1.543688
     21          6           0       -4.223695   -1.067864    3.599843
     22          1           0       -4.304253   -1.920477    2.911428
     23          8           0       -3.720243   -0.523463    0.616524
     24          6           0       -5.248670   -1.284534    4.732096
     25          1           0       -5.015087   -2.248920    5.203062
     26          1           0       -6.243442   -1.394057    4.284360
     27          6           0       -2.776537   -1.011566    4.115636
     28          1           0       -2.594101   -0.109268    4.711770
     29          1           0       -2.564151   -1.876363    4.753103
     30          1           0       -2.052549   -1.020322    3.292725
     31          6           0       -5.301363   -0.189496    5.805610
     32          1           0       -6.020624   -0.463903    6.584946
     33          1           0       -4.330794   -0.046665    6.294990
     34          1           0       -5.627702    0.766208    5.383803
     35          7           0       -2.692231    1.283823    1.533288
     36          1           0       -2.495064    1.821626    2.368662
     37          6           0       -1.764569    1.418606    0.423708
     38          1           0       -1.649256    0.424537   -0.023149
     39          6           0       -0.427942    1.909104    0.971076
     40          6           0       -2.298631    2.385940   -0.652679
     41          1           0       -1.657686    2.379161   -1.541291
     42          1           0       -3.312466    2.087438   -0.937859
     43          1           0       -2.331278    3.410061   -0.262261
     44          8           0       -0.346833    2.501192    2.052859
     45          7           0        0.641317    1.701723    0.164642
     46          1           0        0.552674    1.107386   -0.651221
     47          6           0        1.975361    2.205509    0.456787
     48          1           0        1.913683    3.273783    0.696451
     49          6           0        2.800824    1.996511   -0.800199
     50          6           0        2.620990    1.514693    1.730899
     51          1           0        2.204697    0.493576    1.744103
     52          8           0        2.615883    1.039301   -1.559219
     53          6           0        4.144516    1.423169    1.713235
     54          1           0        4.512853    0.815567    0.879604
     55          1           0        4.468933    0.962911    2.649823
     56          1           0        4.600305    2.418795    1.667489
     57          8           0        2.283504    2.242663    2.881600
     58          1           0        1.312283    2.380317    2.872651
     59          7           0        3.784329    2.911354   -1.035868
     60          1           0        4.009850    3.582077   -0.311558
     61          6           0        4.697648    2.763850   -2.164091
     62          1           0        4.104863    2.419556   -3.018005
     63          6           0        5.795254    1.718866   -1.860160
     64          6           0        5.314118    4.122717   -2.491183
     65          1           0        5.995651    4.433087   -1.691234
     66          1           0        4.510465    4.856822   -2.605175
     67          8           0        6.971810    2.064497   -1.679081
     68          8           0        6.035194    4.007720   -3.734333
     69          1           0        6.295450    4.888767   -4.046790
     70          7           0        5.389290    0.433216   -1.813342
     71          1           0        4.381900    0.267638   -1.859672
     72          6           0        6.295119   -0.642666   -1.399933
     73          1           0        6.708691   -0.448994   -0.407156
     74          1           0        5.716300   -1.570022   -1.365937
     75          6           0        7.503785   -0.805816   -2.338178
     76          8           0        8.625907   -0.993307   -1.923988
     77          7           0        7.212099   -0.700283   -3.697935
     78          1           0        6.252623   -0.478959   -3.944245
     79          6           0        8.223190   -0.206935   -4.646494
     80          1           0        9.198300   -0.567422   -4.316784
     81          6           0        8.098221    1.257155   -4.286332
     82          6           0        7.929997   -0.546466   -6.101325
     83          1           0        7.967426   -1.637257   -6.197634
     84          1           0        6.907747   -0.234512   -6.352325
     85          8           0        7.081771    1.892034   -4.750246
     86          6           0        8.930139    0.129345   -7.047165
     87          1           0        8.881079    1.220509   -6.936928
     88          1           0        9.952082   -0.170897   -6.775626
     89          6           0        8.678722   -0.203667   -8.521741
     90          1           0        7.623690   -0.009679   -8.767417
     91          1           0        8.847935   -1.273353   -8.701564
     92          6           0        9.569096    0.618094   -9.462342
     93          1           0       10.620395    0.464332   -9.187805
     94          1           0        9.452954    0.237319  -10.490556
     95          7           0        9.274291    2.052617   -9.322074
     96          1           0        8.395549    2.263427   -9.794766
     97          1           0        9.985392    2.599668   -9.803942
     98          8           0        8.878201    1.718862   -3.370414
     99          1           0        8.386383    2.300855   -2.726737
    100          1           0        6.818296    2.768493   -4.295841
 ---------------------------------------------------------------------

 SCF Done:  E(RB3LYP) =  -2418.51855962     A.U. after    1 cycles

 Alpha  occ. eigenvalues --  -19.37801 -19.37557 -19.34117 -19.28221 -19.26499
 Alpha  occ. eigenvalues --  -19.25224 -19.22368 -19.21544 -19.17958 -19.16818
 Alpha  occ. eigenvalues --  -19.16111 -14.51436 -14.51310 -14.50625 -14.46758
 Alpha  occ. eigenvalues --  -14.43118 -14.41453 -14.39871 -14.39346 -14.35985
 Alpha  occ. eigenvalues --  -10.52422 -10.44762 -10.43289 -10.42480 -10.40103
 Alpha  occ. eigenvalues --  -10.39201 -10.39036 -10.38588 -10.36562 -10.35063
 Alpha  occ. eigenvalues --  -10.34880 -10.34088 -10.33757 -10.33544 -10.31474
 Alpha  occ. eigenvalues --  -10.30991 -10.28808 -10.28586 -10.28364 -10.27802
 Alpha  occ. eigenvalues --  -10.27674 -10.27096 -10.25243 -10.24161 -10.24102
 Alpha  occ. eigenvalues --  -10.22782 -10.21918 -10.20366  -1.31458  -1.23397
 Alpha  occ. eigenvalues --   -1.20604  -1.19452  -1.18335  -1.17309  -1.14210
 Alpha  occ. eigenvalues --   -1.10266  -1.09862  -1.08623  -1.08175  -1.07583
 Alpha  occ. eigenvalues --   -1.07568  -1.06577  -1.03214  -0.99535  -0.97966
 Alpha  occ. eigenvalues --   -0.96043  -0.94856  -0.93834  -0.93448  -0.92670
 Alpha  occ. eigenvalues --   -0.88274  -0.87821  -0.86965  -0.86130  -0.84432
 Alpha  occ. eigenvalues --   -0.82774  -0.81988  -0.80675  -0.80105  -0.78962
 Alpha  occ. eigenvalues --   -0.77991  -0.77526  -0.75671  -0.74852  -0.73376
 Alpha  occ. eigenvalues --   -0.73004  -0.72663  -0.71304  -0.71006  -0.70086
 Alpha  occ. eigenvalues --   -0.69623  -0.68677  -0.68044  -0.67881  -0.67687
 Alpha  occ. eigenvalues --   -0.66766  -0.66033  -0.65811  -0.65116  -0.64223
 Alpha  occ. eigenvalues --   -0.64014  -0.63056  -0.62724  -0.62133  -0.61637
 Alpha  occ. eigenvalues --   -0.60494  -0.60092  -0.60042  -0.59275  -0.58824
 Alpha  occ. eigenvalues --   -0.58634  -0.58088  -0.57858  -0.57339  -0.56909
 Alpha  occ. eigenvalues --   -0.56691  -0.55988  -0.55649  -0.55166  -0.54917
 Alpha  occ. eigenvalues --   -0.54606  -0.54369  -0.54119  -0.53830  -0.53384
 Alpha  occ. eigenvalues --   -0.53013  -0.52912  -0.52851  -0.52342  -0.52174
 Alpha  occ. eigenvalues --   -0.51836  -0.51504  -0.51184  -0.51012  -0.50533
 Alpha  occ. eigenvalues --   -0.50279  -0.50262  -0.49944  -0.49300  -0.48930
 Alpha  occ. eigenvalues --   -0.48400  -0.48234  -0.47678  -0.47396  -0.46470
 Alpha  occ. eigenvalues --   -0.46173  -0.45940  -0.45881  -0.45830  -0.45397
 Alpha  occ. eigenvalues --   -0.45064  -0.44663  -0.44432  -0.44226  -0.43737
 Alpha  occ. eigenvalues --   -0.43473  -0.43297  -0.42926  -0.42741  -0.42596
 Alpha  occ. eigenvalues --   -0.42363  -0.42235  -0.42206  -0.42153  -0.41370
 Alpha  occ. eigenvalues --   -0.41023  -0.40548  -0.40236  -0.39855  -0.39738
 Alpha  occ. eigenvalues --   -0.38079  -0.36811  -0.36652  -0.36567  -0.36370
 Alpha  occ. eigenvalues --   -0.35900  -0.34391  -0.33098  -0.32446  -0.31707
 Alpha  occ. eigenvalues --   -0.31612  -0.31069  -0.30129  -0.29641  -0.27630
 Alpha virt. eigenvalues --   -0.19865  -0.14937  -0.12415  -0.11216  -0.09649
 Alpha virt. eigenvalues --   -0.07755  -0.05700  -0.04997  -0.04838  -0.02979
 Alpha virt. eigenvalues --   -0.02247  -0.02130  -0.01959  -0.01492  -0.01284

 Mulliken charges:
               1
     1  N   -0.708548
     2  H    0.304988
     3  H    0.317806
     4  C   -0.044173
     5  H    0.154141
     6  C    0.606597
     7  C   -0.356680
     8  H    0.175022
     9  H    0.157491
    10  O   -0.548640
    11  C    0.550665
    12  N   -0.744521
    13  H    0.340977
    14  H    0.351920
    15  O   -0.509809
    16  N   -0.586495
    17  H    0.356874
    18  C   -0.045793
    19  H    0.162751
    20  C    0.624871
    21  C   -0.074119
    22  H    0.144580
    23  O   -0.531090
    24  C   -0.259463
    25  H    0.135630
    26  H    0.152915
    27  C   -0.470904
    28  H    0.146426
    29  H    0.159497
    30  H    0.140528
    31  C   -0.475297
    32  H    0.151119
    33  H    0.135264
    34  H    0.182724
    35  N   -0.625974
    36  H    0.352126
    37  C   -0.050498
    38  H    0.189320
    39  C    0.635309
    40  C   -0.472531
    41  H    0.140397
    42  H    0.238094
    43  H    0.152759
    44  O   -0.552846
    45  N   -0.630669
    46  H    0.361933
    47  C   -0.051302
    48  H    0.184597
    49  C    0.606704
    50  C    0.168985
    51  H    0.140408
    52  O   -0.550556
    53  C   -0.475278
    54  H    0.128721
    55  H    0.200098
    56  H    0.141204
    57  O   -0.639321
    58  H    0.437630
    59  N   -0.606947
    60  H    0.360262
    61  C   -0.079047
    62  H    0.214829
    63  C    0.629353
    64  C   -0.051603
    65  H    0.187293
    66  H    0.191766
    67  O   -0.576949
    68  O   -0.667927
    69  H    0.449608
    70  N   -0.622939
    71  H    0.398776
    72  C   -0.235842
    73  H    0.229984
    74  H    0.214756
    75  C    0.597975
    76  O   -0.440259
    77  N   -0.595239
    78  H    0.345479
    79  C   -0.023336
    80  H    0.239079
    81  C    0.624510
    82  C   -0.281343
    83  H    0.185205
    84  H    0.153437
    85  O   -0.530036
    86  C   -0.278833
    87  H    0.166080
    88  H    0.149813
    89  C   -0.256188
    90  H    0.133292
    91  H    0.149332
    92  C   -0.148904
    93  H    0.149545
    94  H    0.139928
    95  N   -0.726285
    96  H    0.299227
    97  H    0.312072
    98  O   -0.487033
    99  H    0.477332
   100  H    0.483217
 Sum of Mulliken charges =   1.00000

 Dipole moment (field-independent basis, Debye):
    X=             28.7033    Y=             11.6136    Z=            -18.7219  Tot=             36.1838
 Quadrupole moment (field-independent basis, Debye-Ang):
   XX=            -86.6257   YY=           -228.7034   ZZ=           -178.2276
   XY=             53.7298   XZ=           -149.8878   YZ=            -37.3989

 Normal termination of Gaussian 16 at Mon Jun  6 06:21:51 2022.
