 Gaussian 16, Revision C.01,
 Gaussian 16:  ES64L-G16RevC.01  3-Jul-2019

 ----------------------------------------------------------------------
 # B3LYP/6-31G* empiricaldispersion=gd3 guess=read geom=check nosymm in
 tegral(ultrafinegrid)
 ----------------------------------------------------------------------

 ------------------------------------------------------
 Candidate Structure: Conf:962 Charge calc in gas phase
 ------------------------------------------------------
 Structure from the checkpoint file:  "conf-962.chk"
 Charge =  1 Multiplicity = 1

                          Input orientation:
 ---------------------------------------------------------------------
 Center     Atomic      Atomic             Coordinates (Angstroms)
 Number     Number       Type             X           Y           Z
 ---------------------------------------------------------------------
      1          7           0       -5.449564   -1.095340    4.145970
      2          1           0       -6.051984   -1.862947    4.441137
      3          1           0       -4.628942   -1.133629    4.752096
      4          6           0       -6.184835    0.150431    4.403455
      5          1           0       -7.172233    0.020726    3.941127
      6          6           0       -5.529540    1.323203    3.659064
      7          6           0       -6.407404    0.502016    5.879783
      8          1           0       -5.444242    0.533250    6.409214
      9          1           0       -6.830393    1.509969    5.957258
     10          8           0       -5.669681    2.499386    3.986374
     11          6           0       -7.318073   -0.520272    6.561053
     12          7           0       -7.687054   -0.206192    7.833536
     13          1           0       -8.330194   -0.824566    8.309014
     14          1           0       -7.501806    0.698235    8.241151
     15          8           0       -7.673950   -1.559851    6.014030
     16          7           0       -4.810983    0.942124    2.566900
     17          1           0       -4.707045   -0.054901    2.398422
     18          6           0       -4.178494    1.924313    1.719752
     19          1           0       -4.848649    2.788299    1.667229
     20          6           0       -3.974394    1.313424    0.343381
     21          6           0       -2.813371    2.416985    2.312199
     22          1           0       -3.092280    2.796444    3.302988
     23          8           0       -3.641446    0.135893    0.189541
     24          6           0       -2.178133    3.579419    1.525101
     25          1           0       -1.906698    3.243441    0.511197
     26          1           0       -1.229517    3.830129    2.017585
     27          6           0       -1.818967    1.264462    2.500033
     28          1           0       -1.480155    0.869406    1.533193
     29          1           0       -0.938350    1.605152    3.054992
     30          1           0       -2.270536    0.436732    3.054866
     31          6           0       -3.030071    4.852505    1.443038
     32          1           0       -2.468616    5.671110    0.981232
     33          1           0       -3.947334    4.719237    0.855720
     34          1           0       -3.342231    5.176185    2.441625
     35          7           0       -4.100864    2.160859   -0.721673
     36          1           0       -4.321485    3.135951   -0.564838
     37          6           0       -3.778716    1.737281   -2.083434
     38          1           0       -4.135193    0.709269   -2.198755
     39          6           0       -2.249183    1.718931   -2.163905
     40          6           0       -4.426459    2.647262   -3.120616
     41          1           0       -4.173318    2.315003   -4.131151
     42          1           0       -5.512669    2.607383   -3.005023
     43          1           0       -4.089047    3.681673   -3.009361
     44          8           0       -1.699449    2.818771   -2.566148
     45          7           0       -1.642098    0.650384   -1.714702
     46          1           0       -2.254847   -0.091264   -1.342345
     47          6           0       -0.259781    0.463435   -1.266006
     48          1           0       -0.145090    1.020988   -0.326192
     49          6           0        0.735278    0.937396   -2.323346
     50          6           0       -0.078622   -1.066618   -0.982973
     51          1           0        0.056332   -1.552388   -1.954098
     52          8           0        0.615390    0.593773   -3.492277
     53          6           0        1.122834   -1.320605   -0.081534
     54          1           0        2.043585   -0.928897   -0.527957
     55          1           0        1.247196   -2.395198    0.071967
     56          1           0        0.984783   -0.843940    0.897714
     57          8           0       -1.284574   -1.607807   -0.474689
     58          1           0       -1.415847   -1.350093    0.454500
     59          7           0        1.731915    1.747923   -1.862834
     60          1           0        1.673990    2.101536   -0.915269
     61          6           0        2.562135    2.500670   -2.800606
     62          1           0        2.751078    1.833759   -3.650371
     63          6           0        3.917481    2.902700   -2.201400
     64          6           0        1.811996    3.750138   -3.297334
     65          1           0        2.381818    4.243351   -4.087954
     66          1           0        1.668413    4.466049   -2.484769
     67          8           0        4.455464    3.947003   -2.557778
     68          8           0        0.491971    3.412159   -3.761493
     69          1           0        0.568816    2.745083   -4.467112
     70          7           0        4.435303    2.053152   -1.279492
     71          1           0        4.036731    1.125428   -1.207147
     72          6           0        5.780848    2.251851   -0.733883
     73          1           0        5.914555    3.323216   -0.562366
     74          1           0        5.856255    1.719255    0.214515
     75          6           0        6.870573    1.697468   -1.669759
     76          8           0        7.478097    0.669556   -1.404843
     77          7           0        7.052672    2.409367   -2.813459
     78          1           0        6.599294    3.310572   -2.907890
     79          6           0        8.089435    2.033767   -3.763409
     80          1           0        7.948507    0.986499   -4.047066
     81          6           0        9.495547    2.104093   -3.163980
     82          6           0        7.998525    2.936143   -5.010366
     83          1           0        6.949003    2.942468   -5.336763
     84          1           0        8.244293    3.964050   -4.714145
     85          8           0       10.419335    1.420376   -3.535815
     86          6           0        8.888108    2.476952   -6.174270
     87          1           0        9.935786    2.447979   -5.853321
     88          1           0        8.623223    1.441696   -6.425889
     89          6           0        8.756675    3.350629   -7.430575
     90          1           0        7.696654    3.422443   -7.721517
     91          1           0        9.272725    2.865380   -8.266751
     92          6           0        9.338271    4.760544   -7.283660
     93          1           0        8.830797    5.294823   -6.458272
     94          1           0       10.394608    4.678033   -6.996024
     95          7           0        9.279119    5.465786   -8.568151
     96          1           0        9.728824    6.376157   -8.488696
     97          1           0        8.307285    5.651512   -8.814005
     98          8           0        9.610689    3.075313   -2.227291
     99          1           0       10.540755    3.057796   -1.931840
    100          1           0       -0.721704    2.892436   -2.851411
 ---------------------------------------------------------------------

 SCF Done:  E(RB3LYP) =  -2418.53299519     A.U. after    1 cycles

 Alpha  occ. eigenvalues --  -19.35392 -19.31288 -19.28283 -19.26714 -19.25449
 Alpha  occ. eigenvalues --  -19.24965 -19.23851 -19.19453 -19.19152 -19.18846
 Alpha  occ. eigenvalues --  -19.17882 -14.54176 -14.51660 -14.50085 -14.48471
 Alpha  occ. eigenvalues --  -14.43457 -14.43278 -14.42055 -14.39082 -14.35538
 Alpha  occ. eigenvalues --  -10.48221 -10.44193 -10.41652 -10.41383 -10.39151
 Alpha  occ. eigenvalues --  -10.38593 -10.38112 -10.37608 -10.37250 -10.37169
 Alpha  occ. eigenvalues --  -10.36416 -10.35811 -10.35598 -10.33436 -10.32388
 Alpha  occ. eigenvalues --  -10.31055 -10.30663 -10.30354 -10.29693 -10.29585
 Alpha  occ. eigenvalues --  -10.29200 -10.28170 -10.27695 -10.26282 -10.25970
 Alpha  occ. eigenvalues --  -10.25321 -10.23785 -10.22911  -1.25600  -1.19328
 Alpha  occ. eigenvalues --   -1.17520  -1.16993  -1.16217  -1.16070  -1.15848
 Alpha  occ. eigenvalues --   -1.11248  -1.11076  -1.10812  -1.09606  -1.07892
 Alpha  occ. eigenvalues --   -1.07210  -1.06322  -1.04013  -1.00868  -0.99929
 Alpha  occ. eigenvalues --   -0.96769  -0.96206  -0.94705  -0.92306  -0.91722
 Alpha  occ. eigenvalues --   -0.90522  -0.89684  -0.86814  -0.85736  -0.84067
 Alpha  occ. eigenvalues --   -0.83662  -0.82708  -0.81891  -0.81653  -0.80417
 Alpha  occ. eigenvalues --   -0.78237  -0.77278  -0.75958  -0.74621  -0.74226
 Alpha  occ. eigenvalues --   -0.74042  -0.73382  -0.73275  -0.71757  -0.70871
 Alpha  occ. eigenvalues --   -0.69475  -0.68902  -0.68565  -0.67090  -0.66782
 Alpha  occ. eigenvalues --   -0.66056  -0.65906  -0.65244  -0.64728  -0.64336
 Alpha  occ. eigenvalues --   -0.63546  -0.63034  -0.62319  -0.61759  -0.61285
 Alpha  occ. eigenvalues --   -0.60620  -0.60381  -0.59892  -0.59282  -0.58661
 Alpha  occ. eigenvalues --   -0.58133  -0.57716  -0.57596  -0.57495  -0.56633
 Alpha  occ. eigenvalues --   -0.56521  -0.56079  -0.55565  -0.55218  -0.54793
 Alpha  occ. eigenvalues --   -0.54707  -0.54093  -0.53522  -0.53282  -0.53039
 Alpha  occ. eigenvalues --   -0.53004  -0.52844  -0.52705  -0.52487  -0.52307
 Alpha  occ. eigenvalues --   -0.51998  -0.51705  -0.51466  -0.51322  -0.50910
 Alpha  occ. eigenvalues --   -0.50793  -0.50197  -0.50001  -0.49945  -0.49837
 Alpha  occ. eigenvalues --   -0.49742  -0.49332  -0.49041  -0.48659  -0.48433
 Alpha  occ. eigenvalues --   -0.47707  -0.47700  -0.47196  -0.47037  -0.46908
 Alpha  occ. eigenvalues --   -0.46617  -0.46075  -0.45994  -0.45657  -0.45080
 Alpha  occ. eigenvalues --   -0.44987  -0.44609  -0.44190  -0.44176  -0.43812
 Alpha  occ. eigenvalues --   -0.42957  -0.42928  -0.42815  -0.41528  -0.41458
 Alpha  occ. eigenvalues --   -0.41155  -0.40988  -0.40035  -0.39595  -0.39327
 Alpha  occ. eigenvalues --   -0.38759  -0.38356  -0.38202  -0.38104  -0.37201
 Alpha  occ. eigenvalues --   -0.36992  -0.34939  -0.33978  -0.33276  -0.33071
 Alpha  occ. eigenvalues --   -0.32351  -0.31969  -0.31595  -0.30852  -0.27678
 Alpha virt. eigenvalues --   -0.17522  -0.14310  -0.10906  -0.10702  -0.07741
 Alpha virt. eigenvalues --   -0.06113  -0.05634  -0.05411  -0.05167  -0.04882
 Alpha virt. eigenvalues --   -0.04589  -0.04199  -0.03568  -0.02376  -0.01415

 Mulliken charges:
               1
     1  N   -0.754477
     2  H    0.348318
     3  H    0.296192
     4  C   -0.069732
     5  H    0.194391
     6  C    0.612075
     7  C   -0.385338
     8  H    0.163658
     9  H    0.193391
    10  O   -0.543174
    11  C    0.609684
    12  N   -0.747587
    13  H    0.352571
    14  H    0.344500
    15  O   -0.512580
    16  N   -0.622309
    17  H    0.371220
    18  C   -0.029079
    19  H    0.181644
    20  C    0.630949
    21  C   -0.084550
    22  H    0.184590
    23  O   -0.551152
    24  C   -0.274764
    25  H    0.096603
    26  H    0.151347
    27  C   -0.470967
    28  H    0.108148
    29  H    0.158844
    30  H    0.171066
    31  C   -0.458267
    32  H    0.161430
    33  H    0.129765
    34  H    0.187235
    35  N   -0.609677
    36  H    0.362107
    37  C   -0.058145
    38  H    0.219282
    39  C    0.654436
    40  C   -0.476318
    41  H    0.190195
    42  H    0.198546
    43  H    0.185661
    44  O   -0.590968
    45  N   -0.575247
    46  H    0.437550
    47  C   -0.078772
    48  H    0.174212
    49  C    0.595219
    50  C    0.118529
    51  H    0.201126
    52  O   -0.508984
    53  C   -0.485626
    54  H    0.158748
    55  H    0.210571
    56  H    0.155711
    57  O   -0.612762
    58  H    0.422760
    59  N   -0.618607
    60  H    0.347644
    61  C   -0.116163
    62  H    0.222481
    63  C    0.622679
    64  C   -0.031100
    65  H    0.209830
    66  H    0.183087
    67  O   -0.521774
    68  O   -0.644447
    69  H    0.438652
    70  N   -0.593062
    71  H    0.349693
    72  C   -0.248948
    73  H    0.204426
    74  H    0.194021
    75  C    0.606621
    76  O   -0.496474
    77  N   -0.621319
    78  H    0.358426
    79  C    0.002737
    80  H    0.189311
    81  C    0.602706
    82  C   -0.314274
    83  H    0.140879
    84  H    0.158502
    85  O   -0.452983
    86  C   -0.272479
    87  H    0.168881
    88  H    0.142925
    89  C   -0.251944
    90  H    0.115318
    91  H    0.163309
    92  C   -0.137202
    93  H    0.107319
    94  H    0.146514
    95  N   -0.712147
    96  H    0.300811
    97  H    0.290551
    98  O   -0.573528
    99  H    0.418600
   100  H    0.488731
 Sum of Mulliken charges =   1.00000

 Dipole moment (field-independent basis, Debye):
    X=             -5.6531    Y=             12.9331    Z=             -1.0332  Tot=             14.1524
 Quadrupole moment (field-independent basis, Debye-Ang):
   XX=           -254.4649   YY=           -249.5696   ZZ=           -211.4079
   XY=             11.0890   XZ=            -15.5719   YZ=            -24.4703

 Normal termination of Gaussian 16 at Mon Jun  6 06:22:01 2022.
