 Gaussian 16, Revision C.01,
 Gaussian 16:  ES64L-G16RevC.01  3-Jul-2019

 ----------------------------------------------------------------------
 # B3LYP/6-31G* empiricaldispersion=gd3 guess=read geom=check nosymm in
 tegral(ultrafinegrid)
 ----------------------------------------------------------------------

 ------------------------------------------------------
 Candidate Structure: Conf:727 Charge calc in gas phase
 ------------------------------------------------------
 Structure from the checkpoint file:  "conf-727.chk"
 Charge =  1 Multiplicity = 1

                          Input orientation:
 ---------------------------------------------------------------------
 Center     Atomic      Atomic             Coordinates (Angstroms)
 Number     Number       Type             X           Y           Z
 ---------------------------------------------------------------------
      1          7           0       -7.805844    1.397637    0.465029
      2          1           0       -7.357015    1.932989   -0.279590
      3          1           0       -8.153135    2.091056    1.126293
      4          6           0       -6.786159    0.581335    1.105547
      5          1           0       -7.188021    0.210865    2.056342
      6          6           0       -5.470518    1.342702    1.361253
      7          6           0       -6.472638   -0.629081    0.183980
      8          1           0       -7.415630   -1.155509   -0.000747
      9          1           0       -6.093658   -0.262905   -0.773749
     10          8           0       -5.102388    2.232485    0.589401
     11          6           0       -5.424197   -1.574352    0.753212
     12          7           0       -5.777605   -2.205901    1.920899
     13          1           0       -5.152039   -2.932732    2.247048
     14          1           0       -6.754491   -2.316251    2.160573
     15          8           0       -4.309632   -1.710385    0.260661
     16          7           0       -4.742121    0.940586    2.435494
     17          1           0       -5.022904    0.088784    2.908858
     18          6           0       -3.362200    1.394562    2.662274
     19          1           0       -3.337989    2.458117    2.402992
     20          6           0       -2.490628    0.589869    1.673050
     21          6           0       -2.930507    1.206172    4.125555
     22          1           0       -2.957512    0.126583    4.334173
     23          8           0       -1.955375   -0.471851    1.981472
     24          6           0       -3.896646    1.929992    5.084771
     25          1           0       -4.928845    1.650353    4.840857
     26          1           0       -3.828318    3.012766    4.905894
     27          6           0       -1.480393    1.684631    4.299046
     28          1           0       -1.397739    2.758231    4.085213
     29          1           0       -1.135616    1.522460    5.323779
     30          1           0       -0.803365    1.141356    3.634344
     31          6           0       -3.642555    1.632464    6.566817
     32          1           0       -4.405967    2.106888    7.192385
     33          1           0       -3.673366    0.553423    6.763046
     34          1           0       -2.668815    2.004127    6.901603
     35          7           0       -2.442850    1.127298    0.420999
     36          1           0       -3.097209    1.884506    0.235520
     37          6           0       -2.034616    0.322359   -0.731876
     38          1           0       -2.388647   -0.697084   -0.574768
     39          6           0       -0.512759    0.303187   -0.809359
     40          6           0       -2.646373    0.890036   -2.010008
     41          1           0       -2.375913    0.268538   -2.868940
     42          1           0       -3.736205    0.900782   -1.916163
     43          1           0       -2.289084    1.907092   -2.195322
     44          8           0        0.147142    1.219464   -1.376403
     45          7           0        0.147611   -0.720119   -0.268653
     46          1           0       -0.351821   -1.629705   -0.002736
     47          6           0        1.582587   -0.557034   -0.354507
     48          1           0        1.896172    0.222140    0.356748
     49          6           0        1.819158   -0.016856   -1.755398
     50          6           0        2.407544   -1.838235   -0.033888
     51          1           0        3.461694   -1.585606   -0.222792
     52          8           0        1.618856   -0.579359   -2.800142
     53          6           0        2.233366   -2.210783    1.437234
     54          1           0        2.550668   -1.396216    2.096141
     55          1           0        2.837107   -3.095666    1.653048
     56          1           0        1.186675   -2.443986    1.652631
     57          8           0        2.009561   -2.952052   -0.801470
     58          1           0        2.412030   -2.930212   -1.688477
     59          7           0        2.819396    1.193935   -1.818424
     60          1           0        3.496708    1.100035   -1.049183
     61          6           0        3.605897    1.192376   -3.093476
     62          1           0        2.879122    1.187135   -3.907794
     63          6           0        4.420655   -0.108933   -3.008364
     64          6           0        4.467322    2.466789   -3.111655
     65          1           0        4.965967    2.556174   -4.084153
     66          1           0        5.242555    2.389627   -2.342045
     67          8           0        4.918407   -0.395529   -1.918518
     68          8           0        3.660447    3.589343   -2.791076
     69          1           0        3.312702    3.985749   -3.604751
     70          7           0        4.486157   -0.872370   -4.115200
     71          1           0        3.945960   -0.603735   -4.929424
     72          6           0        5.042314   -2.221977   -4.096087
     73          1           0        5.772833   -2.346084   -4.898331
     74          1           0        5.559538   -2.352796   -3.142334
     75          6           0        4.001169   -3.341875   -4.274194
     76          8           0        4.359733   -4.416924   -4.717450
     77          7           0        2.706016   -3.064812   -3.878976
     78          1           0        2.470036   -2.089037   -3.742639
     79          6           0        1.621652   -3.884362   -4.438212
     80          1           0        2.129437   -4.695952   -4.974087
     81          6           0        0.839199   -3.121519   -5.503286
     82          6           0        0.695427   -4.541144   -3.397992
     83          1           0        0.162452   -5.348356   -3.913343
     84          1           0        1.349047   -5.015799   -2.656518
     85          8           0       -0.241765   -3.454534   -5.923487
     86          6           0       -0.334981   -3.648888   -2.689647
     87          1           0        0.153152   -2.796880   -2.212695
     88          1           0       -1.043959   -3.254469   -3.427902
     89          6           0       -1.097215   -4.470707   -1.639212
     90          1           0       -0.375092   -4.976762   -0.981987
     91          1           0       -1.651917   -5.267646   -2.152203
     92          6           0       -2.081755   -3.682016   -0.770393
     93          1           0       -2.633644   -2.953937   -1.374665
     94          1           0       -2.835206   -4.367810   -0.356039
     95          7           0       -1.400080   -2.939244    0.312756
     96          1           0       -0.932064   -3.601315    0.931906
     97          1           0       -2.091502   -2.443174    0.878116
     98          8           0        1.503363   -2.024693   -5.975379
     99          1           0        0.931558   -1.657493   -6.676695
    100          1           0        2.304458    2.077609   -1.711809
 ---------------------------------------------------------------------

 SCF Done:  E(RB3LYP) =  -2418.56050564     A.U. after    1 cycles

 Alpha  occ. eigenvalues --  -19.29019 -19.29009 -19.28842 -19.25887 -19.24720
 Alpha  occ. eigenvalues --  -19.23952 -19.22680 -19.21536 -19.21444 -19.20686
 Alpha  occ. eigenvalues --  -19.19959 -14.57597 -14.50288 -14.45533 -14.45498
 Alpha  occ. eigenvalues --  -14.45433 -14.45142 -14.43895 -14.40350 -14.39259
 Alpha  occ. eigenvalues --  -10.46040 -10.43263 -10.40854 -10.39192 -10.39007
 Alpha  occ. eigenvalues --  -10.38858 -10.38753 -10.38173 -10.37167 -10.36757
 Alpha  occ. eigenvalues --  -10.35502 -10.35034 -10.33828 -10.32292 -10.32078
 Alpha  occ. eigenvalues --  -10.31624 -10.31182 -10.28290 -10.28046 -10.26850
 Alpha  occ. eigenvalues --  -10.26774 -10.26634 -10.26196 -10.25056 -10.25055
 Alpha  occ. eigenvalues --  -10.24667 -10.24408 -10.23776  -1.21593  -1.19421
 Alpha  occ. eigenvalues --   -1.18079  -1.16379  -1.15357  -1.13504  -1.13149
 Alpha  occ. eigenvalues --   -1.12502  -1.11876  -1.11464  -1.11108  -1.10457
 Alpha  occ. eigenvalues --   -1.06325  -1.02835  -1.01855  -1.01491  -1.00645
 Alpha  occ. eigenvalues --   -1.00020  -0.97006  -0.96315  -0.91846  -0.89081
 Alpha  occ. eigenvalues --   -0.88533  -0.87857  -0.85757  -0.84989  -0.84803
 Alpha  occ. eigenvalues --   -0.82665  -0.82295  -0.81013  -0.78826  -0.77820
 Alpha  occ. eigenvalues --   -0.76976  -0.75234  -0.73686  -0.73388  -0.72759
 Alpha  occ. eigenvalues --   -0.72283  -0.71860  -0.71173  -0.69609  -0.68756
 Alpha  occ. eigenvalues --   -0.68471  -0.67788  -0.67455  -0.67003  -0.66952
 Alpha  occ. eigenvalues --   -0.65957  -0.65288  -0.64886  -0.64434  -0.63924
 Alpha  occ. eigenvalues --   -0.63229  -0.63145  -0.62530  -0.61774  -0.61514
 Alpha  occ. eigenvalues --   -0.60532  -0.60069  -0.59205  -0.58446  -0.58186
 Alpha  occ. eigenvalues --   -0.57688  -0.57444  -0.57110  -0.56986  -0.56380
 Alpha  occ. eigenvalues --   -0.56139  -0.56055  -0.55404  -0.55233  -0.55020
 Alpha  occ. eigenvalues --   -0.54538  -0.54402  -0.53870  -0.53596  -0.52982
 Alpha  occ. eigenvalues --   -0.52843  -0.52629  -0.52514  -0.51819  -0.51693
 Alpha  occ. eigenvalues --   -0.51125  -0.51031  -0.50224  -0.50098  -0.49918
 Alpha  occ. eigenvalues --   -0.49501  -0.49343  -0.49140  -0.48997  -0.48515
 Alpha  occ. eigenvalues --   -0.48306  -0.48255  -0.48018  -0.47644  -0.47565
 Alpha  occ. eigenvalues --   -0.47537  -0.46963  -0.46894  -0.46212  -0.46115
 Alpha  occ. eigenvalues --   -0.45361  -0.45133  -0.45013  -0.44799  -0.44057
 Alpha  occ. eigenvalues --   -0.43857  -0.43410  -0.43298  -0.43043  -0.42721
 Alpha  occ. eigenvalues --   -0.42339  -0.42083  -0.41162  -0.40783  -0.40324
 Alpha  occ. eigenvalues --   -0.40189  -0.40045  -0.39934  -0.39630  -0.39505
 Alpha  occ. eigenvalues --   -0.39345  -0.38681  -0.37754  -0.37220  -0.37127
 Alpha  occ. eigenvalues --   -0.36510  -0.36223  -0.35386  -0.34796  -0.34646
 Alpha  occ. eigenvalues --   -0.34435  -0.33727  -0.33256  -0.32160  -0.31762
 Alpha virt. eigenvalues --   -0.14559  -0.12704  -0.09247  -0.08529  -0.07983
 Alpha virt. eigenvalues --   -0.07624  -0.07448  -0.06920  -0.05619  -0.05342
 Alpha virt. eigenvalues --   -0.04565  -0.02756  -0.01397  -0.00976  -0.00810

 Mulliken charges:
               1
     1  N   -0.690984
     2  H    0.320272
     3  H    0.314620
     4  C   -0.082923
     5  H    0.145533
     6  C    0.599948
     7  C   -0.347745
     8  H    0.189054
     9  H    0.185666
    10  O   -0.548036
    11  C    0.560475
    12  N   -0.737695
    13  H    0.352470
    14  H    0.351716
    15  O   -0.495227
    16  N   -0.595469
    17  H    0.346130
    18  C   -0.051964
    19  H    0.173640
    20  C    0.628951
    21  C   -0.091360
    22  H    0.138210
    23  O   -0.548924
    24  C   -0.255933
    25  H    0.133706
    26  H    0.139224
    27  C   -0.470774
    28  H    0.143725
    29  H    0.162826
    30  H    0.160394
    31  C   -0.450365
    32  H    0.157236
    33  H    0.143399
    34  H    0.155485
    35  N   -0.617769
    36  H    0.376905
    37  C   -0.069341
    38  H    0.220573
    39  C    0.685312
    40  C   -0.487117
    41  H    0.166666
    42  H    0.178929
    43  H    0.174392
    44  O   -0.585683
    45  N   -0.621531
    46  H    0.475586
    47  C    0.009609
    48  H    0.157721
    49  C    0.588006
    50  C    0.075841
    51  H    0.159699
    52  O   -0.454214
    53  C   -0.455754
    54  H    0.154001
    55  H    0.183859
    56  H    0.172203
    57  O   -0.622688
    58  H    0.426552
    59  N   -0.678962
    60  H    0.404048
    61  C   -0.107748
    62  H    0.206612
    63  C    0.625787
    64  C   -0.063129
    65  H    0.185786
    66  H    0.199221
    67  O   -0.525163
    68  O   -0.605261
    69  H    0.423731
    70  N   -0.598608
    71  H    0.358968
    72  C   -0.249368
    73  H    0.218645
    74  H    0.236481
    75  C    0.587929
    76  O   -0.465317
    77  N   -0.664128
    78  H    0.391801
    79  C   -0.083026
    80  H    0.231442
    81  C    0.599382
    82  C   -0.271427
    83  H    0.169094
    84  H    0.161357
    85  O   -0.442554
    86  C   -0.282553
    87  H    0.149008
    88  H    0.148678
    89  C   -0.262502
    90  H    0.140060
    91  H    0.146420
    92  C   -0.132766
    93  H    0.159281
    94  H    0.132862
    95  N   -0.810841
    96  H    0.318674
    97  H    0.368529
    98  O   -0.598574
    99  H    0.420245
   100  H    0.430849
 Sum of Mulliken charges =   1.00000

 Dipole moment (field-independent basis, Debye):
    X=              0.5694    Y=              2.3678    Z=             -4.4859  Tot=              5.1043
 Quadrupole moment (field-independent basis, Debye-Ang):
   XX=           -188.6951   YY=           -267.3114   ZZ=           -215.5649
   XY=             34.6081   XZ=            -66.4077   YZ=            -30.1471

 Normal termination of Gaussian 16 at Mon Jun  6 06:22:10 2022.
