 Gaussian 16, Revision C.01,
 Gaussian 16:  ES64L-G16RevC.01  3-Jul-2019

 ----------------------------------------------------------------------
 # B3LYP/6-31G* empiricaldispersion=gd3 guess=read geom=check nosymm in
 tegral(ultrafinegrid)
 ----------------------------------------------------------------------

 ------------------------------------------------------
 Candidate Structure: Conf:669 Charge calc in gas phase
 ------------------------------------------------------
 Structure from the checkpoint file:  "conf-669.chk"
 Charge =  1 Multiplicity = 1

                          Input orientation:
 ---------------------------------------------------------------------
 Center     Atomic      Atomic             Coordinates (Angstroms)
 Number     Number       Type             X           Y           Z
 ---------------------------------------------------------------------
      1          7           0       -7.947932   -0.029189    2.862299
      2          1           0       -8.182592    0.913092    3.179813
      3          1           0       -7.669233   -0.518147    3.712413
      4          6           0       -6.787489    0.079443    1.982372
      5          1           0       -6.337689   -0.912966    1.871877
      6          6           0       -5.723355    1.051727    2.546316
      7          6           0       -7.260345    0.534410    0.587891
      8          1           0       -8.230679    0.055420    0.407618
      9          1           0       -7.442116    1.617821    0.574123
     10          8           0       -6.017768    1.893579    3.394971
     11          6           0       -6.310485    0.164940   -0.547389
     12          7           0       -6.754477    0.496619   -1.792790
     13          1           0       -6.219889    0.167927   -2.585220
     14          1           0       -7.706287    0.792599   -1.954266
     15          8           0       -5.222584   -0.383777   -0.378890
     16          7           0       -4.466561    0.918150    2.049448
     17          1           0       -4.303206    0.278759    1.273319
     18          6           0       -3.404163    1.800072    2.501345
     19          1           0       -3.853271    2.785338    2.662595
     20          6           0       -2.368582    1.892628    1.381489
     21          6           0       -2.813337    1.331966    3.868323
     22          1           0       -3.690059    1.322885    4.528407
     23          8           0       -2.102805    0.919520    0.656792
     24          6           0       -1.798329    2.327687    4.461112
     25          1           0       -0.933036    2.430757    3.792561
     26          1           0       -1.405184    1.887395    5.386130
     27          6           0       -2.255217   -0.094168    3.801271
     28          1           0       -1.364571   -0.166731    3.171162
     29          1           0       -1.977807   -0.438264    4.803597
     30          1           0       -3.000742   -0.788133    3.401800
     31          6           0       -2.370077    3.713703    4.788640
     32          1           0       -1.630772    4.326483    5.314794
     33          1           0       -2.674261    4.275205    3.895412
     34          1           0       -3.258338    3.630931    5.424655
     35          7           0       -1.770942    3.097746    1.217990
     36          1           0       -2.032341    3.846311    1.846618
     37          6           0       -0.950417    3.470215    0.053041
     38          1           0       -1.466834    3.090907   -0.837460
     39          6           0        0.444863    2.803988    0.128306
     40          6           0       -0.816508    4.987391   -0.011627
     41          1           0       -0.265515    5.277615   -0.909847
     42          1           0       -1.803478    5.459745   -0.042152
     43          1           0       -0.254241    5.355577    0.851307
     44          8           0        1.436323    3.372892    0.559615
     45          7           0        0.446606    1.518423   -0.346534
     46          1           0       -0.472155    1.087283   -0.439401
     47          6           0        1.545960    0.630597   -0.063058
     48          1           0        2.445670    1.241330    0.074501
     49          6           0        1.753801   -0.328186   -1.210068
     50          6           0        1.292129   -0.214581    1.240394
     51          1           0        2.126478   -0.919773    1.343628
     52          8           0        0.801919   -0.477144   -2.059433
     53          6           0        1.241949    0.676908    2.476980
     54          1           0        2.161078    1.260059    2.587381
     55          1           0        1.101924    0.051516    3.362584
     56          1           0        0.406982    1.378606    2.418625
     57          8           0        0.144465   -1.018753    1.065243
     58          1           0       -0.659814   -0.463546    1.097301
     59          7           0        2.874541   -1.022490   -1.258876
     60          1           0        3.655628   -0.764187   -0.651618
     61          6           0        3.160184   -2.220731   -2.055252
     62          1           0        2.435695   -3.004296   -1.801596
     63          6           0        4.612217   -2.616946   -1.700550
     64          6           0        3.142866   -1.970643   -3.570473
     65          1           0        3.497228   -2.868408   -4.086099
     66          1           0        3.839415   -1.148015   -3.787853
     67          8           0        5.348684   -1.796817   -1.164560
     68          8           0        1.827951   -1.657613   -4.011629
     69          1           0        1.934978   -1.211570   -4.935903
     70          7           0        4.992185   -3.845241   -2.132280
     71          1           0        4.299739   -4.391647   -2.637761
     72          6           0        6.331582   -4.046927   -2.684771
     73          1           0        6.986877   -3.256648   -2.313937
     74          1           0        6.732414   -5.014998   -2.367218
     75          6           0        6.161518   -4.042979   -4.217474
     76          8           0        5.151336   -4.550198   -4.710555
     77          7           0        7.117037   -3.427731   -4.943779
     78          1           0        7.984465   -3.127579   -4.509459
     79          6           0        7.136628   -3.492483   -6.402343
     80          1           0        6.662023   -4.430400   -6.710111
     81          6           0        8.603060   -3.518782   -6.823458
     82          6           0        6.407669   -2.319005   -7.102759
     83          1           0        6.911202   -1.379066   -6.839509
     84          1           0        6.545600   -2.461569   -8.181038
     85          8           0        9.529920   -3.286795   -6.077528
     86          6           0        4.907563   -2.220690   -6.782287
     87          1           0        4.448100   -3.212359   -6.863958
     88          1           0        4.784824   -1.911579   -5.740552
     89          6           0        4.190432   -1.240831   -7.722230
     90          1           0        4.392296   -1.543100   -8.758153
     91          1           0        4.618000   -0.231252   -7.621447
     92          6           0        2.664827   -1.161933   -7.580736
     93          1           0        2.260840   -0.672779   -8.476314
     94          1           0        2.236635   -2.169662   -7.539275
     95          7           0        2.206930   -0.430660   -6.360276
     96          1           0        1.262293   -0.082466   -6.532888
     97          1           0        2.778583    0.407510   -6.239878
     98          8           0        8.733866   -3.799254   -8.129871
     99          1           0        9.687057   -3.777693   -8.342320
    100          1           0        1.104897   -1.001741   -2.916706
 ---------------------------------------------------------------------

 SCF Done:  E(RB3LYP) =  -2418.57598169     A.U. after    2 cycles

 Alpha  occ. eigenvalues --  -19.32077 -19.29450 -19.27592 -19.24875 -19.24039
 Alpha  occ. eigenvalues --  -19.23012 -19.22433 -19.21898 -19.20880 -19.18543
 Alpha  occ. eigenvalues --  -19.16694 -14.52125 -14.47840 -14.46910 -14.46262
 Alpha  occ. eigenvalues --  -14.46216 -14.44880 -14.42502 -14.40901 -14.36153
 Alpha  occ. eigenvalues --  -10.45672 -10.42038 -10.41849 -10.39758 -10.38498
 Alpha  occ. eigenvalues --  -10.37804 -10.37632 -10.36479 -10.36046 -10.34891
 Alpha  occ. eigenvalues --  -10.34298 -10.33961 -10.33960 -10.33380 -10.32928
 Alpha  occ. eigenvalues --  -10.32294 -10.30176 -10.28919 -10.28875 -10.28066
 Alpha  occ. eigenvalues --  -10.27740 -10.26706 -10.26083 -10.25781 -10.25731
 Alpha  occ. eigenvalues --  -10.24877 -10.24103 -10.23343  -1.23250  -1.20520
 Alpha  occ. eigenvalues --   -1.16931  -1.14528  -1.14440  -1.13680  -1.12627
 Alpha  occ. eigenvalues --   -1.11704  -1.10944  -1.10175  -1.08913  -1.08506
 Alpha  occ. eigenvalues --   -1.04625  -1.03222  -1.02494  -1.02042  -1.01302
 Alpha  occ. eigenvalues --   -0.97935  -0.97172  -0.93760  -0.92093  -0.90472
 Alpha  occ. eigenvalues --   -0.88406  -0.87329  -0.86731  -0.85462  -0.83302
 Alpha  occ. eigenvalues --   -0.82476  -0.82117  -0.80057  -0.80053  -0.78441
 Alpha  occ. eigenvalues --   -0.77650  -0.74481  -0.73970  -0.73146  -0.72742
 Alpha  occ. eigenvalues --   -0.72197  -0.71577  -0.70199  -0.69908  -0.69541
 Alpha  occ. eigenvalues --   -0.68754  -0.68577  -0.68518  -0.67162  -0.66594
 Alpha  occ. eigenvalues --   -0.65804  -0.65071  -0.64232  -0.62669  -0.62209
 Alpha  occ. eigenvalues --   -0.61875  -0.61669  -0.61396  -0.60735  -0.60257
 Alpha  occ. eigenvalues --   -0.59723  -0.59354  -0.58961  -0.58793  -0.58305
 Alpha  occ. eigenvalues --   -0.57409  -0.57320  -0.56861  -0.56716  -0.56497
 Alpha  occ. eigenvalues --   -0.56049  -0.55789  -0.55709  -0.54855  -0.54646
 Alpha  occ. eigenvalues --   -0.54386  -0.54148  -0.53883  -0.53593  -0.53289
 Alpha  occ. eigenvalues --   -0.52886  -0.52403  -0.51828  -0.51544  -0.51485
 Alpha  occ. eigenvalues --   -0.51226  -0.50758  -0.50232  -0.49854  -0.49775
 Alpha  occ. eigenvalues --   -0.49375  -0.49175  -0.48988  -0.48714  -0.48387
 Alpha  occ. eigenvalues --   -0.48073  -0.47940  -0.47698  -0.47352  -0.47191
 Alpha  occ. eigenvalues --   -0.46809  -0.46737  -0.46459  -0.46061  -0.45858
 Alpha  occ. eigenvalues --   -0.45807  -0.45551  -0.45386  -0.44774  -0.44555
 Alpha  occ. eigenvalues --   -0.43792  -0.43713  -0.43205  -0.43190  -0.42771
 Alpha  occ. eigenvalues --   -0.42193  -0.41819  -0.41528  -0.41476  -0.40759
 Alpha  occ. eigenvalues --   -0.40454  -0.39720  -0.39205  -0.38913  -0.38763
 Alpha  occ. eigenvalues --   -0.38591  -0.38137  -0.37618  -0.37492  -0.37100
 Alpha  occ. eigenvalues --   -0.36326  -0.35847  -0.35649  -0.34266  -0.33918
 Alpha  occ. eigenvalues --   -0.33122  -0.32405  -0.30913  -0.30525  -0.28936
 Alpha virt. eigenvalues --   -0.14652  -0.11169  -0.09101  -0.08410  -0.08126
 Alpha virt. eigenvalues --   -0.07485  -0.04941  -0.04311  -0.02880  -0.02708
 Alpha virt. eigenvalues --   -0.01922  -0.01549  -0.01394  -0.00446  -0.00089

 Mulliken charges:
               1
     1  N   -0.699270
     2  H    0.314036
     3  H    0.306737
     4  C   -0.078854
     5  H    0.166332
     6  C    0.572905
     7  C   -0.375864
     8  H    0.195321
     9  H    0.177611
    10  O   -0.535011
    11  C    0.605137
    12  N   -0.740848
    13  H    0.344497
    14  H    0.347173
    15  O   -0.523047
    16  N   -0.636889
    17  H    0.391525
    18  C   -0.032266
    19  H    0.172966
    20  C    0.624974
    21  C   -0.083292
    22  H    0.171888
    23  O   -0.571852
    24  C   -0.281954
    25  H    0.134368
    26  H    0.152482
    27  C   -0.470976
    28  H    0.137606
    29  H    0.154189
    30  H    0.162225
    31  C   -0.457733
    32  H    0.160113
    33  H    0.123249
    34  H    0.175410
    35  N   -0.609332
    36  H    0.359829
    37  C   -0.049758
    38  H    0.178137
    39  C    0.622918
    40  C   -0.482452
    41  H    0.178911
    42  H    0.164380
    43  H    0.189854
    44  O   -0.507331
    45  N   -0.613531
    46  H    0.377207
    47  C   -0.098701
    48  H    0.208716
    49  C    0.670166
    50  C    0.128216
    51  H    0.144441
    52  O   -0.562228
    53  C   -0.478277
    54  H    0.171292
    55  H    0.184168
    56  H    0.168876
    57  O   -0.646049
    58  H    0.441828
    59  N   -0.595523
    60  H    0.392502
    61  C   -0.094912
    62  H    0.219204
    63  C    0.594330
    64  C   -0.045554
    65  H    0.201480
    66  H    0.156755
    67  O   -0.498903
    68  O   -0.707569
    69  H    0.482289
    70  N   -0.567427
    71  H    0.358149
    72  C   -0.254484
    73  H    0.209222
    74  H    0.214665
    75  C    0.611714
    76  O   -0.529586
    77  N   -0.599874
    78  H    0.362658
    79  C   -0.046389
    80  H    0.208377
    81  C    0.586924
    82  C   -0.271615
    83  H    0.151247
    84  H    0.175752
    85  O   -0.457645
    86  C   -0.266065
    87  H    0.170886
    88  H    0.133734
    89  C   -0.283991
    90  H    0.165890
    91  H    0.140448
    92  C   -0.139332
    93  H    0.162582
    94  H    0.172900
    95  N   -0.793405
    96  H    0.343746
    97  H    0.332085
    98  O   -0.555985
    99  H    0.431983
   100  H    0.484572
 Sum of Mulliken charges =   1.00000

 Dipole moment (field-independent basis, Debye):
    X=             10.7038    Y=             -2.0257    Z=            -19.2471  Tot=             22.1162
 Quadrupole moment (field-independent basis, Debye-Ang):
   XX=           -166.9717   YY=           -252.4577   ZZ=           -140.4907
   XY=            -58.0220   XZ=            -73.2966   YZ=             26.7420

 Normal termination of Gaussian 16 at Mon Jun  6 06:22:17 2022.
