 Gaussian 16, Revision C.01,
 Gaussian 16:  ES64L-G16RevC.01  3-Jul-2019

 ----------------------------------------------------------------------
 # B3LYP/6-31G* empiricaldispersion=gd3 guess=read geom=check nosymm in
 tegral(ultrafinegrid)
 ----------------------------------------------------------------------

 ------------------------------------------------------
 Candidate Structure: Conf:102 Charge calc in gas phase
 ------------------------------------------------------
 Structure from the checkpoint file:  "conf-102.chk"
 Charge =  1 Multiplicity = 1

                          Input orientation:
 ---------------------------------------------------------------------
 Center     Atomic      Atomic             Coordinates (Angstroms)
 Number     Number       Type             X           Y           Z
 ---------------------------------------------------------------------
      1          7           0       -6.596434    4.402440   -0.908521
      2          1           0       -7.528275    4.397214   -1.317813
      3          1           0       -5.994674    4.965483   -1.507764
      4          6           0       -6.058504    3.048844   -0.819680
      5          1           0       -6.681967    2.483628   -0.115586
      6          6           0       -4.640714    3.201349   -0.263084
      7          6           0       -6.001781    2.284164   -2.166955
      8          1           0       -6.995231    2.301433   -2.629435
      9          1           0       -5.315264    2.827740   -2.827719
     10          8           0       -3.776218    3.784718   -0.926991
     11          6           0       -5.471559    0.864940   -2.010223
     12          7           0       -6.142802   -0.109647   -2.671796
     13          1           0       -5.812124   -1.062506   -2.598157
     14          1           0       -6.957220    0.073913   -3.238374
     15          8           0       -4.480529    0.622269   -1.317417
     16          7           0       -4.412194    2.725621    0.984556
     17          1           0       -5.095870    2.108613    1.401840
     18          6           0       -3.078706    2.762742    1.585924
     19          1           0       -2.625338    3.706243    1.268170
     20          6           0       -2.286543    1.605958    0.958970
     21          6           0       -3.116627    2.698326    3.120543
     22          1           0       -3.455326    1.690210    3.396238
     23          8           0       -2.152954    0.504079    1.521638
     24          6           0       -4.116206    3.716773    3.714774
     25          1           0       -4.051577    3.638283    4.807293
     26          1           0       -5.139416    3.419521    3.453005
     27          6           0       -1.696120    2.884007    3.681476
     28          1           0       -1.281982    3.860633    3.405985
     29          1           0       -1.712843    2.827933    4.774614
     30          1           0       -1.007858    2.111890    3.323877
     31          6           0       -3.904869    5.175397    3.290136
     32          1           0       -4.613294    5.827642    3.810813
     33          1           0       -2.896745    5.531099    3.529110
     34          1           0       -4.069762    5.311138    2.215203
     35          7           0       -1.778493    1.863600   -0.269756
     36          1           0       -2.131994    2.722027   -0.700133
     37          6           0       -1.428538    0.791134   -1.213814
     38          1           0       -2.141680   -0.030866   -1.064182
     39          6           0       -0.036479    0.220885   -0.905010
     40          6           0       -1.556804    1.309084   -2.643590
     41          1           0       -1.340004    0.515923   -3.361686
     42          1           0       -2.584270    1.648860   -2.786161
     43          1           0       -0.868162    2.138409   -2.829991
     44          8           0        0.783909    0.162737   -1.904745
     45          7           0        0.175161   -0.151701    0.328977
     46          1           0       -0.666427   -0.020270    0.923738
     47          6           0        1.373179   -0.603914    1.043256
     48          1           0        1.982604    0.278076    1.272780
     49          6           0        2.135723   -1.615498    0.194550
     50          6           0        0.905259   -1.218697    2.396082
     51          1           0        0.274334   -2.085920    2.157194
     52          8           0        1.547623   -2.566706   -0.325533
     53          6           0        2.095816   -1.650113    3.242002
     54          1           0        2.694929   -2.415703    2.739266
     55          1           0        1.731929   -2.056768    4.188388
     56          1           0        2.733830   -0.788434    3.467350
     57          8           0        0.185167   -0.233060    3.122028
     58          1           0       -0.767933   -0.290919    2.940231
     59          7           0        3.448151   -1.353392    0.033621
     60          1           0        3.905795   -0.553992    0.463574
     61          6           0        4.279454   -2.098010   -0.890391
     62          1           0        4.049696   -3.165293   -0.800039
     63          6           0        5.739536   -1.780507   -0.547163
     64          6           0        4.013201   -1.609494   -2.341096
     65          1           0        4.510750   -2.272907   -3.059698
     66          1           0        4.403560   -0.596646   -2.475377
     67          8           0        6.008869   -0.736581    0.050091
     68          8           0        2.610810   -1.539096   -2.625863
     69          1           0        2.191981   -2.367946   -2.323654
     70          7           0        6.672150   -2.627021   -1.033258
     71          1           0        6.373148   -3.419215   -1.587485
     72          6           0        8.082930   -2.238356   -1.116826
     73          1           0        8.324784   -1.662965   -0.219317
     74          1           0        8.704919   -3.132637   -1.150572
     75          6           0        8.374466   -1.413685   -2.390732
     76          8           0        9.239076   -1.750388   -3.186365
     77          7           0        7.557201   -0.336503   -2.550716
     78          1           0        6.965136   -0.040277   -1.782964
     79          6           0        7.573957    0.503216   -3.742504
     80          1           0        8.576580    0.912103   -3.906722
     81          6           0        6.594940    1.637701   -3.491824
     82          6           0        7.137865   -0.283920   -5.006709
     83          1           0        7.807218   -1.146696   -5.075918
     84          1           0        6.122309   -0.666645   -4.833452
     85          8           0        5.579914    1.532568   -2.826468
     86          6           0        7.189990    0.526112   -6.305357
     87          1           0        6.481456    1.359619   -6.279899
     88          1           0        8.187997    0.973365   -6.415032
     89          6           0        6.887315   -0.334678   -7.537058
     90          1           0        5.930456   -0.861345   -7.394051
     91          1           0        7.653032   -1.114446   -7.647790
     92          6           0        6.814153    0.483589   -8.831532
     93          1           0        7.741548    1.059725   -8.943968
     94          1           0        6.765686   -0.206500   -9.692103
     95          7           0        5.699009    1.441003   -8.776852
     96          1           0        4.817874    0.936548   -8.872698
     97          1           0        5.746410    2.072780   -9.574287
     98          8           0        6.951131    2.764954   -4.123114
     99          1           0        6.241771    3.420830   -3.979551
    100          1           0        1.598951   -0.441746   -1.915969
 ---------------------------------------------------------------------

 SCF Done:  E(RB3LYP) =  -2418.56533021     A.U. after    3 cycles

 Alpha  occ. eigenvalues --  -19.32759 -19.28517 -19.28178 -19.24505 -19.24142
 Alpha  occ. eigenvalues --  -19.23680 -19.23141 -19.22811 -19.21291 -19.21137
 Alpha  occ. eigenvalues --  -19.19032 -14.50944 -14.48235 -14.47694 -14.46697
 Alpha  occ. eigenvalues --  -14.45936 -14.45532 -14.43330 -14.40076 -14.36498
 Alpha  occ. eigenvalues --  -10.45444 -10.41142 -10.40651 -10.40375 -10.40087
 Alpha  occ. eigenvalues --  -10.38853 -10.38206 -10.36454 -10.35854 -10.35564
 Alpha  occ. eigenvalues --  -10.35392 -10.35321 -10.35188 -10.32604 -10.31971
 Alpha  occ. eigenvalues --  -10.31692 -10.31338 -10.28782 -10.28147 -10.27583
 Alpha  occ. eigenvalues --  -10.27039 -10.25854 -10.25507 -10.25506 -10.24951
 Alpha  occ. eigenvalues --  -10.23926 -10.23594 -10.23541  -1.22844  -1.19248
 Alpha  occ. eigenvalues --   -1.16601  -1.15673  -1.15106  -1.14606  -1.13263
 Alpha  occ. eigenvalues --   -1.12573  -1.12318  -1.10998  -1.10143  -1.08368
 Alpha  occ. eigenvalues --   -1.04725  -1.03686  -1.03542  -1.02185  -1.00081
 Alpha  occ. eigenvalues --   -0.99968  -0.97638  -0.93101  -0.92043  -0.89601
 Alpha  occ. eigenvalues --   -0.88572  -0.87629  -0.86806  -0.85038  -0.83049
 Alpha  occ. eigenvalues --   -0.82614  -0.81895  -0.80607  -0.79281  -0.78851
 Alpha  occ. eigenvalues --   -0.76288  -0.75661  -0.75494  -0.73869  -0.72810
 Alpha  occ. eigenvalues --   -0.71829  -0.70844  -0.70633  -0.69871  -0.69528
 Alpha  occ. eigenvalues --   -0.69134  -0.68463  -0.67985  -0.67347  -0.66455
 Alpha  occ. eigenvalues --   -0.64737  -0.64548  -0.64180  -0.63364  -0.63304
 Alpha  occ. eigenvalues --   -0.63239  -0.62707  -0.62531  -0.61520  -0.60901
 Alpha  occ. eigenvalues --   -0.60673  -0.60265  -0.59139  -0.58392  -0.57860
 Alpha  occ. eigenvalues --   -0.57656  -0.57474  -0.57144  -0.56321  -0.55849
 Alpha  occ. eigenvalues --   -0.55487  -0.54772  -0.54448  -0.54294  -0.54202
 Alpha  occ. eigenvalues --   -0.54041  -0.53608  -0.53265  -0.53071  -0.52833
 Alpha  occ. eigenvalues --   -0.52670  -0.51821  -0.51693  -0.51513  -0.51128
 Alpha  occ. eigenvalues --   -0.50525  -0.50204  -0.50039  -0.49992  -0.49884
 Alpha  occ. eigenvalues --   -0.49561  -0.49135  -0.48976  -0.48732  -0.48608
 Alpha  occ. eigenvalues --   -0.48509  -0.48358  -0.48154  -0.47898  -0.47844
 Alpha  occ. eigenvalues --   -0.47606  -0.46904  -0.46791  -0.46424  -0.46370
 Alpha  occ. eigenvalues --   -0.46165  -0.45939  -0.45537  -0.45196  -0.44947
 Alpha  occ. eigenvalues --   -0.44260  -0.43708  -0.42807  -0.42637  -0.42506
 Alpha  occ. eigenvalues --   -0.41821  -0.41446  -0.40795  -0.40370  -0.39916
 Alpha  occ. eigenvalues --   -0.39798  -0.39395  -0.38928  -0.38766  -0.38614
 Alpha  occ. eigenvalues --   -0.38441  -0.38137  -0.37715  -0.37450  -0.36696
 Alpha  occ. eigenvalues --   -0.36619  -0.36473  -0.36272  -0.35777  -0.35153
 Alpha  occ. eigenvalues --   -0.34209  -0.32863  -0.32014  -0.31977  -0.28669
 Alpha virt. eigenvalues --   -0.14371  -0.11100  -0.10270  -0.09860  -0.07791
 Alpha virt. eigenvalues --   -0.07660  -0.06336  -0.05291  -0.02952  -0.02853
 Alpha virt. eigenvalues --   -0.02074  -0.01430  -0.00888  -0.00439  -0.00203

 Mulliken charges:
               1
     1  N   -0.707961
     2  H    0.312951
     3  H    0.322737
     4  C   -0.054923
     5  H    0.147953
     6  C    0.684057
     7  C   -0.381868
     8  H    0.146663
     9  H    0.197732
    10  O   -0.567689
    11  C    0.616048
    12  N   -0.740787
    13  H    0.353060
    14  H    0.355062
    15  O   -0.540457
    16  N   -0.596980
    17  H    0.347182
    18  C   -0.059952
    19  H    0.191627
    20  C    0.659281
    21  C   -0.106589
    22  H    0.144592
    23  O   -0.581962
    24  C   -0.256019
    25  H    0.150698
    26  H    0.132873
    27  C   -0.480008
    28  H    0.152704
    29  H    0.165797
    30  H    0.160494
    31  C   -0.463334
    32  H    0.163313
    33  H    0.152347
    34  H    0.159994
    35  N   -0.612125
    36  H    0.398765
    37  C   -0.069436
    38  H    0.234323
    39  C    0.651547
    40  C   -0.482961
    41  H    0.179534
    42  H    0.194896
    43  H    0.176802
    44  O   -0.582264
    45  N   -0.608106
    46  H    0.421239
    47  C   -0.009955
    48  H    0.188343
    49  C    0.583210
    50  C    0.084831
    51  H    0.169390
    52  O   -0.549257
    53  C   -0.463184
    54  H    0.162215
    55  H    0.190030
    56  H    0.168075
    57  O   -0.628924
    58  H    0.435059
    59  N   -0.594603
    60  H    0.371301
    61  C   -0.104252
    62  H    0.191530
    63  C    0.619121
    64  C   -0.051062
    65  H    0.163597
    66  H    0.218970
    67  O   -0.531454
    68  O   -0.640693
    69  H    0.434987
    70  N   -0.578836
    71  H    0.348651
    72  C   -0.255473
    73  H    0.218548
    74  H    0.202838
    75  C    0.598411
    76  O   -0.492423
    77  N   -0.651598
    78  H    0.373417
    79  C    0.018933
    80  H    0.194036
    81  C    0.565248
    82  C   -0.289940
    83  H    0.188158
    84  H    0.127718
    85  O   -0.481976
    86  C   -0.260825
    87  H    0.167133
    88  H    0.142672
    89  C   -0.254523
    90  H    0.118880
    91  H    0.140208
    92  C   -0.144542
    93  H    0.146076
    94  H    0.124266
    95  N   -0.717538
    96  H    0.291575
    97  H    0.304209
    98  O   -0.540836
    99  H    0.421970
   100  H    0.487443
 Sum of Mulliken charges =   1.00000

 Dipole moment (field-independent basis, Debye):
    X=             -3.2959    Y=             -0.3278    Z=             -7.9236  Tot=              8.5880
 Quadrupole moment (field-independent basis, Debye-Ang):
   XX=           -164.4721   YY=           -255.0565   ZZ=           -216.4269
   XY=            -26.8847   XZ=              1.2284   YZ=             -2.7682

 Normal termination of Gaussian 16 at Mon Jun  6 06:22:36 2022.
