 Gaussian 16, Revision C.01,
 Gaussian 16:  ES64L-G16RevC.01  3-Jul-2019

 ----------------------------------------------------------------------
 # B3LYP/6-31G* empiricaldispersion=gd3 guess=read geom=check nosymm in
 tegral(ultrafinegrid)
 ----------------------------------------------------------------------

 ------------------------------------------------------
 Candidate Structure: Conf:684 Charge calc in gas phase
 ------------------------------------------------------
 Structure from the checkpoint file:  "conf-684.chk"
 Charge =  1 Multiplicity = 1

                          Input orientation:
 ---------------------------------------------------------------------
 Center     Atomic      Atomic             Coordinates (Angstroms)
 Number     Number       Type             X           Y           Z
 ---------------------------------------------------------------------
      1          7           0       -5.094766    6.622994    0.249936
      2          1           0       -5.717349    6.119729   -0.384317
      3          1           0       -4.401237    7.067090   -0.350249
      4          6           0       -4.442558    5.635336    1.111678
      5          1           0       -3.582970    6.117825    1.595017
      6          6           0       -3.954137    4.411899    0.316041
      7          6           0       -5.415006    5.146795    2.212345
      8          1           0       -6.343722    4.813331    1.729447
      9          1           0       -4.996073    4.286989    2.740854
     10          8           0       -4.428039    4.112780   -0.777008
     11          6           0       -5.753923    6.180047    3.298296
     12          7           0       -6.055221    7.420515    2.835479
     13          1           0       -6.268013    8.142778    3.508999
     14          1           0       -5.950112    7.629484    1.844979
     15          8           0       -5.765849    5.864118    4.480561
     16          7           0       -2.993672    3.654410    0.919994
     17          1           0       -2.632604    3.887269    1.837326
     18          6           0       -2.583556    2.384245    0.352415
     19          1           0       -3.470824    1.921433   -0.091517
     20          6           0       -2.035193    1.525775    1.487972
     21          6           0       -1.523374    2.576827   -0.780627
     22          1           0       -2.010042    3.277711   -1.469563
     23          8           0       -1.496813    2.007464    2.474731
     24          6           0       -1.205434    1.293603   -1.572050
     25          1           0       -0.668795    0.577631   -0.935054
     26          1           0       -0.498508    1.576089   -2.363819
     27          6           0       -0.241399    3.227021   -0.243013
     28          1           0        0.247744    2.590006    0.506765
     29          1           0        0.457600    3.431801   -1.064258
     30          1           0       -0.450318    4.180064    0.250676
     31          6           0       -2.402024    0.604093   -2.237904
     32          1           0       -2.064622   -0.229103   -2.862524
     33          1           0       -3.121077    0.194348   -1.516423
     34          1           0       -2.959075    1.305889   -2.867578
     35          7           0       -2.144012    0.167178    1.302318
     36          1           0       -2.612127   -0.186768    0.478123
     37          6           0       -1.523268   -0.779876    2.211368
     38          1           0       -1.209239   -0.192821    3.082159
     39          6           0       -0.232623   -1.243724    1.543267
     40          6           0       -2.479179   -1.896278    2.630503
     41          1           0       -1.990125   -2.611408    3.299650
     42          1           0       -3.321948   -1.453084    3.165558
     43          1           0       -2.888592   -2.438732    1.768354
     44          8           0        0.667890   -0.318729    1.426426
     45          7           0       -0.104622   -2.477634    1.131690
     46          1           0       -0.942888   -3.061032    1.125418
     47          6           0        1.026044   -3.116248    0.443881
     48          1           0        1.883350   -3.144509    1.123805
     49          6           0        1.332183   -2.336655   -0.841837
     50          6           0        0.549934   -4.559415    0.081281
     51          1           0        1.238253   -4.945328   -0.683424
     52          8           0        0.420296   -2.090721   -1.636900
     53          6           0        0.539661   -5.493558    1.282881
     54          1           0        1.550944   -5.629318    1.678387
     55          1           0        0.146186   -6.466578    0.978808
     56          1           0       -0.099800   -5.107617    2.085052
     57          8           0       -0.778542   -4.479212   -0.417503
     58          1           0       -0.762471   -3.912775   -1.213668
     59          7           0        2.613434   -1.967506   -0.976838
     60          1           0        3.308690   -2.140875   -0.246597
     61          6           0        3.102995   -0.999043   -1.942116
     62          1           0        3.066899   -1.404220   -2.960488
     63          6           0        4.575581   -0.742648   -1.524065
     64          6           0        2.254322    0.279350   -1.900633
     65          1           0        1.282334    0.091271   -2.361312
     66          1           0        2.766325    1.085517   -2.436631
     67          8           0        5.018731   -1.232662   -0.484577
     68          8           0        2.092213    0.638946   -0.515899
     69          1           0        1.677748    1.516702   -0.464180
     70          7           0        5.281490    0.030583   -2.357516
     71          1           0        4.913316    0.402390   -3.231769
     72          6           0        6.664041    0.392142   -2.120732
     73          1           0        6.768491    0.920778   -1.165479
     74          1           0        7.297530   -0.501795   -2.067734
     75          6           0        7.088768    1.294816   -3.290923
     76          8           0        6.283415    1.589361   -4.176846
     77          7           0        8.366030    1.711136   -3.262112
     78          1           0        8.997120    1.439235   -2.515503
     79          6           0        8.937951    2.564988   -4.299645
     80          1           0        8.582710    2.220022   -5.275432
     81          6           0       10.446996    2.383830   -4.214728
     82          6           0        8.523539    4.044986   -4.105091
     83          1           0        7.429553    4.041176   -4.030868
     84          1           0        8.912955    4.387415   -3.136930
     85          8           0       11.025145    2.003230   -3.217215
     86          6           0        8.966204    4.989077   -5.226757
     87          1           0       10.056324    5.037794   -5.290425
     88          1           0        8.618065    4.595840   -6.192722
     89          6           0        8.422514    6.409549   -5.034095
     90          1           0        8.692970    6.774437   -4.030946
     91          1           0        7.324188    6.402797   -5.072057
     92          6           0        8.952826    7.397473   -6.080355
     93          1           0        8.724919    7.014109   -7.083515
     94          1           0        8.410136    8.354124   -5.977792
     95          7           0       10.412286    7.527377   -5.975225
     96          1           0       10.647243    8.045567   -5.129062
     97          1           0       10.770060    8.080497   -6.751685
     98          8           0       11.062403    2.718168   -5.358719
     99          1           0       12.024316    2.634796   -5.209978
    100          1           0        1.310956   -0.284729    0.644098
 ---------------------------------------------------------------------

 SCF Done:  E(RB3LYP) =  -2418.54097570     A.U. after    2 cycles

 Alpha  occ. eigenvalues --  -19.35065 -19.30587 -19.27623 -19.27582 -19.25623
 Alpha  occ. eigenvalues --  -19.23580 -19.23079 -19.22085 -19.21096 -19.19593
 Alpha  occ. eigenvalues --  -19.14720 -14.55273 -14.49407 -14.49040 -14.46768
 Alpha  occ. eigenvalues --  -14.44916 -14.44399 -14.39453 -14.38595 -14.36081
 Alpha  occ. eigenvalues --  -10.48373 -10.42799 -10.40548 -10.40220 -10.40071
 Alpha  occ. eigenvalues --  -10.38559 -10.38391 -10.38161 -10.37843 -10.36825
 Alpha  occ. eigenvalues --  -10.36324 -10.36295 -10.33239 -10.32846 -10.32792
 Alpha  occ. eigenvalues --  -10.31707 -10.31681 -10.30199 -10.29511 -10.29402
 Alpha  occ. eigenvalues --  -10.28781 -10.27838 -10.27432 -10.25705 -10.25685
 Alpha  occ. eigenvalues --  -10.25442 -10.23498 -10.23380  -1.25531  -1.18640
 Alpha  occ. eigenvalues --   -1.18052  -1.16971  -1.15775  -1.15314  -1.14957
 Alpha  occ. eigenvalues --   -1.12955  -1.11672  -1.11512  -1.09739  -1.06556
 Alpha  occ. eigenvalues --   -1.06076  -1.05647  -1.03266  -1.01530  -1.01110
 Alpha  occ. eigenvalues --   -0.96760  -0.94384  -0.93423  -0.92784  -0.91516
 Alpha  occ. eigenvalues --   -0.90193  -0.89291  -0.87414  -0.85099  -0.84295
 Alpha  occ. eigenvalues --   -0.83511  -0.83107  -0.82435  -0.81065  -0.80705
 Alpha  occ. eigenvalues --   -0.78479  -0.76492  -0.75580  -0.74743  -0.73648
 Alpha  occ. eigenvalues --   -0.73475  -0.72447  -0.71721  -0.71080  -0.70580
 Alpha  occ. eigenvalues --   -0.69600  -0.69354  -0.68429  -0.68185  -0.66691
 Alpha  occ. eigenvalues --   -0.66563  -0.65773  -0.65464  -0.64509  -0.63622
 Alpha  occ. eigenvalues --   -0.63239  -0.62588  -0.62272  -0.61470  -0.60159
 Alpha  occ. eigenvalues --   -0.59422  -0.59257  -0.58628  -0.58512  -0.58018
 Alpha  occ. eigenvalues --   -0.57849  -0.57652  -0.57332  -0.57211  -0.56951
 Alpha  occ. eigenvalues --   -0.56508  -0.56390  -0.55896  -0.55098  -0.54910
 Alpha  occ. eigenvalues --   -0.54881  -0.54211  -0.53847  -0.53625  -0.53286
 Alpha  occ. eigenvalues --   -0.53163  -0.53044  -0.52815  -0.52737  -0.52013
 Alpha  occ. eigenvalues --   -0.51676  -0.51452  -0.51062  -0.50991  -0.50786
 Alpha  occ. eigenvalues --   -0.50562  -0.50418  -0.50046  -0.49785  -0.49697
 Alpha  occ. eigenvalues --   -0.49603  -0.49004  -0.48801  -0.48650  -0.48517
 Alpha  occ. eigenvalues --   -0.48209  -0.47701  -0.47393  -0.47094  -0.46610
 Alpha  occ. eigenvalues --   -0.46549  -0.46110  -0.45951  -0.45810  -0.44858
 Alpha  occ. eigenvalues --   -0.44649  -0.43919  -0.43704  -0.43535  -0.42909
 Alpha  occ. eigenvalues --   -0.42824  -0.42488  -0.42406  -0.41359  -0.40882
 Alpha  occ. eigenvalues --   -0.40595  -0.40430  -0.39683  -0.39287  -0.38879
 Alpha  occ. eigenvalues --   -0.38460  -0.38323  -0.38198  -0.37495  -0.37255
 Alpha  occ. eigenvalues --   -0.36478  -0.35969  -0.35063  -0.34214  -0.33890
 Alpha  occ. eigenvalues --   -0.33728  -0.32068  -0.30105  -0.28517  -0.28258
 Alpha virt. eigenvalues --   -0.17834  -0.12538  -0.09250  -0.08808  -0.07300
 Alpha virt. eigenvalues --   -0.06659  -0.06073  -0.05532  -0.05370  -0.03684
 Alpha virt. eigenvalues --   -0.03378  -0.02181  -0.01209  -0.00882  -0.00621

 Mulliken charges:
               1
     1  N   -0.716416
     2  H    0.328112
     3  H    0.316125
     4  C   -0.095652
     5  H    0.157252
     6  C    0.599332
     7  C   -0.351645
     8  H    0.176082
     9  H    0.164576
    10  O   -0.527908
    11  C    0.573312
    12  N   -0.748743
    13  H    0.338043
    14  H    0.375140
    15  O   -0.507882
    16  N   -0.619022
    17  H    0.357053
    18  C   -0.042603
    19  H    0.182055
    20  C    0.623288
    21  C   -0.073764
    22  H    0.182747
    23  O   -0.506696
    24  C   -0.289810
    25  H    0.111400
    26  H    0.145327
    27  C   -0.496454
    28  H    0.150913
    29  H    0.145724
    30  H    0.181731
    31  C   -0.464972
    32  H    0.169636
    33  H    0.128334
    34  H    0.185693
    35  N   -0.615920
    36  H    0.352261
    37  C   -0.054000
    38  H    0.247014
    39  C    0.656052
    40  C   -0.498291
    41  H    0.186542
    42  H    0.217588
    43  H    0.170787
    44  O   -0.581855
    45  N   -0.567359
    46  H    0.397004
    47  C   -0.077137
    48  H    0.198678
    49  C    0.597283
    50  C    0.074838
    51  H    0.178034
    52  O   -0.542151
    53  C   -0.453918
    54  H    0.172649
    55  H    0.204444
    56  H    0.153220
    57  O   -0.621185
    58  H    0.426242
    59  N   -0.616261
    60  H    0.378104
    61  C   -0.052567
    62  H    0.206370
    63  C    0.637698
    64  C   -0.077101
    65  H    0.204401
    66  H    0.177526
    67  O   -0.530233
    68  O   -0.663428
    69  H    0.443747
    70  N   -0.630146
    71  H    0.364369
    72  C   -0.199618
    73  H    0.202417
    74  H    0.204338
    75  C    0.615289
    76  O   -0.536966
    77  N   -0.623597
    78  H    0.358741
    79  C   -0.025730
    80  H    0.197300
    81  C    0.582552
    82  C   -0.272675
    83  H    0.165001
    84  H    0.145183
    85  O   -0.468313
    86  C   -0.258832
    87  H    0.180127
    88  H    0.135342
    89  C   -0.256345
    90  H    0.126576
    91  H    0.129777
    92  C   -0.141218
    93  H    0.142430
    94  H    0.121769
    95  N   -0.716021
    96  H    0.295480
    97  H    0.304891
    98  O   -0.547226
    99  H    0.426666
   100  H    0.499061
 Sum of Mulliken charges =   1.00000

 Dipole moment (field-independent basis, Debye):
    X=             10.8963    Y=             -0.8652    Z=             -6.2423  Tot=             12.5875
 Quadrupole moment (field-independent basis, Debye-Ang):
   XX=           -185.0096   YY=           -193.7989   ZZ=           -275.2484
   XY=             41.9003   XZ=            -41.4096   YZ=            -51.2446

 Normal termination of Gaussian 16 at Mon Jun  6 06:22:10 2022.
