 Gaussian 16, Revision C.01,
 Gaussian 16:  ES64L-G16RevC.01  3-Jul-2019

 ----------------------------------------------------------------------
 # B3LYP/6-31G* empiricaldispersion=gd3 guess=read geom=check nosymm in
 tegral(ultrafinegrid)
 ----------------------------------------------------------------------

 ------------------------------------------------------
 Candidate Structure: Conf:240 Charge calc in gas phase
 ------------------------------------------------------
 Structure from the checkpoint file:  "conf-240.chk"
 Charge =  1 Multiplicity = 1

                          Input orientation:
 ---------------------------------------------------------------------
 Center     Atomic      Atomic             Coordinates (Angstroms)
 Number     Number       Type             X           Y           Z
 ---------------------------------------------------------------------
      1          7           0       -7.962295   -1.532546    0.974753
      2          1           0       -8.341995   -1.294186    1.892580
      3          1           0       -7.746521   -2.526888    1.032571
      4          6           0       -6.723285   -0.773393    0.796381
      5          1           0       -6.163606   -1.226333   -0.033352
      6          6           0       -5.838878   -0.813366    2.059479
      7          6           0       -7.037924    0.696264    0.425496
      8          1           0       -7.753010    1.092531    1.158898
      9          1           0       -6.137235    1.311718    0.478800
     10          8           0       -6.270680   -1.187239    3.145470
     11          6           0       -7.594666    0.884139   -0.992992
     12          7           0       -8.667608    0.103436   -1.290139
     13          1           0       -9.023405    0.133918   -2.235608
     14          1           0       -8.900145   -0.670524   -0.670232
     15          8           0       -7.102640    1.699253   -1.763026
     16          7           0       -4.558234   -0.376158    1.893381
     17          1           0       -4.211610   -0.096076    0.984581
     18          6           0       -3.622427   -0.322015    3.000758
     19          1           0       -4.188346   -0.033772    3.893273
     20          6           0       -2.573617    0.731118    2.665819
     21          6           0       -2.950654   -1.705899    3.291282
     22          1           0       -3.791706   -2.354010    3.569501
     23          8           0       -2.110384    0.835577    1.520814
     24          6           0       -2.000899   -1.619851    4.503295
     25          1           0       -2.544049   -1.157764    5.341142
     26          1           0       -1.158684   -0.951511    4.281525
     27          6           0       -2.288150   -2.292514    2.037959
     28          1           0       -1.456517   -1.670773    1.688848
     29          1           0       -1.911669   -3.300588    2.233217
     30          1           0       -3.007860   -2.363934    1.216762
     31          6           0       -1.439739   -2.967720    4.967214
     32          1           0       -0.840016   -2.842075    5.873760
     33          1           0       -2.245075   -3.678803    5.184193
     34          1           0       -0.788166   -3.416841    4.210066
     35          7           0       -2.139914    1.501227    3.692857
     36          1           0       -2.482801    1.313944    4.626466
     37          6           0       -1.022770    2.443306    3.555620
     38          1           0       -1.129728    2.915705    2.574536
     39          6           0        0.282562    1.621299    3.586536
     40          6           0       -1.054952    3.482210    4.669083
     41          1           0       -0.248073    4.206858    4.531693
     42          1           0       -2.010269    4.014310    4.657398
     43          1           0       -0.908134    3.009022    5.644476
     44          8           0        0.966884    1.503627    4.602397
     45          7           0        0.580597    0.994494    2.411697
     46          1           0       -0.176933    0.921282    1.726695
     47          6           0        1.714746    0.086172    2.311514
     48          1           0        2.574762    0.539320    2.816277
     49          6           0        2.028538   -0.117014    0.862309
     50          6           0        1.474794   -1.313283    3.011253
     51          1           0        0.434026   -1.580484    2.776855
     52          8           0        1.024091   -0.387886    0.098250
     53          6           0        2.403569   -2.417569    2.515672
     54          1           0        2.198022   -2.691520    1.474106
     55          1           0        2.240759   -3.301740    3.137103
     56          1           0        3.454580   -2.125910    2.620581
     57          8           0        1.682863   -1.195241    4.394464
     58          1           0        1.398507   -0.310485    4.702967
     59          7           0        3.279007   -0.085708    0.448098
     60          1           0        4.015893    0.213068    1.096382
     61          6           0        3.859949   -0.555082   -0.823041
     62          1           0        3.558095   -1.597569   -0.986850
     63          6           0        5.392093   -0.458387   -0.595758
     64          6           0        3.469090    0.292277   -2.058249
     65          1           0        4.112192    0.049085   -2.909631
     66          1           0        3.593377    1.352358   -1.822707
     67          8           0        5.824839    0.183968    0.354006
     68          8           0        2.083522    0.102108   -2.421638
     69          1           0        2.007658   -0.476119   -3.197916
     70          7           0        6.128363   -1.097846   -1.526110
     71          1           0        5.638429   -1.442445   -2.346892
     72          6           0        7.486163   -0.691270   -1.852035
     73          1           0        7.802551    0.087832   -1.153209
     74          1           0        8.178921   -1.535675   -1.760178
     75          6           0        7.458507   -0.177942   -3.307374
     76          8           0        6.418487   -0.239607   -3.968164
     77          7           0        8.612628    0.323793   -3.783788
     78          1           0        9.460832    0.213718   -3.241970
     79          6           0        8.748124    0.707397   -5.189310
     80          1           0        7.928340    1.384045   -5.442374
     81          6           0        8.611130   -0.491773   -6.128288
     82          6           0       10.100704    1.414821   -5.407260
     83          1           0       10.194274    2.187312   -4.631949
     84          1           0       10.910763    0.690231   -5.238248
     85          8           0        8.193886   -0.421341   -7.258095
     86          6           0       10.241589    2.061659   -6.789239
     87          1           0       10.106643    1.306348   -7.572552
     88          1           0        9.447541    2.802370   -6.934996
     89          6           0       11.598313    2.750598   -6.973675
     90          1           0       12.407469    2.008088   -6.934556
     91          1           0       11.778467    3.447243   -6.140246
     92          6           0       11.691567    3.523730   -8.295128
     93          1           0       12.734308    3.854197   -8.444776
     94          1           0       11.455716    2.844681   -9.124526
     95          7           0       10.710905    4.617275   -8.321292
     96          1           0       10.658706    5.016932   -9.256217
     97          1           0       11.024825    5.370799   -7.710460
     98          8           0        9.080437   -1.635052   -5.568850
     99          1           0        9.005754   -2.325911   -6.254557
    100          1           0        1.317397   -0.285538   -1.183941
 ---------------------------------------------------------------------

 SCF Done:  E(RB3LYP) =  -2418.51106746     A.U. after    1 cycles

 Alpha  occ. eigenvalues --  -19.36882 -19.34528 -19.28062 -19.26870 -19.23829
 Alpha  occ. eigenvalues --  -19.22944 -19.22724 -19.22194 -19.22051 -19.18477
 Alpha  occ. eigenvalues --  -19.14581 -14.54099 -14.50027 -14.47454 -14.46881
 Alpha  occ. eigenvalues --  -14.46827 -14.43282 -14.38780 -14.38271 -14.36527
 Alpha  occ. eigenvalues --  -10.47406 -10.44019 -10.41044 -10.40780 -10.40702
 Alpha  occ. eigenvalues --  -10.40193 -10.39659 -10.38900 -10.36657 -10.35429
 Alpha  occ. eigenvalues --  -10.35268 -10.34940 -10.33513 -10.33027 -10.32498
 Alpha  occ. eigenvalues --  -10.31567 -10.29551 -10.27992 -10.27700 -10.27163
 Alpha  occ. eigenvalues --  -10.26978 -10.26144 -10.26072 -10.24989 -10.24910
 Alpha  occ. eigenvalues --  -10.24415 -10.24269 -10.24159  -1.23388  -1.21918
 Alpha  occ. eigenvalues --   -1.18952  -1.18780  -1.15526  -1.15099  -1.13811
 Alpha  occ. eigenvalues --   -1.10907  -1.10457  -1.10391  -1.09832  -1.06818
 Alpha  occ. eigenvalues --   -1.06338  -1.03900  -1.03854  -1.02853  -0.99888
 Alpha  occ. eigenvalues --   -0.96102  -0.94675  -0.93254  -0.93112  -0.89894
 Alpha  occ. eigenvalues --   -0.89154  -0.88763  -0.86546  -0.85805  -0.84105
 Alpha  occ. eigenvalues --   -0.82648  -0.82469  -0.81256  -0.80462  -0.78351
 Alpha  occ. eigenvalues --   -0.76488  -0.75950  -0.74562  -0.73577  -0.72953
 Alpha  occ. eigenvalues --   -0.72398  -0.71576  -0.71406  -0.70572  -0.70371
 Alpha  occ. eigenvalues --   -0.69301  -0.68579  -0.68444  -0.67998  -0.66986
 Alpha  occ. eigenvalues --   -0.66387  -0.65973  -0.64661  -0.63988  -0.63600
 Alpha  occ. eigenvalues --   -0.63103  -0.62102  -0.62077  -0.61897  -0.60889
 Alpha  occ. eigenvalues --   -0.60365  -0.59557  -0.59318  -0.58973  -0.58508
 Alpha  occ. eigenvalues --   -0.57733  -0.57623  -0.57249  -0.56839  -0.56793
 Alpha  occ. eigenvalues --   -0.56664  -0.55681  -0.55269  -0.55127  -0.55016
 Alpha  occ. eigenvalues --   -0.54342  -0.54150  -0.53871  -0.53693  -0.53480
 Alpha  occ. eigenvalues --   -0.53139  -0.52683  -0.51802  -0.51669  -0.51429
 Alpha  occ. eigenvalues --   -0.50983  -0.50711  -0.50290  -0.50147  -0.49775
 Alpha  occ. eigenvalues --   -0.49683  -0.49493  -0.49360  -0.49159  -0.48599
 Alpha  occ. eigenvalues --   -0.48282  -0.48033  -0.47688  -0.47585  -0.47314
 Alpha  occ. eigenvalues --   -0.46989  -0.46753  -0.46688  -0.46626  -0.46502
 Alpha  occ. eigenvalues --   -0.45557  -0.45356  -0.44641  -0.44503  -0.44023
 Alpha  occ. eigenvalues --   -0.43813  -0.43741  -0.43376  -0.43323  -0.43011
 Alpha  occ. eigenvalues --   -0.42773  -0.41288  -0.41096  -0.40543  -0.40459
 Alpha  occ. eigenvalues --   -0.40305  -0.39992  -0.39887  -0.39738  -0.39415
 Alpha  occ. eigenvalues --   -0.39082  -0.38459  -0.38296  -0.37585  -0.36672
 Alpha  occ. eigenvalues --   -0.35992  -0.35657  -0.34580  -0.34568  -0.33247
 Alpha  occ. eigenvalues --   -0.32356  -0.31365  -0.29933  -0.28747  -0.28241
 Alpha virt. eigenvalues --   -0.16797  -0.13251  -0.11454  -0.09733  -0.09424
 Alpha virt. eigenvalues --   -0.07803  -0.07269  -0.06314  -0.04394  -0.04312
 Alpha virt. eigenvalues --   -0.04001  -0.03174  -0.02051  -0.01505  -0.01041

 Mulliken charges:
               1
     1  N   -0.715275
     2  H    0.327502
     3  H    0.317052
     4  C   -0.098428
     5  H    0.154588
     6  C    0.599342
     7  C   -0.349464
     8  H    0.174525
     9  H    0.164975
    10  O   -0.522267
    11  C    0.565002
    12  N   -0.743673
    13  H    0.334261
    14  H    0.373575
    15  O   -0.510817
    16  N   -0.619474
    17  H    0.349878
    18  C   -0.025007
    19  H    0.175942
    20  C    0.622218
    21  C   -0.081559
    22  H    0.171596
    23  O   -0.566048
    24  C   -0.285655
    25  H    0.135450
    26  H    0.128630
    27  C   -0.470695
    28  H    0.147186
    29  H    0.156199
    30  H    0.150463
    31  C   -0.444790
    32  H    0.164836
    33  H    0.156459
    34  H    0.144147
    35  N   -0.591513
    36  H    0.352127
    37  C   -0.058219
    38  H    0.192017
    39  C    0.625359
    40  C   -0.469103
    41  H    0.180880
    42  H    0.175739
    43  H    0.181815
    44  O   -0.532045
    45  N   -0.642923
    46  H    0.403360
    47  C   -0.077769
    48  H    0.203522
    49  C    0.665189
    50  C    0.172247
    51  H    0.155434
    52  O   -0.580398
    53  C   -0.481004
    54  H    0.132834
    55  H    0.202873
    56  H    0.157460
    57  O   -0.644406
    58  H    0.442746
    59  N   -0.601079
    60  H    0.404260
    61  C   -0.104929
    62  H    0.207706
    63  C    0.605938
    64  C   -0.079108
    65  H    0.229903
    66  H    0.220047
    67  O   -0.494888
    68  O   -0.622666
    69  H    0.461811
    70  N   -0.565200
    71  H    0.350715
    72  C   -0.258779
    73  H    0.226106
    74  H    0.212656
    75  C    0.626220
    76  O   -0.536481
    77  N   -0.607206
    78  H    0.347973
    79  C   -0.009165
    80  H    0.200921
    81  C    0.598935
    82  C   -0.318019
    83  H    0.156652
    84  H    0.151740
    85  O   -0.442669
    86  C   -0.262770
    87  H    0.159902
    88  H    0.174995
    89  C   -0.255506
    90  H    0.134055
    91  H    0.125987
    92  C   -0.144361
    93  H    0.126959
    94  H    0.146290
    95  N   -0.717352
    96  H    0.306850
    97  H    0.295808
    98  O   -0.579003
    99  H    0.421898
   100  H    0.457958
 Sum of Mulliken charges =   1.00000

 Dipole moment (field-independent basis, Debye):
    X=             20.3603    Y=             -2.4732    Z=             -4.9083  Tot=             21.0891
 Quadrupole moment (field-independent basis, Debye-Ang):
   XX=            -85.6278   YY=           -255.7271   ZZ=           -245.5915
   XY=             27.9586   XZ=            -99.6310   YZ=             10.2346

 Normal termination of Gaussian 16 at Mon Jun  6 06:21:51 2022.
