 Gaussian 16, Revision C.01,
 Gaussian 16:  ES64L-G16RevC.01  3-Jul-2019

 ----------------------------------------------------------------------
 # B3LYP/6-31G* empiricaldispersion=gd3bj guess=read geom=check nosymm
 integral(ultrafinegrid)
 ----------------------------------------------------------------------

 ------------------------------------------------------
 Candidate Structure: Conf:472 Charge calc in gas phase
 ------------------------------------------------------
 Structure from the checkpoint file:  "conf-472.chk"
 Charge =  1 Multiplicity = 1

                          Input orientation:
 ---------------------------------------------------------------------
 Center     Atomic      Atomic             Coordinates (Angstroms)
 Number     Number       Type             X           Y           Z
 ---------------------------------------------------------------------
      1          7           0       -1.647174    1.015601   -4.330632
      2          1           0       -2.632998    0.856481   -4.132936
      3          1           0       -1.460481    1.976401   -4.039571
      4          6           0       -0.827035    0.137144   -3.513236
      5          1           0       -1.286855   -0.859273   -3.493173
      6          6           0       -0.640487    0.655683   -2.075655
      7          6           0        0.590880    0.016378   -4.115602
      8          1           0        1.195308   -0.644622   -3.486926
      9          1           0        1.066155    1.004970   -4.073259
     10          8           0       -0.785609    1.851045   -1.811782
     11          6           0        0.576723   -0.481044   -5.557844
     12          1           0        0.125580   -1.481692   -5.625724
     13          1           0       -0.045833    0.166691   -6.180409
     14          6           0        1.957894   -0.578557   -6.149186
     15          8           0        3.004539   -0.644211   -5.507384
     16          8           0        1.948362   -0.604014   -7.480717
     17          7           0       -0.208657   -0.251839   -1.163054
     18          1           0       -0.071307   -1.211536   -1.450161
     19          6           0        0.260832    0.127275    0.174076
     20          1           0       -0.436616    0.877395    0.554382
     21          6           0        1.646686    0.780512    0.006400
     22          6           0        0.309186   -1.081378    1.104412
     23          1           0        0.663953   -0.731277    2.081690
     24          1           0        1.078565   -1.773091    0.739133
     25          8           0        2.695203    0.128110    0.098885
     26          6           0       -1.030912   -1.816884    1.282735
     27          1           0       -1.346941   -2.206042    0.303050
     28          6           0       -0.836251   -3.015139    2.220014
     29          1           0       -0.542647   -2.681187    3.222622
     30          1           0       -1.763124   -3.589434    2.318545
     31          1           0       -0.056683   -3.691994    1.851484
     32          6           0       -2.138956   -0.890268    1.798027
     33          1           0       -1.848102   -0.425306    2.748399
     34          1           0       -2.375146   -0.090505    1.087472
     35          1           0       -3.061139   -1.453489    1.973999
     36          7           0        1.592554    2.097274   -0.291445
     37          1           0        0.675536    2.471990   -0.525334
     38          6           0        2.770976    2.854767   -0.660635
     39          1           0        3.596709    2.433550   -0.074792
     40          6           0        2.668447    4.323039   -0.260842
     41          6           0        3.116123    2.723807   -2.161446
     42          1           0        2.460436    3.376151   -2.747723
     43          1           0        2.861539    1.699579   -2.442938
     44          8           0        3.367475    5.184112   -0.744984
     45          6           0        4.594032    3.022789   -2.468929
     46          1           0        4.722354    4.078284   -2.719098
     47          1           0        5.190281    2.886161   -1.560275
     48          6           0        5.196757    2.205097   -3.627077
     49          1           0        6.286615    2.318410   -3.630762
     50          1           0        4.836688    2.599383   -4.580937
     51          7           0        4.845514    0.770274   -3.662659
     52          1           0        4.503279    0.413403   -4.550067
     53          7           0        5.085107    0.209191   -1.385447
     54          1           0        4.423761    0.071143   -0.611749
     55          1           0        5.748258    0.960857   -1.274426
     56          7           0        3.814296   -1.095928   -2.792784
     57          1           0        3.793351   -1.816613   -2.086582
     58          1           0        3.350314   -1.228842   -3.689334
     59          6           0        4.592697   -0.020825   -2.615812
     60          8           0        1.740354    4.549387    0.684577
     61          1           0        1.762504    5.506610    0.880287
     62          1           0        2.867293   -0.714487   -7.794093
 ---------------------------------------------------------------------

 SCF Done:  E(RB3LYP) =  -1447.56007355     A.U. after    2 cycles

 Alpha  occ. eigenvalues --  -19.32411 -19.30109 -19.27838 -19.24311 -19.23926
 Alpha  occ. eigenvalues --  -19.23294 -14.50759 -14.50003 -14.49152 -14.47923
 Alpha  occ. eigenvalues --  -14.47165 -14.41383 -10.46506 -10.45655 -10.42700
 Alpha  occ. eigenvalues --  -10.40345 -10.39745 -10.35785 -10.35394 -10.34007
 Alpha  occ. eigenvalues --  -10.33580 -10.31374 -10.31026 -10.31002 -10.30839
 Alpha  occ. eigenvalues --  -10.28199 -10.27880 -10.25354 -10.25163  -1.23845
 Alpha  occ. eigenvalues --   -1.21119  -1.15689  -1.15336  -1.14666  -1.14487
 Alpha  occ. eigenvalues --   -1.12090  -1.04792  -1.04431  -1.03906  -1.03048
 Alpha  occ. eigenvalues --   -0.99427  -0.92224  -0.91037  -0.90421  -0.87645
 Alpha  occ. eigenvalues --   -0.85102  -0.82546  -0.81300  -0.77175  -0.76485
 Alpha  occ. eigenvalues --   -0.76030  -0.74710  -0.74093  -0.71666  -0.71094
 Alpha  occ. eigenvalues --   -0.70719  -0.69321  -0.69233  -0.68331  -0.65845
 Alpha  occ. eigenvalues --   -0.65120  -0.64590  -0.64085  -0.62977  -0.62011
 Alpha  occ. eigenvalues --   -0.60893  -0.60472  -0.60392  -0.59966  -0.59529
 Alpha  occ. eigenvalues --   -0.58879  -0.58256  -0.57981  -0.56967  -0.55726
 Alpha  occ. eigenvalues --   -0.55135  -0.54644  -0.54386  -0.53518  -0.53277
 Alpha  occ. eigenvalues --   -0.52960  -0.52555  -0.51628  -0.51474  -0.51289
 Alpha  occ. eigenvalues --   -0.49899  -0.49770  -0.49325  -0.48588  -0.48173
 Alpha  occ. eigenvalues --   -0.47784  -0.47301  -0.46938  -0.46646  -0.46227
 Alpha  occ. eigenvalues --   -0.45964  -0.45595  -0.45002  -0.44938  -0.42070
 Alpha  occ. eigenvalues --   -0.41910  -0.41459  -0.41317  -0.41238  -0.41101
 Alpha  occ. eigenvalues --   -0.40046  -0.39389  -0.38672  -0.37483  -0.36798
 Alpha  occ. eigenvalues --   -0.35497  -0.34225
 Alpha virt. eigenvalues --   -0.12650  -0.11918  -0.10332  -0.09687  -0.08651
 Alpha virt. eigenvalues --   -0.05850  -0.04898  -0.03768  -0.03024  -0.02634
 Alpha virt. eigenvalues --   -0.01976  -0.01015  -0.00421   0.00289   0.01131

 Mulliken charges:
               1
     1  N   -0.702167
     2  H    0.322487
     3  H    0.324509
     4  C   -0.089520
     5  H    0.151668
     6  C    0.608311
     7  C   -0.270354
     8  H    0.131415
     9  H    0.158549
    10  O   -0.538847
    11  C   -0.357562
    12  H    0.198063
    13  H    0.235041
    14  C    0.601446
    15  O   -0.522272
    16  O   -0.522389
    17  N   -0.594610
    18  H    0.336472
    19  C   -0.068634
    20  H    0.193584
    21  C    0.642605
    22  C   -0.287396
    23  H    0.164911
    24  H    0.145750
    25  O   -0.577198
    26  C   -0.076374
    27  H    0.114788
    28  C   -0.443829
    29  H    0.154418
    30  H    0.159877
    31  H    0.142124
    32  C   -0.455941
    33  H    0.152388
    34  H    0.149082
    35  H    0.162840
    36  N   -0.595318
    37  H    0.383170
    38  C   -0.054634
    39  H    0.188238
    40  C    0.589757
    41  C   -0.282153
    42  H    0.176589
    43  H    0.159557
    44  O   -0.447232
    45  C   -0.302368
    46  H    0.211373
    47  H    0.142181
    48  C   -0.160732
    49  H    0.193960
    50  H    0.185187
    51  N   -0.602428
    52  H    0.390789
    53  N   -0.753932
    54  H    0.415898
    55  H    0.363585
    56  N   -0.771190
    57  H    0.375154
    58  H    0.407134
    59  C    0.734221
    60  O   -0.550753
    61  H    0.431697
    62  H    0.429015
 Sum of Mulliken charges =   1.00000

 Dipole moment (field-independent basis, Debye):
    X=             12.1188    Y=              0.7342    Z=            -13.1119  Tot=             17.8697
 Quadrupole moment (field-independent basis, Debye-Ang):
   XX=           -107.2169   YY=           -148.6375   ZZ=            -97.6224
   XY=             11.9775   XZ=            -45.8675   YZ=              6.1209

 Normal termination of Gaussian 16 at Thu Jun 23 05:40:22 2022.
