 Gaussian 16, Revision C.01,
 Gaussian 16:  ES64L-G16RevC.01  3-Jul-2019

 ----------------------------------------------------------------------
 # B3LYP/6-31G* empiricaldispersion=gd3bj guess=read geom=check nosymm
 integral(ultrafinegrid)
 ----------------------------------------------------------------------

 ------------------------------------------------------
 Candidate Structure: Conf:474 Charge calc in gas phase
 ------------------------------------------------------
 Structure from the checkpoint file:  "conf-474.chk"
 Charge =  1 Multiplicity = 1

                          Input orientation:
 ---------------------------------------------------------------------
 Center     Atomic      Atomic             Coordinates (Angstroms)
 Number     Number       Type             X           Y           Z
 ---------------------------------------------------------------------
      1          7           0       -1.776000   -2.078782   -2.880034
      2          1           0       -2.705116   -1.692102   -3.038845
      3          1           0       -1.721399   -2.955358   -3.391536
      4          6           0       -0.740802   -1.137815   -3.312782
      5          1           0        0.203268   -1.700790   -3.328416
      6          6           0       -0.478133   -0.078949   -2.233779
      7          6           0       -0.937042   -0.476838   -4.686372
      8          1           0       -0.272524    0.387037   -4.752415
      9          1           0       -1.964251   -0.100169   -4.761859
     10          8           0        0.124173    0.965354   -2.490157
     11          6           0       -0.667519   -1.432403   -5.846691
     12          1           0       -1.250417   -2.357404   -5.770733
     13          1           0       -0.959905   -0.978587   -6.803328
     14          6           0        0.790665   -1.802420   -5.977042
     15          8           0        1.723297   -1.182795   -5.486314
     16          8           0        0.969327   -2.900985   -6.723915
     17          7           0       -0.870943   -0.421870   -0.986047
     18          1           0       -1.224349   -1.368884   -0.892454
     19          6           0       -0.279634    0.247814    0.157737
     20          1           0       -0.585809    1.298661    0.142423
     21          6           0        1.250503    0.177664    0.016307
     22          6           0       -0.719748   -0.417869    1.468306
     23          1           0       -0.232420    0.112865    2.296944
     24          1           0       -0.324431   -1.442158    1.479579
     25          8           0        1.808844   -0.818258   -0.441301
     26          6           0       -2.240036   -0.440131    1.709519
     27          1           0       -2.708536   -1.014960    0.897859
     28          6           0       -2.538294   -1.161548    3.029637
     29          1           0       -2.106025   -0.616568    3.878045
     30          1           0       -3.617534   -1.238482    3.198494
     31          1           0       -2.122319   -2.175526    3.035634
     32          6           0       -2.847916    0.967251    1.701619
     33          1           0       -2.371106    1.603483    2.458422
     34          1           0       -2.740109    1.456610    0.727627
     35          1           0       -3.917846    0.926493    1.931129
     36          7           0        1.928618    1.282691    0.419254
     37          1           0        1.444646    2.049368    0.868292
     38          6           0        3.364822    1.375732    0.301222
     39          1           0        3.733036    0.356426    0.159759
     40          6           0        3.934288    1.939639    1.593576
     41          6           0        3.813009    2.277614   -0.883052
     42          1           0        4.904159    2.192966   -0.977801
     43          1           0        3.622761    3.323544   -0.612923
     44          8           0        3.285292    2.517188    2.434187
     45          6           0        3.094251    2.007324   -2.212420
     46          1           0        2.017144    2.131096   -2.078604
     47          1           0        3.421016    2.760920   -2.939591
     48          6           0        3.278051    0.614390   -2.820511
     49          1           0        2.686358    0.539154   -3.732783
     50          1           0        2.931914   -0.164871   -2.137170
     51          7           0        4.695600    0.355741   -3.150612
     52          1           0        5.353414    0.463159   -2.388995
     53          7           0        4.457236   -0.405915   -5.344747
     54          1           0        4.822447   -0.346425   -6.284233
     55          1           0        3.480087   -0.688616   -5.246620
     56          7           0        6.542199    0.153578   -4.532628
     57          1           0        7.007186   -0.410502   -5.229027
     58          1           0        7.126902    0.626135   -3.859185
     59          6           0        5.209663    0.032409   -4.331026
     60          8           0        5.270835    1.763532    1.659237
     61          1           0        5.572337    2.181235    2.489224
     62          1           0        1.926986   -3.076163   -6.787187
 ---------------------------------------------------------------------

 SCF Done:  E(RB3LYP) =  -1447.55276153     A.U. after    2 cycles

 Alpha  occ. eigenvalues --  -19.31355 -19.29108 -19.26597 -19.23386 -19.20236
 Alpha  occ. eigenvalues --  -19.19841 -14.51781 -14.51667 -14.50604 -14.45158
 Alpha  occ. eigenvalues --  -14.43376 -14.41659 -10.47820 -10.44299 -10.41388
 Alpha  occ. eigenvalues --  -10.37340 -10.36477 -10.33406 -10.33001 -10.31354
 Alpha  occ. eigenvalues --  -10.31321 -10.30372 -10.29651 -10.28385 -10.27800
 Alpha  occ. eigenvalues --  -10.26543 -10.26078 -10.23872 -10.23587  -1.22606
 Alpha  occ. eigenvalues --   -1.19977  -1.16243  -1.13542  -1.12785  -1.11318
 Alpha  occ. eigenvalues --   -1.11018  -1.05528  -1.04164  -1.01934  -1.00898
 Alpha  occ. eigenvalues --   -0.98198  -0.90540  -0.89336  -0.88470  -0.86080
 Alpha  occ. eigenvalues --   -0.82854  -0.80832  -0.80182  -0.77728  -0.75135
 Alpha  occ. eigenvalues --   -0.74700  -0.73644  -0.73330  -0.72088  -0.70274
 Alpha  occ. eigenvalues --   -0.68982  -0.68004  -0.67791  -0.65868  -0.65585
 Alpha  occ. eigenvalues --   -0.64802  -0.63488  -0.61666  -0.61231  -0.60616
 Alpha  occ. eigenvalues --   -0.60131  -0.59457  -0.58705  -0.58276  -0.57662
 Alpha  occ. eigenvalues --   -0.56726  -0.56594  -0.56131  -0.55800  -0.54284
 Alpha  occ. eigenvalues --   -0.53938  -0.53405  -0.52643  -0.52621  -0.51895
 Alpha  occ. eigenvalues --   -0.51200  -0.50833  -0.49806  -0.49719  -0.49519
 Alpha  occ. eigenvalues --   -0.48683  -0.47923  -0.47792  -0.46802  -0.46235
 Alpha  occ. eigenvalues --   -0.45626  -0.45156  -0.45020  -0.44801  -0.44402
 Alpha  occ. eigenvalues --   -0.43994  -0.43940  -0.43282  -0.42642  -0.42383
 Alpha  occ. eigenvalues --   -0.41124  -0.40132  -0.39960  -0.39594  -0.39495
 Alpha  occ. eigenvalues --   -0.39214  -0.37105  -0.35534  -0.34808  -0.34601
 Alpha  occ. eigenvalues --   -0.33375  -0.32307
 Alpha virt. eigenvalues --   -0.11995  -0.11023  -0.08522  -0.08114  -0.07254
 Alpha virt. eigenvalues --   -0.05643  -0.04436  -0.04006  -0.02987  -0.01516
 Alpha virt. eigenvalues --   -0.01028  -0.00489  -0.00023   0.01283   0.01842

 Mulliken charges:
               1
     1  N   -0.741471
     2  H    0.317603
     3  H    0.319803
     4  C   -0.090205
     5  H    0.178948
     6  C    0.637283
     7  C   -0.270318
     8  H    0.190916
     9  H    0.152199
    10  O   -0.555825
    11  C   -0.367295
    12  H    0.179436
    13  H    0.207782
    14  C    0.591363
    15  O   -0.493709
    16  O   -0.530460
    17  N   -0.595410
    18  H    0.367401
    19  C   -0.033918
    20  H    0.164944
    21  C    0.641859
    22  C   -0.297212
    23  H    0.152158
    24  H    0.158132
    25  O   -0.550711
    26  C   -0.073752
    27  H    0.129543
    28  C   -0.444501
    29  H    0.149031
    30  H    0.155547
    31  H    0.146949
    32  C   -0.455033
    33  H    0.145200
    34  H    0.149800
    35  H    0.158523
    36  N   -0.595639
    37  H    0.350906
    38  C   -0.049350
    39  H    0.195125
    40  C    0.591389
    41  C   -0.295363
    42  H    0.136349
    43  H    0.171618
    44  O   -0.450215
    45  C   -0.290669
    46  H    0.226492
    47  H    0.148580
    48  C   -0.211617
    49  H    0.196501
    50  H    0.239147
    51  N   -0.590941
    52  H    0.358420
    53  N   -0.790014
    54  H    0.367803
    55  H    0.434785
    56  N   -0.762486
    57  H    0.377423
    58  H    0.375440
    59  C    0.799594
    60  O   -0.570614
    61  H    0.427385
    62  H    0.415352
 Sum of Mulliken charges =   1.00000

 Dipole moment (field-independent basis, Debye):
    X=             17.2599    Y=             -1.6539    Z=            -18.4387  Tot=             25.3106
 Quadrupole moment (field-independent basis, Debye-Ang):
   XX=            -34.4341   YY=           -160.4899   ZZ=            -56.6150
   XY=             10.8948   XZ=            -72.2025   YZ=             22.9275

 Normal termination of Gaussian 16 at Thu Jun 23 05:40:19 2022.
