 Gaussian 16, Revision C.01,
 Gaussian 16:  ES64L-G16RevC.01  3-Jul-2019

 ----------------------------------------------------------------------
 # B3LYP/6-31G* empiricaldispersion=gd3bj guess=read geom=check nosymm
 integral(ultrafinegrid)
 ----------------------------------------------------------------------

 ------------------------------------------------------
 Candidate Structure: Conf:549 Charge calc in gas phase
 ------------------------------------------------------
 Structure from the checkpoint file:  "conf-549.chk"
 Charge =  1 Multiplicity = 1

                          Input orientation:
 ---------------------------------------------------------------------
 Center     Atomic      Atomic             Coordinates (Angstroms)
 Number     Number       Type             X           Y           Z
 ---------------------------------------------------------------------
      1          7           0       -2.216639    0.615493   -4.441175
      2          1           0       -3.115258    0.555731   -3.965921
      3          1           0       -2.003903    1.609890   -4.512098
      4          6           0       -1.186462   -0.032974   -3.644081
      5          1           0       -1.556471   -1.019899   -3.351881
      6          6           0       -0.837644    0.748129   -2.366628
      7          6           0        0.069559   -0.224745   -4.522617
      8          1           0        0.422854    0.760986   -4.853237
      9          1           0       -0.258395   -0.752031   -5.422888
     10          8           0       -0.920678    1.997984   -2.357114
     11          6           0        1.258905   -0.962193   -3.866720
     12          1           0        2.060851   -1.066347   -4.601188
     13          1           0        1.636951   -0.391658   -3.012556
     14          6           0        0.869759   -2.332132   -3.366355
     15          8           0        0.219799   -2.549558   -2.351321
     16          8           0        1.281917   -3.321768   -4.166843
     17          7           0       -0.462256    0.017503   -1.312701
     18          1           0       -0.306582   -0.981641   -1.482501
     19          6           0       -0.005305    0.562017   -0.051393
     20          1           0       -0.567654    1.483206    0.132770
     21          6           0        1.485812    0.968448   -0.155467
     22          6           0       -0.293731   -0.445777    1.077141
     23          1           0       -0.021991    0.001763    2.041382
     24          1           0        0.356692   -1.320401    0.945569
     25          8           0        2.084235    1.011150   -1.232070
     26          6           0       -1.761927   -0.902133    1.161536
     27          1           0       -2.008193   -1.426675    0.228992
     28          6           0       -1.922540   -1.895195    2.318877
     29          1           0       -1.706905   -1.414862    3.281475
     30          1           0       -2.946239   -2.280697    2.361544
     31          1           0       -1.245523   -2.749873    2.209893
     32          6           0       -2.725908    0.280849    1.311264
     33          1           0       -2.478637    0.879534    2.197779
     34          1           0       -2.710810    0.941751    0.437001
     35          1           0       -3.754212   -0.074636    1.431705
     36          7           0        2.059417    1.319530    1.017444
     37          1           0        1.556162    1.225049    1.892398
     38          6           0        3.457230    1.693244    1.164680
     39          1           0        4.099454    0.893787    0.775199
     40          6           0        3.706942    1.812759    2.663099
     41          6           0        3.821833    2.995658    0.419466
     42          1           0        3.703367    2.774239   -0.642621
     43          1           0        4.879041    3.213057    0.599088
     44          8           0        2.843943    1.692453    3.506287
     45          6           0        2.937749    4.181763    0.818946
     46          1           0        1.922846    3.820269    1.010085
     47          1           0        3.287167    4.634568    1.754048
     48          6           0        2.894270    5.290886   -0.242528
     49          1           0        3.872194    5.767188   -0.343116
     50          1           0        2.193978    6.082217    0.051162
     51          7           0        2.555797    4.801400   -1.588884
     52          1           0        3.262837    4.873618   -2.306952
     53          7           0        0.385555    4.084895   -1.124721
     54          1           0       -0.350020    3.401785   -1.343197
     55          1           0        0.243330    4.793875   -0.421793
     56          7           0        1.432854    3.398265   -3.060852
     57          1           0        0.593728    2.828667   -3.191365
     58          1           0        2.294914    2.961561   -3.360633
     59          6           0        1.463395    4.092477   -1.908792
     60          8           0        4.992011    2.084969    2.930657
     61          1           0        5.085070    2.142251    3.901383
     62          1           0        0.966081   -4.163273   -3.782698
 ---------------------------------------------------------------------

 SCF Done:  E(RB3LYP) =  -1447.57307466     A.U. after    2 cycles

 Alpha  occ. eigenvalues --  -19.31246 -19.29807 -19.25900 -19.24673 -19.24204
 Alpha  occ. eigenvalues --  -19.23573 -14.51637 -14.50255 -14.49398 -14.47576
 Alpha  occ. eigenvalues --  -14.46850 -14.40538 -10.46899 -10.43830 -10.42615
 Alpha  occ. eigenvalues --  -10.40515 -10.39923 -10.36496 -10.35755 -10.34594
 Alpha  occ. eigenvalues --  -10.32205 -10.31247 -10.30675 -10.29511 -10.29396
 Alpha  occ. eigenvalues --  -10.29303 -10.28071 -10.26046 -10.25302  -1.22411
 Alpha  occ. eigenvalues --   -1.20993  -1.16081  -1.15422  -1.14711  -1.13551
 Alpha  occ. eigenvalues --   -1.11762  -1.05518  -1.04423  -1.04050  -1.03197
 Alpha  occ. eigenvalues --   -0.98384  -0.92761  -0.91046  -0.89144  -0.88128
 Alpha  occ. eigenvalues --   -0.85065  -0.81641  -0.80365  -0.77698  -0.77035
 Alpha  occ. eigenvalues --   -0.75909  -0.74894  -0.74213  -0.72785  -0.71987
 Alpha  occ. eigenvalues --   -0.69896  -0.69201  -0.68723  -0.67566  -0.65668
 Alpha  occ. eigenvalues --   -0.65306  -0.64135  -0.63633  -0.62155  -0.61254
 Alpha  occ. eigenvalues --   -0.60851  -0.60341  -0.59913  -0.59107  -0.58935
 Alpha  occ. eigenvalues --   -0.58252  -0.57921  -0.57484  -0.56264  -0.55904
 Alpha  occ. eigenvalues --   -0.55443  -0.54867  -0.54664  -0.53871  -0.53713
 Alpha  occ. eigenvalues --   -0.52778  -0.52369  -0.51891  -0.51519  -0.51007
 Alpha  occ. eigenvalues --   -0.50466  -0.50086  -0.49019  -0.48498  -0.48200
 Alpha  occ. eigenvalues --   -0.47757  -0.47131  -0.46504  -0.46359  -0.46086
 Alpha  occ. eigenvalues --   -0.45409  -0.45264  -0.44329  -0.43455  -0.42253
 Alpha  occ. eigenvalues --   -0.41981  -0.41878  -0.41616  -0.41458  -0.40353
 Alpha  occ. eigenvalues --   -0.39523  -0.38932  -0.38083  -0.37871  -0.37330
 Alpha  occ. eigenvalues --   -0.36176  -0.33253
 Alpha virt. eigenvalues --   -0.12197  -0.10869  -0.09956  -0.09621  -0.09190
 Alpha virt. eigenvalues --   -0.07013  -0.05303  -0.03264  -0.03225  -0.01993
 Alpha virt. eigenvalues --   -0.01236  -0.00875   0.00350   0.00690   0.00914

 Mulliken charges:
               1
     1  N   -0.686114
     2  H    0.314738
     3  H    0.308506
     4  C   -0.100520
     5  H    0.173459
     6  C    0.608653
     7  C   -0.268156
     8  H    0.140326
     9  H    0.196636
    10  O   -0.608554
    11  C   -0.394678
    12  H    0.186590
    13  H    0.214091
    14  C    0.600268
    15  O   -0.491267
    16  O   -0.534284
    17  N   -0.589487
    18  H    0.406386
    19  C   -0.082216
    20  H    0.176029
    21  C    0.643062
    22  C   -0.306010
    23  H    0.149257
    24  H    0.163668
    25  O   -0.551375
    26  C   -0.070980
    27  H    0.141510
    28  C   -0.448549
    29  H    0.149518
    30  H    0.162130
    31  H    0.152887
    32  C   -0.458657
    33  H    0.143968
    34  H    0.141764
    35  H    0.167408
    36  N   -0.633681
    37  H    0.372217
    38  C   -0.023407
    39  H    0.206496
    40  C    0.587559
    41  C   -0.286237
    42  H    0.170324
    43  H    0.182394
    44  O   -0.459183
    45  C   -0.294162
    46  H    0.157679
    47  H    0.177654
    48  C   -0.165786
    49  H    0.192179
    50  H    0.182758
    51  N   -0.591975
    52  H    0.365307
    53  N   -0.775804
    54  H    0.426163
    55  H    0.369802
    56  N   -0.759322
    57  H    0.403425
    58  H    0.364698
    59  C    0.777488
    60  O   -0.558138
    61  H    0.435197
    62  H    0.426346
 Sum of Mulliken charges =   1.00000

 Dipole moment (field-independent basis, Debye):
    X=              8.6850    Y=             11.4103    Z=             -3.3112  Tot=             14.7169
 Quadrupole moment (field-independent basis, Debye-Ang):
   XX=           -127.5298   YY=            -95.3384   ZZ=           -145.0612
   XY=             35.5191   XZ=             -0.9829   YZ=             -0.5909

 Normal termination of Gaussian 16 at Thu Jun 23 05:40:22 2022.
