 Gaussian 16, Revision C.01,
 Gaussian 16:  ES64L-G16RevC.01  3-Jul-2019

 ----------------------------------------------------------------------
 # B3LYP/6-31G* empiricaldispersion=gd3bj guess=read geom=check nosymm
 integral(ultrafinegrid)
 ----------------------------------------------------------------------

 ------------------------------------------------------
 Candidate Structure: Conf:684 Charge calc in gas phase
 ------------------------------------------------------
 Structure from the checkpoint file:  "conf-684.chk"
 Charge =  1 Multiplicity = 1

                          Input orientation:
 ---------------------------------------------------------------------
 Center     Atomic      Atomic             Coordinates (Angstroms)
 Number     Number       Type             X           Y           Z
 ---------------------------------------------------------------------
      1          7           0       -3.225594    0.950168   -4.689930
      2          1           0       -4.031217    0.562850   -5.175336
      3          1           0       -3.530256    1.788708   -4.202019
      4          6           0       -2.719357   -0.015364   -3.716908
      5          1           0       -3.508599   -0.415410   -3.051772
      6          6           0       -1.801413    0.763630   -2.763167
      7          6           0       -2.119035   -1.219537   -4.469851
      8          1           0       -2.948298   -1.674767   -5.022274
      9          1           0       -1.768509   -1.996020   -3.782290
     10          8           0       -1.951815    1.991196   -2.621183
     11          6           0       -1.009326   -0.861831   -5.479097
     12          1           0       -0.879057   -1.710693   -6.160324
     13          1           0       -1.281936    0.020067   -6.058406
     14          6           0        0.317765   -0.621819   -4.795248
     15          8           0        0.976782    0.404572   -4.872358
     16          8           0        0.680709   -1.662440   -4.039953
     17          7           0       -0.902896    0.055817   -2.053929
     18          1           0       -0.769408   -0.922246   -2.277616
     19          6           0       -0.045045    0.602081   -1.012771
     20          1           0       -0.316658    1.652663   -0.914184
     21          6           0        1.430737    0.467862   -1.405143
     22          6           0       -0.300621   -0.133738    0.319261
     23          1           0       -0.058313   -1.194152    0.172738
     24          1           0       -1.377387   -0.073346    0.519324
     25          8           0        1.867919   -0.568905   -1.909167
     26          6           0        0.478014    0.406592    1.531438
     27          1           0        1.552077    0.342738    1.317482
     28          6           0        0.138490    1.872875    1.830598
     29          1           0       -0.931769    1.990162    2.040254
     30          1           0        0.690399    2.224616    2.707808
     31          1           0        0.385628    2.549488    1.001943
     32          6           0        0.191921   -0.472005    2.755634
     33          1           0       -0.871953   -0.442412    3.020140
     34          1           0        0.463443   -1.516426    2.568173
     35          1           0        0.760829   -0.127265    3.625221
     36          7           0        2.225910    1.530761   -1.128070
     37          1           0        1.842241    2.274143   -0.559353
     38          6           0        3.673836    1.449098   -1.275565
     39          1           0        3.880856    0.478732   -1.731797
     40          6           0        4.412503    1.485527    0.058934
     41          6           0        4.236028    2.571828   -2.170543
     42          1           0        5.323066    2.464220   -2.189170
     43          1           0        4.040076    3.530995   -1.670954
     44          8           0        5.582567    1.225350    0.177610
     45          6           0        3.659095    2.559776   -3.600609
     46          1           0        4.449586    2.327772   -4.321604
     47          1           0        2.917348    1.760384   -3.701210
     48          6           0        3.031008    3.896186   -4.019176
     49          1           0        2.625500    3.835210   -5.032492
     50          1           0        3.773900    4.697935   -4.021750
     51          7           0        1.954111    4.343384   -3.121965
     52          1           0        2.235322    4.842944   -2.290296
     53          7           0        0.303589    2.967140   -4.024026
     54          1           0       -0.654280    2.628315   -3.949739
     55          1           0        0.924007    2.381648   -4.574921
     56          7           0       -0.118373    4.141081   -2.084826
     57          1           0       -1.018554    3.663423   -2.073366
     58          1           0       -0.068859    5.059205   -1.664776
     59          6           0        0.725049    3.810292   -3.092336
     60          8           0        3.626048    1.908264    1.080503
     61          1           0        4.188721    1.926577    1.878617
     62          1           0        1.392723   -1.370657   -3.419689
 ---------------------------------------------------------------------

 SCF Done:  E(RB3LYP) =  -1447.57263888     A.U. after    1 cycles

 Alpha  occ. eigenvalues --  -19.31158 -19.28413 -19.25192 -19.24918 -19.24825
 Alpha  occ. eigenvalues --  -19.24460 -14.51999 -14.50709 -14.49789 -14.49401
 Alpha  occ. eigenvalues --  -14.49161 -14.41666 -10.47373 -10.43124 -10.42308
 Alpha  occ. eigenvalues --  -10.41968 -10.41910 -10.36086 -10.35668 -10.35623
 Alpha  occ. eigenvalues --  -10.33872 -10.31462 -10.30897 -10.30150 -10.29680
 Alpha  occ. eigenvalues --  -10.29325 -10.29087 -10.27720 -10.26214  -1.21748
 Alpha  occ. eigenvalues --   -1.20272  -1.17152  -1.16560  -1.16015  -1.12802
 Alpha  occ. eigenvalues --   -1.11266  -1.06050  -1.05736  -1.05569  -1.03497
 Alpha  occ. eigenvalues --   -0.99551  -0.93118  -0.91846  -0.89319  -0.88362
 Alpha  occ. eigenvalues --   -0.86159  -0.81692  -0.81073  -0.78357  -0.77999
 Alpha  occ. eigenvalues --   -0.76556  -0.75278  -0.74044  -0.73349  -0.72259
 Alpha  occ. eigenvalues --   -0.71329  -0.71234  -0.69509  -0.68818  -0.66870
 Alpha  occ. eigenvalues --   -0.65295  -0.64841  -0.64028  -0.62978  -0.61396
 Alpha  occ. eigenvalues --   -0.60795  -0.60462  -0.60257  -0.59576  -0.59093
 Alpha  occ. eigenvalues --   -0.58549  -0.58367  -0.58085  -0.57138  -0.56376
 Alpha  occ. eigenvalues --   -0.56065  -0.55466  -0.54770  -0.54653  -0.54046
 Alpha  occ. eigenvalues --   -0.53832  -0.53108  -0.52080  -0.51508  -0.51095
 Alpha  occ. eigenvalues --   -0.51026  -0.50450  -0.50285  -0.49237  -0.48509
 Alpha  occ. eigenvalues --   -0.47652  -0.47588  -0.47281  -0.46936  -0.46398
 Alpha  occ. eigenvalues --   -0.46265  -0.46222  -0.45154  -0.43680  -0.43196
 Alpha  occ. eigenvalues --   -0.42858  -0.42651  -0.42196  -0.41592  -0.40877
 Alpha  occ. eigenvalues --   -0.40676  -0.39561  -0.39128  -0.37836  -0.37450
 Alpha  occ. eigenvalues --   -0.36983  -0.34199
 Alpha virt. eigenvalues --   -0.12406  -0.11607  -0.10976  -0.10189  -0.09157
 Alpha virt. eigenvalues --   -0.08003  -0.04896  -0.03834  -0.03447  -0.02150
 Alpha virt. eigenvalues --   -0.02030  -0.00219   0.00421   0.00496   0.01233

 Mulliken charges:
               1
     1  N   -0.728760
     2  H    0.317552
     3  H    0.327744
     4  C   -0.069099
     5  H    0.171087
     6  C    0.622817
     7  C   -0.312116
     8  H    0.174429
     9  H    0.171378
    10  O   -0.590199
    11  C   -0.329427
    12  H    0.196041
    13  H    0.200092
    14  C    0.574483
    15  O   -0.512216
    16  O   -0.578408
    17  N   -0.587172
    18  H    0.364132
    19  C   -0.085642
    20  H    0.171499
    21  C    0.656361
    22  C   -0.261692
    23  H    0.161466
    24  H    0.160118
    25  O   -0.565061
    26  C   -0.102156
    27  H    0.147156
    28  C   -0.447651
    29  H    0.158779
    30  H    0.164596
    31  H    0.107542
    32  C   -0.447121
    33  H    0.153980
    34  H    0.158379
    35  H    0.157613
    36  N   -0.600488
    37  H    0.354385
    38  C   -0.082499
    39  H    0.234922
    40  C    0.598743
    41  C   -0.282755
    42  H    0.207772
    43  H    0.123008
    44  O   -0.428774
    45  C   -0.293886
    46  H    0.186746
    47  H    0.188140
    48  C   -0.192114
    49  H    0.197868
    50  H    0.195083
    51  N   -0.581299
    52  H    0.353317
    53  N   -0.772092
    54  H    0.401477
    55  H    0.414610
    56  N   -0.799278
    57  H    0.414089
    58  H    0.367458
    59  C    0.782766
    60  O   -0.578330
    61  H    0.431553
    62  H    0.459052
 Sum of Mulliken charges =   1.00000

 Dipole moment (field-independent basis, Debye):
    X=              1.3731    Y=             12.0724    Z=             -9.7696  Tot=             15.5908
 Quadrupole moment (field-independent basis, Debye-Ang):
   XX=           -144.1687   YY=           -112.4782   ZZ=           -121.1321
   XY=             29.0948   XZ=              4.5715   YZ=            -20.5556

 Normal termination of Gaussian 16 at Thu Jun 23 05:40:11 2022.
