 Gaussian 16, Revision C.01,
 Gaussian 16:  ES64L-G16RevC.01  3-Jul-2019

 ----------------------------------------------------------------------
 # B3LYP/6-31G* empiricaldispersion=gd3bj guess=read geom=check nosymm
 integral(ultrafinegrid)
 ----------------------------------------------------------------------

 ------------------------------------------------------
 Candidate Structure: Conf:797 Charge calc in gas phase
 ------------------------------------------------------
 Structure from the checkpoint file:  "conf-797.chk"
 Charge =  1 Multiplicity = 1

                          Input orientation:
 ---------------------------------------------------------------------
 Center     Atomic      Atomic             Coordinates (Angstroms)
 Number     Number       Type             X           Y           Z
 ---------------------------------------------------------------------
      1          7           0       -0.744588   -0.927388   -4.819995
      2          1           0       -1.746272   -1.110068   -4.799614
      3          1           0       -0.657837    0.088184   -4.874883
      4          6           0       -0.142785   -1.359434   -3.562633
      5          1           0       -0.595002   -2.312705   -3.266162
      6          6           0       -0.312967   -0.333329   -2.433655
      7          6           0        1.377390   -1.594560   -3.740206
      8          1           0        1.513044   -2.430816   -4.431177
      9          1           0        1.819460   -1.876580   -2.779560
     10          8           0       -0.334776    0.875564   -2.660083
     11          6           0        2.086793   -0.341103   -4.273297
     12          1           0        2.141257   -0.338370   -5.368189
     13          1           0        1.528593    0.562502   -4.003716
     14          6           0        3.471104   -0.151002   -3.726767
     15          8           0        4.097024   -0.962023   -3.065397
     16          8           0        3.968602    1.074823   -4.016064
     17          7           0       -0.356676   -0.829577   -1.162183
     18          1           0       -0.114931   -1.804039   -1.033889
     19          6           0       -0.079244    0.053138   -0.040905
     20          1           0       -0.736215    0.920204   -0.137765
     21          6           0        1.386136    0.502293   -0.109212
     22          6           0       -0.352238   -0.693621    1.276598
     23          1           0        0.324378   -1.558607    1.319180
     24          1           0       -1.374831   -1.088035    1.221361
     25          8           0        2.279991   -0.263585   -0.472869
     26          6           0       -0.197103    0.130715    2.566007
     27          1           0        0.828991    0.521761    2.607196
     28          6           0       -1.163856    1.320828    2.614497
     29          1           0       -2.203725    0.981472    2.533991
     30          1           0       -1.063159    1.863534    3.560122
     31          1           0       -0.989331    2.039914    1.805902
     32          6           0       -0.402592   -0.780038    3.783259
     33          1           0       -1.418428   -1.193415    3.794970
     34          1           0        0.300779   -1.620660    3.777594
     35          1           0       -0.258875   -0.225347    4.716453
     36          7           0        1.669857    1.761172    0.321590
     37          1           0        0.927125    2.445988    0.342953
     38          6           0        3.055181    2.219096    0.269742
     39          1           0        3.025385    3.291951    0.490919
     40          6           0        3.574408    2.160544   -1.175500
     41          6           0        3.887394    1.513148    1.385310
     42          1           0        3.274452    0.693296    1.767948
     43          1           0        3.978751    2.228772    2.207889
     44          8           0        4.723390    1.930294   -1.520289
     45          6           0        5.289555    0.963866    1.086067
     46          1           0        5.892460    1.689043    0.536414
     47          1           0        5.775717    0.799163    2.058920
     48          6           0        5.278189   -0.363797    0.325427
     49          1           0        4.826576   -0.239882   -0.653662
     50          1           0        4.696291   -1.120040    0.863673
     51          7           0        6.666414   -0.836948    0.177635
     52          1           0        7.283769   -0.641447    0.955529
     53          7           0        6.544169   -1.704531   -1.986655
     54          1           0        6.883932   -2.397432   -2.638091
     55          1           0        5.643745   -1.273511   -2.223947
     56          7           0        8.416308   -2.076048   -0.690750
     57          1           0        8.966659   -2.315079   -1.502705
     58          1           0        8.905412   -2.031296    0.190727
     59          6           0        7.188207   -1.526887   -0.835457
     60          8           0        2.604108    2.489711   -2.030467
     61          1           0        2.950766    2.392379   -2.943204
     62          1           0        4.747961    1.232892   -3.437812
 ---------------------------------------------------------------------

 SCF Done:  E(RB3LYP) =  -1447.55024596     A.U. after    3 cycles

 Alpha  occ. eigenvalues --  -19.30259 -19.29698 -19.25680 -19.25347 -19.22400
 Alpha  occ. eigenvalues --  -19.20361 -14.51706 -14.51669 -14.50108 -14.46795
 Alpha  occ. eigenvalues --  -14.44682 -14.38697 -10.47762 -10.43498 -10.43274
 Alpha  occ. eigenvalues --  -10.38771 -10.36655 -10.35397 -10.33969 -10.32476
 Alpha  occ. eigenvalues --  -10.30471 -10.30071 -10.30039 -10.28653 -10.27851
 Alpha  occ. eigenvalues --  -10.27554 -10.27190 -10.25521 -10.25025  -1.22017
 Alpha  occ. eigenvalues --   -1.20927  -1.16172  -1.14382  -1.12591  -1.12460
 Alpha  occ. eigenvalues --   -1.12070  -1.05601  -1.03960  -1.03263  -1.01366
 Alpha  occ. eigenvalues --   -0.96522  -0.91381  -0.89942  -0.87999  -0.86735
 Alpha  occ. eigenvalues --   -0.83720  -0.81158  -0.79834  -0.77779  -0.76360
 Alpha  occ. eigenvalues --   -0.74886  -0.74405  -0.73444  -0.72472  -0.70322
 Alpha  occ. eigenvalues --   -0.69916  -0.68208  -0.67404  -0.66249  -0.65346
 Alpha  occ. eigenvalues --   -0.64756  -0.64161  -0.63113  -0.61400  -0.60657
 Alpha  occ. eigenvalues --   -0.60359  -0.60024  -0.59300  -0.58801  -0.58603
 Alpha  occ. eigenvalues --   -0.57908  -0.57169  -0.56845  -0.55860  -0.55115
 Alpha  occ. eigenvalues --   -0.54048  -0.53965  -0.52732  -0.52219  -0.51617
 Alpha  occ. eigenvalues --   -0.51320  -0.51095  -0.50621  -0.50504  -0.49613
 Alpha  occ. eigenvalues --   -0.49421  -0.48994  -0.47631  -0.47371  -0.46530
 Alpha  occ. eigenvalues --   -0.46278  -0.45990  -0.45366  -0.44969  -0.44393
 Alpha  occ. eigenvalues --   -0.44302  -0.43986  -0.43104  -0.42695  -0.42356
 Alpha  occ. eigenvalues --   -0.42264  -0.41392  -0.41060  -0.40922  -0.40212
 Alpha  occ. eigenvalues --   -0.39640  -0.39060  -0.36523  -0.35890  -0.34827
 Alpha  occ. eigenvalues --   -0.34005  -0.31157
 Alpha virt. eigenvalues --   -0.11479  -0.10866  -0.10058  -0.08481  -0.08057
 Alpha virt. eigenvalues --   -0.06445  -0.04199  -0.03227  -0.02885  -0.01652
 Alpha virt. eigenvalues --   -0.01010  -0.00288   0.00126   0.00468   0.01695

 Mulliken charges:
               1
     1  N   -0.701888
     2  H    0.314126
     3  H    0.319066
     4  C   -0.107242
     5  H    0.146173
     6  C    0.613457
     7  C   -0.254322
     8  H    0.170990
     9  H    0.170610
    10  O   -0.532888
    11  C   -0.386349
    12  H    0.213858
    13  H    0.208783
    14  C    0.608111
    15  O   -0.490491
    16  O   -0.590700
    17  N   -0.588531
    18  H    0.336124
    19  C   -0.051982
    20  H    0.180379
    21  C    0.643514
    22  C   -0.288012
    23  H    0.143217
    24  H    0.165558
    25  O   -0.556258
    26  C   -0.089486
    27  H    0.130518
    28  C   -0.448590
    29  H    0.159774
    30  H    0.160508
    31  H    0.125055
    32  C   -0.444499
    33  H    0.154758
    34  H    0.143468
    35  H    0.155615
    36  N   -0.588995
    37  H    0.357291
    38  C   -0.039714
    39  H    0.199099
    40  C    0.624450
    41  C   -0.283816
    42  H    0.180176
    43  H    0.165674
    44  O   -0.524491
    45  C   -0.293419
    46  H    0.185036
    47  H    0.139693
    48  C   -0.138609
    49  H    0.221804
    50  H    0.184763
    51  N   -0.614621
    52  H    0.351813
    53  N   -0.793583
    54  H    0.369664
    55  H    0.442765
    56  N   -0.766078
    57  H    0.378212
    58  H    0.374803
    59  C    0.819792
    60  O   -0.561625
    61  H    0.445307
    62  H    0.432186
 Sum of Mulliken charges =   1.00000

 Dipole moment (field-independent basis, Debye):
    X=             24.8082    Y=             -3.3506    Z=             -1.0115  Tot=             25.0538
 Quadrupole moment (field-independent basis, Debye-Ang):
   XX=             29.8813   YY=           -148.7369   ZZ=           -149.3003
   XY=            -31.6761   XZ=            -14.8418   YZ=             11.0075

 Normal termination of Gaussian 16 at Thu Jun 23 05:40:36 2022.
