 Gaussian 16, Revision C.01,
 Gaussian 16:  ES64L-G16RevC.01  3-Jul-2019

 ----------------------------------------------------------------------
 # B3LYP/6-31G* empiricaldispersion=gd3bj guess=read geom=check nosymm
 integral(ultrafinegrid)
 ----------------------------------------------------------------------

 ------------------------------------------------------
 Candidate Structure: Conf:883 Charge calc in gas phase
 ------------------------------------------------------
 Structure from the checkpoint file:  "conf-883.chk"
 Charge =  1 Multiplicity = 1

                          Input orientation:
 ---------------------------------------------------------------------
 Center     Atomic      Atomic             Coordinates (Angstroms)
 Number     Number       Type             X           Y           Z
 ---------------------------------------------------------------------
      1          7           0       -1.496537   -0.060849   -4.659530
      2          1           0       -2.507932   -0.067602   -4.546006
      3          1           0       -1.207254    0.914370   -4.571729
      4          6           0       -0.863136   -0.807105   -3.582311
      5          1           0       -1.447056   -1.713778   -3.383361
      6          6           0       -0.700837    0.024233   -2.302954
      7          6           0        0.572588   -1.209976   -3.998823
      8          1           0        1.049872   -1.761148   -3.178511
      9          1           0        1.140114   -0.285007   -4.141552
     10          8           0       -0.516427    1.241033   -2.362785
     11          6           0        0.597014   -2.016128   -5.295286
     12          1           0        0.082578   -2.975907   -5.191440
     13          1           0        0.047472   -1.448658   -6.057661
     14          6           0        1.966409   -2.317172   -5.845060
     15          8           0        2.273110   -3.270384   -6.510897
     16          8           0        2.911154   -1.339856   -5.550680
     17          7           0       -0.649381   -0.653349   -1.124605
     18          1           0       -0.663549   -1.665012   -1.140958
     19          6           0       -0.072217   -0.011724    0.054602
     20          1           0       -0.649457    0.893931    0.255429
     21          6           0        1.379034    0.355279   -0.288212
     22          6           0       -0.123287   -0.959200    1.255699
     23          1           0        0.384917   -1.890504    0.974299
     24          1           0       -1.175527   -1.201838    1.451096
     25          8           0        2.203861   -0.521813   -0.564196
     26          6           0        0.527746   -0.406867    2.536132
     27          1           0        1.592010   -0.230091    2.321442
     28          6           0       -0.097266    0.919003    2.990059
     29          1           0       -1.180171    0.815013    3.130901
     30          1           0        0.331603    1.238132    3.945545
     31          1           0        0.075471    1.728965    2.272573
     32          6           0        0.442923   -1.459221    3.648378
     33          1           0       -0.601651   -1.663848    3.912995
     34          1           0        0.903389   -2.404911    3.341097
     35          1           0        0.953399   -1.113640    4.553196
     36          7           0        1.676256    1.682393   -0.286673
     37          1           0        0.903343    2.333246   -0.239168
     38          6           0        2.944182    2.143829   -0.808611
     39          1           0        3.450418    1.229753   -1.086501
     40          6           0        3.871362    2.778780    0.211583
     41          6           0        2.786806    3.058533   -2.050174
     42          1           0        3.687396    3.674539   -2.160268
     43          1           0        1.960988    3.753228   -1.864957
     44          8           0        5.082947    2.642851    0.148216
     45          6           0        2.524769    2.253159   -3.334775
     46          1           0        1.932601    1.370712   -3.083828
     47          1           0        1.900579    2.834917   -4.021104
     48          6           0        3.791400    1.864013   -4.120063
     49          1           0        4.214145    2.743088   -4.611852
     50          1           0        3.542444    1.150086   -4.910703
     51          7           0        4.891010    1.324992   -3.293617
     52          1           0        5.664684    1.943774   -3.087309
     53          7           0        3.981487   -0.775885   -2.835445
     54          1           0        3.482951   -1.209605   -2.061664
     55          1           0        3.535110   -0.825072   -3.750760
     56          7           0        5.575074    0.157463   -1.426703
     57          1           0        5.587175   -0.712215   -0.910123
     58          1           0        5.738845    1.012294   -0.888828
     59          6           0        4.805937    0.230084   -2.527167
     60          8           0        3.252007    3.523233    1.127857
     61          1           0        3.930291    3.907763    1.717914
     62          1           0        3.712088   -1.628161   -6.031850
 ---------------------------------------------------------------------

 SCF Done:  E(RB3LYP) =  -1447.55035208     A.U. after    1 cycles

 Alpha  occ. eigenvalues --  -19.32700 -19.31087 -19.27345 -19.24422 -19.24300
 Alpha  occ. eigenvalues --  -19.22818 -14.52038 -14.50688 -14.50081 -14.48773
 Alpha  occ. eigenvalues --  -14.47298 -14.41171 -10.47329 -10.45192 -10.42502
 Alpha  occ. eigenvalues --  -10.41126 -10.39212 -10.36271 -10.36173 -10.34349
 Alpha  occ. eigenvalues --  -10.33042 -10.32262 -10.31258 -10.30256 -10.29791
 Alpha  occ. eigenvalues --  -10.28843 -10.28329 -10.26143 -10.25506  -1.23769
 Alpha  occ. eigenvalues --   -1.20918  -1.16445  -1.16090  -1.14668  -1.14485
 Alpha  occ. eigenvalues --   -1.12029  -1.05767  -1.05357  -1.03745  -1.03650
 Alpha  occ. eigenvalues --   -0.99068  -0.93098  -0.91106  -0.89690  -0.88427
 Alpha  occ. eigenvalues --   -0.85200  -0.82296  -0.81193  -0.78090  -0.77174
 Alpha  occ. eigenvalues --   -0.76064  -0.74403  -0.74070  -0.73199  -0.72445
 Alpha  occ. eigenvalues --   -0.70843  -0.70127  -0.69167  -0.68711  -0.66366
 Alpha  occ. eigenvalues --   -0.65635  -0.64646  -0.64336  -0.63209  -0.61796
 Alpha  occ. eigenvalues --   -0.61584  -0.60884  -0.60544  -0.59754  -0.58988
 Alpha  occ. eigenvalues --   -0.58683  -0.58492  -0.57459  -0.56477  -0.56162
 Alpha  occ. eigenvalues --   -0.55738  -0.55156  -0.54445  -0.54178  -0.53835
 Alpha  occ. eigenvalues --   -0.52783  -0.52301  -0.52053  -0.52030  -0.51442
 Alpha  occ. eigenvalues --   -0.50716  -0.50581  -0.49417  -0.49115  -0.48270
 Alpha  occ. eigenvalues --   -0.48029  -0.47540  -0.47024  -0.46735  -0.46434
 Alpha  occ. eigenvalues --   -0.45850  -0.45420  -0.44773  -0.44694  -0.43166
 Alpha  occ. eigenvalues --   -0.42530  -0.42144  -0.41812  -0.41681  -0.41495
 Alpha  occ. eigenvalues --   -0.40978  -0.39018  -0.38334  -0.37786  -0.36954
 Alpha  occ. eigenvalues --   -0.35936  -0.33733
 Alpha virt. eigenvalues --   -0.13839  -0.12307  -0.10628  -0.09539  -0.08587
 Alpha virt. eigenvalues --   -0.06795  -0.05008  -0.04221  -0.03600  -0.03178
 Alpha virt. eigenvalues --   -0.02594  -0.01354  -0.00254   0.00384   0.00814

 Mulliken charges:
               1
     1  N   -0.703753
     2  H    0.322338
     3  H    0.320383
     4  C   -0.084662
     5  H    0.152655
     6  C    0.608442
     7  C   -0.290856
     8  H    0.140922
     9  H    0.157503
    10  O   -0.546609
    11  C   -0.351737
    12  H    0.191509
    13  H    0.233747
    14  C    0.585558
    15  O   -0.420478
    16  O   -0.612190
    17  N   -0.596184
    18  H    0.341410
    19  C   -0.029663
    20  H    0.174364
    21  C    0.643028
    22  C   -0.293466
    23  H    0.152017
    24  H    0.163133
    25  O   -0.581291
    26  C   -0.088386
    27  H    0.133200
    28  C   -0.450826
    29  H    0.156542
    30  H    0.162245
    31  H    0.129582
    32  C   -0.446339
    33  H    0.154632
    34  H    0.149353
    35  H    0.158186
    36  N   -0.571151
    37  H    0.360118
    38  C   -0.076213
    39  H    0.188441
    40  C    0.613693
    41  C   -0.285958
    42  H    0.161583
    43  H    0.185256
    44  O   -0.486239
    45  C   -0.293099
    46  H    0.187378
    47  H    0.184178
    48  C   -0.183878
    49  H    0.190159
    50  H    0.196813
    51  N   -0.566917
    52  H    0.369759
    53  N   -0.772379
    54  H    0.401562
    55  H    0.415754
    56  N   -0.733191
    57  H    0.375665
    58  H    0.400905
    59  C    0.682363
    60  O   -0.538655
    61  H    0.436917
    62  H    0.422824
 Sum of Mulliken charges =   1.00000

 Dipole moment (field-independent basis, Debye):
    X=             13.1827    Y=              4.4836    Z=             -7.1868  Tot=             15.6696
 Quadrupole moment (field-independent basis, Debye-Ang):
   XX=            -98.6098   YY=           -149.7111   ZZ=           -134.1759
   XY=             25.5441   XZ=            -27.8265   YZ=            -11.4252

 Normal termination of Gaussian 16 at Thu Jun 23 05:40:10 2022.
