 Gaussian 16, Revision C.01,
 Gaussian 16:  ES64L-G16RevC.01  3-Jul-2019

 ----------------------------------------------------------------------
 # B3LYP/6-31G* empiricaldispersion=gd3bj guess=read geom=check nosymm
 integral(ultrafinegrid)
 ----------------------------------------------------------------------

 ------------------------------------------------------
 Candidate Structure: Conf:966 Charge calc in gas phase
 ------------------------------------------------------
 Structure from the checkpoint file:  "conf-966.chk"
 Charge =  1 Multiplicity = 1

                          Input orientation:
 ---------------------------------------------------------------------
 Center     Atomic      Atomic             Coordinates (Angstroms)
 Number     Number       Type             X           Y           Z
 ---------------------------------------------------------------------
      1          7           0       -1.920241    1.072267   -3.833180
      2          1           0       -2.787296    0.862991   -3.343053
      3          1           0       -1.673246    2.029764   -3.584856
      4          6           0       -0.851137    0.179528   -3.379753
      5          1           0       -1.285932   -0.815643   -3.234971
      6          6           0       -0.254722    0.669164   -2.055501
      7          6           0        0.232703    0.043552   -4.472038
      8          1           0       -0.189351   -0.556616   -5.281889
      9          1           0        1.094011   -0.504275   -4.068919
     10          8           0        0.157171    1.836701   -1.942028
     11          6           0        0.676601    1.397653   -5.046514
     12          1           0       -0.215380    1.895285   -5.449138
     13          1           0        1.103125    2.044289   -4.278079
     14          6           0        1.662217    1.277721   -6.176188
     15          8           0        2.690705    1.936520   -6.298246
     16          8           0        1.308966    0.371527   -7.091286
     17          7           0       -0.237585   -0.213353   -1.034198
     18          1           0       -0.576706   -1.151862   -1.197403
     19          6           0        0.089778    0.144889    0.353068
     20          1           0       -0.289081    1.160251    0.505300
     21          6           0        1.620577    0.179923    0.537150
     22          6           0       -0.566360   -0.827410    1.330686
     23          1           0       -0.308332   -0.493136    2.342498
     24          1           0       -0.094443   -1.810707    1.217231
     25          8           0        2.256677   -0.692479    1.110811
     26          6           0       -2.095977   -0.947125    1.208134
     27          1           0       -2.338673   -1.362011    0.217252
     28          6           0       -2.617463   -1.934686    2.259297
     29          1           0       -2.428140   -1.558959    3.272110
     30          1           0       -3.697051   -2.085111    2.155082
     31          1           0       -2.128696   -2.911178    2.168642
     32          6           0       -2.800542    0.409658    1.331128
     33          1           0       -2.545937    0.896319    2.280940
     34          1           0       -2.528723    1.093813    0.518889
     35          1           0       -3.888043    0.284339    1.304883
     36          7           0        2.197247    1.289768   -0.010857
     37          1           0        1.608620    1.869114   -0.607681
     38          6           0        3.637996    1.416673   -0.035589
     39          1           0        3.989256    0.949845    0.896388
     40          6           0        4.049322    2.875329    0.095838
     41          6           0        4.298656    0.632137   -1.189364
     42          1           0        4.195177   -0.417093   -0.901960
     43          1           0        5.374741    0.841403   -1.191798
     44          8           0        5.026099    3.389760   -0.436007
     45          6           0        3.684724    0.826240   -2.597881
     46          1           0        3.468189   -0.156674   -3.032046
     47          1           0        2.720685    1.343501   -2.533888
     48          6           0        4.587862    1.561400   -3.593043
     49          1           0        4.149651    1.564758   -4.590658
     50          1           0        5.557654    1.060919   -3.673094
     51          7           0        4.860414    2.938566   -3.172440
     52          1           0        5.349532    3.015658   -2.281803
     53          7           0        3.370253    4.070112   -4.581181
     54          1           0        2.773318    4.873185   -4.714762
     55          1           0        3.212434    3.271133   -5.207889
     56          7           0        4.255254    5.113978   -2.712582
     57          1           0        4.069429    6.033200   -3.086326
     58          1           0        4.803035    5.051027   -1.862903
     59          6           0        4.156434    4.022015   -3.503553
     60          8           0        3.254939    3.555948    0.925110
     61          1           0        3.631920    4.450484    1.031891
     62          1           0        1.983896    0.380509   -7.797867
 ---------------------------------------------------------------------

 SCF Done:  E(RB3LYP) =  -1447.55901447     A.U. after    2 cycles

 Alpha  occ. eigenvalues --  -19.32364 -19.31495 -19.27695 -19.26736 -19.23212
 Alpha  occ. eigenvalues --  -19.21248 -14.50509 -14.50042 -14.49870 -14.47745
 Alpha  occ. eigenvalues --  -14.45425 -14.41937 -10.46902 -10.45417 -10.44576
 Alpha  occ. eigenvalues --  -10.39677 -10.38089 -10.35086 -10.34603 -10.33287
 Alpha  occ. eigenvalues --  -10.33028 -10.30697 -10.30475 -10.30003 -10.29948
 Alpha  occ. eigenvalues --  -10.27350 -10.27093 -10.25180 -10.24466  -1.23862
 Alpha  occ. eigenvalues --   -1.22911  -1.15549  -1.14784  -1.14496  -1.13571
 Alpha  occ. eigenvalues --   -1.13134  -1.04834  -1.03755  -1.03346  -1.02747
 Alpha  occ. eigenvalues --   -0.99421  -0.91327  -0.90224  -0.89803  -0.87375
 Alpha  occ. eigenvalues --   -0.84408  -0.81750  -0.81276  -0.77958  -0.76056
 Alpha  occ. eigenvalues --   -0.75127  -0.74417  -0.74017  -0.72635  -0.71726
 Alpha  occ. eigenvalues --   -0.70151  -0.68992  -0.68797  -0.67518  -0.65194
 Alpha  occ. eigenvalues --   -0.64793  -0.64411  -0.63986  -0.62795  -0.61809
 Alpha  occ. eigenvalues --   -0.61359  -0.60726  -0.59711  -0.59528  -0.58782
 Alpha  occ. eigenvalues --   -0.58495  -0.57766  -0.56999  -0.56696  -0.56377
 Alpha  occ. eigenvalues --   -0.55156  -0.54934  -0.54043  -0.53577  -0.52596
 Alpha  occ. eigenvalues --   -0.52366  -0.52249  -0.51759  -0.51124  -0.50663
 Alpha  occ. eigenvalues --   -0.50221  -0.50146  -0.49034  -0.48036  -0.47118
 Alpha  occ. eigenvalues --   -0.46735  -0.46486  -0.46194  -0.46147  -0.45546
 Alpha  occ. eigenvalues --   -0.45367  -0.45012  -0.44862  -0.44218  -0.43699
 Alpha  occ. eigenvalues --   -0.41716  -0.41567  -0.40733  -0.40627  -0.40494
 Alpha  occ. eigenvalues --   -0.40152  -0.39165  -0.38583  -0.37652  -0.35419
 Alpha  occ. eigenvalues --   -0.34125  -0.33696
 Alpha virt. eigenvalues --   -0.12828  -0.11516  -0.11031  -0.09359  -0.07616
 Alpha virt. eigenvalues --   -0.06340  -0.04444  -0.04076  -0.02983  -0.02260
 Alpha virt. eigenvalues --   -0.01532  -0.00718   0.00130   0.00250   0.00709

 Mulliken charges:
               1
     1  N   -0.707255
     2  H    0.322356
     3  H    0.320800
     4  C   -0.077731
     5  H    0.149715
     6  C    0.623961
     7  C   -0.264402
     8  H    0.194223
     9  H    0.146138
    10  O   -0.573380
    11  C   -0.372752
    12  H    0.215897
    13  H    0.179476
    14  C    0.599079
    15  O   -0.505271
    16  O   -0.525840
    17  N   -0.598164
    18  H    0.348609
    19  C   -0.075139
    20  H    0.187134
    21  C    0.630808
    22  C   -0.291782
    23  H    0.167841
    24  H    0.166411
    25  O   -0.507901
    26  C   -0.078717
    27  H    0.106759
    28  C   -0.443842
    29  H    0.154259
    30  H    0.155852
    31  H    0.151027
    32  C   -0.453274
    33  H    0.153692
    34  H    0.136614
    35  H    0.160004
    36  N   -0.625770
    37  H    0.374536
    38  C   -0.047507
    39  H    0.233720
    40  C    0.594096
    41  C   -0.293671
    42  H    0.195982
    43  H    0.161087
    44  O   -0.523479
    45  C   -0.288496
    46  H    0.167839
    47  H    0.160957
    48  C   -0.205233
    49  H    0.194987
    50  H    0.191514
    51  N   -0.595337
    52  H    0.392859
    53  N   -0.794396
    54  H    0.364965
    55  H    0.437918
    56  N   -0.779374
    57  H    0.370058
    58  H    0.387372
    59  C    0.789845
    60  O   -0.518515
    61  H    0.426521
    62  H    0.432317
 Sum of Mulliken charges =   1.00000

 Dipole moment (field-independent basis, Debye):
    X=             10.7056    Y=             12.5852    Z=            -14.0175  Tot=             21.6676
 Quadrupole moment (field-independent basis, Debye-Ang):
   XX=           -113.1385   YY=            -98.9266   ZZ=           -101.1671
   XY=             53.0410   XZ=            -40.4123   YZ=            -30.0160

 Normal termination of Gaussian 16 at Thu Jun 23 05:40:21 2022.
