 Gaussian 16, Revision C.01,
 Gaussian 16:  ES64L-G16RevC.01  3-Jul-2019

 ----------------------------------------------------------------------
 # B3LYP/6-31G* empiricaldispersion=gd3bj guess=read geom=check nosymm
 integral(ultrafinegrid)
 ----------------------------------------------------------------------

 ------------------------------------------------------
 Candidate Structure: Conf:112 Charge calc in gas phase
 ------------------------------------------------------
 Structure from the checkpoint file:  "conf-112.chk"
 Charge =  1 Multiplicity = 1

                          Input orientation:
 ---------------------------------------------------------------------
 Center     Atomic      Atomic             Coordinates (Angstroms)
 Number     Number       Type             X           Y           Z
 ---------------------------------------------------------------------
      1          7           0       -1.785727   -1.108953   -3.457897
      2          1           0       -2.078652   -0.238396   -3.897131
      3          1           0       -2.046015   -1.879197   -4.069318
      4          6           0       -0.347584   -1.089304   -3.224722
      5          1           0       -0.081106   -2.027281   -2.719858
      6          6           0       -0.126659    0.087139   -2.266667
      7          6           0        0.545555   -0.940994   -4.474320
      8          1           0        0.377761    0.052135   -4.906880
      9          1           0        0.232623   -1.672641   -5.225813
     10          8           0       -0.401163    1.239276   -2.634959
     11          6           0        2.039930   -1.154485   -4.140979
     12          1           0        2.309379   -0.606692   -3.233452
     13          1           0        2.230224   -2.218571   -3.969179
     14          6           0        2.940730   -0.653404   -5.241959
     15          8           0        3.470628    0.448601   -5.263634
     16          8           0        3.075231   -1.537806   -6.234940
     17          7           0        0.366531   -0.200441   -1.039495
     18          1           0        0.419740   -1.185333   -0.806127
     19          6           0        0.235367    0.699017    0.111302
     20          1           0       -0.157383    1.635528   -0.293819
     21          6           0        1.570905    1.059724    0.778508
     22          6           0       -0.764421    0.127950    1.127038
     23          1           0       -0.784175    0.810069    1.981825
     24          1           0       -0.367869   -0.823292    1.510595
     25          8           0        1.620620    1.465870    1.930262
     26          6           0       -2.185211   -0.082811    0.576154
     27          1           0       -2.135104   -0.765939   -0.284561
     28          6           0       -3.051834   -0.746597    1.654142
     29          1           0       -3.152356   -0.094753    2.530449
     30          1           0       -4.057348   -0.952547    1.273329
     31          1           0       -2.618072   -1.695110    1.991228
     32          6           0       -2.821840    1.228335    0.095603
     33          1           0       -2.831392    1.975793    0.899039
     34          1           0       -2.297968    1.654564   -0.766847
     35          1           0       -3.858792    1.058173   -0.211313
     36          7           0        2.700849    0.980721    0.008741
     37          1           0        2.640154    0.666813   -0.949668
     38          6           0        3.973337    1.348894    0.601194
     39          1           0        4.086579    0.755027    1.513232
     40          6           0        3.956564    2.799234    1.091606
     41          6           0        5.194612    1.051831   -0.304304
     42          1           0        4.988141    0.114160   -0.836745
     43          1           0        6.032329    0.840951    0.366740
     44          8           0        3.274264    3.708398    0.646297
     45          6           0        5.683893    2.125798   -1.295220
     46          1           0        5.911084    3.053430   -0.751877
     47          1           0        6.647501    1.783391   -1.688869
     48          6           0        4.806602    2.457875   -2.508131
     49          1           0        4.483291    1.541193   -3.011774
     50          1           0        5.394802    3.029558   -3.234608
     51          7           0        3.631375    3.229890   -2.111866
     52          1           0        3.729596    3.808514   -1.284349
     53          7           0        2.068465    2.258707   -3.540773
     54          1           0        1.100193    1.968710   -3.653321
     55          1           0        2.765019    1.871462   -4.176048
     56          7           0        1.378953    3.548709   -1.743838
     57          1           0        0.434365    3.234282   -1.934977
     58          1           0        1.603862    3.799468   -0.785076
     59          6           0        2.368362    2.998263   -2.473186
     60          8           0        4.847439    2.972252    2.068569
     61          1           0        4.800349    3.903092    2.362805
     62          1           0        3.634565   -1.133222   -6.926998
 ---------------------------------------------------------------------

 SCF Done:  E(RB3LYP) =  -1447.56955632     A.U. after    1 cycles

 Alpha  occ. eigenvalues --  -19.32085 -19.31975 -19.27062 -19.26841 -19.25659
 Alpha  occ. eigenvalues --  -19.22961 -14.49959 -14.49811 -14.48921 -14.48785
 Alpha  occ. eigenvalues --  -14.48215 -14.42995 -10.45848 -10.45148 -10.44892
 Alpha  occ. eigenvalues --  -10.42296 -10.40190 -10.36207 -10.35644 -10.34982
 Alpha  occ. eigenvalues --  -10.34924 -10.32842 -10.32372 -10.31915 -10.31801
 Alpha  occ. eigenvalues --  -10.28125 -10.27414 -10.25161 -10.24748  -1.23306
 Alpha  occ. eigenvalues --   -1.23297  -1.17272  -1.15420  -1.14913  -1.14145
 Alpha  occ. eigenvalues --   -1.13912  -1.06332  -1.04551  -1.04202  -1.02338
 Alpha  occ. eigenvalues --   -1.00695  -0.92850  -0.92124  -0.90668  -0.88046
 Alpha  occ. eigenvalues --   -0.85558  -0.82747  -0.81536  -0.77131  -0.77038
 Alpha  occ. eigenvalues --   -0.76087  -0.75852  -0.74376  -0.73015  -0.71828
 Alpha  occ. eigenvalues --   -0.71475  -0.71015  -0.69995  -0.68139  -0.66063
 Alpha  occ. eigenvalues --   -0.64963  -0.63929  -0.63823  -0.63509  -0.62185
 Alpha  occ. eigenvalues --   -0.61752  -0.61060  -0.60913  -0.60083  -0.59688
 Alpha  occ. eigenvalues --   -0.59001  -0.58584  -0.58131  -0.57926  -0.57489
 Alpha  occ. eigenvalues --   -0.56217  -0.55642  -0.54979  -0.54745  -0.53963
 Alpha  occ. eigenvalues --   -0.53553  -0.52934  -0.52421  -0.51960  -0.51819
 Alpha  occ. eigenvalues --   -0.51151  -0.50860  -0.50184  -0.49739  -0.48562
 Alpha  occ. eigenvalues --   -0.48272  -0.47811  -0.47680  -0.47579  -0.47532
 Alpha  occ. eigenvalues --   -0.46438  -0.45946  -0.44885  -0.44393  -0.44284
 Alpha  occ. eigenvalues --   -0.41475  -0.41284  -0.41095  -0.41004  -0.40788
 Alpha  occ. eigenvalues --   -0.40461  -0.40105  -0.39522  -0.38733  -0.37403
 Alpha  occ. eigenvalues --   -0.36019  -0.34934
 Alpha virt. eigenvalues --   -0.12403  -0.12081  -0.11739  -0.10283  -0.09317
 Alpha virt. eigenvalues --   -0.07629  -0.04596  -0.03795  -0.03382  -0.02944
 Alpha virt. eigenvalues --   -0.01878  -0.01265  -0.00422   0.00275   0.00982

 Mulliken charges:
               1
     1  N   -0.706401
     2  H    0.328328
     3  H    0.324876
     4  C   -0.054819
     5  H    0.146330
     6  C    0.638332
     7  C   -0.297640
     8  H    0.163088
     9  H    0.182490
    10  O   -0.570549
    11  C   -0.357846
    12  H    0.153389
    13  H    0.196261
    14  C    0.587566
    15  O   -0.488950
    16  O   -0.528729
    17  N   -0.604281
    18  H    0.350086
    19  C   -0.094654
    20  H    0.194013
    21  C    0.632567
    22  C   -0.273745
    23  H    0.190175
    24  H    0.139583
    25  O   -0.503150
    26  C   -0.085609
    27  H    0.132028
    28  C   -0.445500
    29  H    0.154480
    30  H    0.159327
    31  H    0.145124
    32  C   -0.463320
    33  H    0.149906
    34  H    0.143653
    35  H    0.163871
    36  N   -0.644315
    37  H    0.345388
    38  C   -0.012357
    39  H    0.215488
    40  C    0.627419
    41  C   -0.311490
    42  H    0.160080
    43  H    0.198784
    44  O   -0.510037
    45  C   -0.311744
    46  H    0.168456
    47  H    0.185895
    48  C   -0.156039
    49  H    0.169231
    50  H    0.196926
    51  N   -0.599442
    52  H    0.379950
    53  N   -0.819763
    54  H    0.400574
    55  H    0.420569
    56  N   -0.775742
    57  H    0.384924
    58  H    0.395099
    59  C    0.759441
    60  O   -0.538069
    61  H    0.436624
    62  H    0.433869
 Sum of Mulliken charges =   1.00000

 Dipole moment (field-independent basis, Debye):
    X=             12.6515    Y=              3.0660    Z=            -11.6336  Tot=             17.4586
 Quadrupole moment (field-independent basis, Debye-Ang):
   XX=           -102.6640   YY=           -144.1422   ZZ=           -115.5061
   XY=             24.8060   XZ=            -22.0199   YZ=              8.3747

 Normal termination of Gaussian 16 at Thu Jun 23 05:40:10 2022.
