 Gaussian 16, Revision C.01,
 Gaussian 16:  ES64L-G16RevC.01  3-Jul-2019

 ----------------------------------------------------------------------
 # B3LYP/6-31G* empiricaldispersion=gd3bj guess=read geom=check nosymm
 integral(ultrafinegrid)
 ----------------------------------------------------------------------

 ------------------------------------------------------
 Candidate Structure: Conf:304 Charge calc in gas phase
 ------------------------------------------------------
 Structure from the checkpoint file:  "conf-304.chk"
 Charge =  1 Multiplicity = 1

                          Input orientation:
 ---------------------------------------------------------------------
 Center     Atomic      Atomic             Coordinates (Angstroms)
 Number     Number       Type             X           Y           Z
 ---------------------------------------------------------------------
      1          7           0       -2.952256   -0.920613   -3.875490
      2          1           0       -3.591415   -1.317569   -3.189920
      3          1           0       -3.177665    0.071377   -3.936382
      4          6           0       -1.570720   -1.071111   -3.427383
      5          1           0       -1.451574   -2.087356   -3.036232
      6          6           0       -1.186143   -0.062421   -2.341867
      7          6           0       -0.589066   -0.903002   -4.609888
      8          1           0       -0.675285   -1.777969   -5.258969
      9          1           0        0.439415   -0.886360   -4.228644
     10          8           0       -1.434089    1.150242   -2.484196
     11          6           0       -0.873447    0.364341   -5.424805
     12          1           0       -1.775595    0.218706   -6.032345
     13          1           0       -1.082219    1.218123   -4.776676
     14          6           0        0.251634    0.710141   -6.358830
     15          8           0        1.057795   -0.041404   -6.842607
     16          8           0        0.276971    2.063367   -6.635086
     17          7           0       -0.560968   -0.546022   -1.247685
     18          1           0       -0.238697   -1.505726   -1.264831
     19          6           0        0.021649    0.316476   -0.230962
     20          1           0       -0.464290    1.286990   -0.350369
     21          6           0        1.526885    0.440193   -0.520008
     22          6           0       -0.268190   -0.245078    1.177062
     23          1           0        0.296127   -1.177492    1.306018
     24          1           0       -1.332604   -0.510466    1.188827
     25          8           0        2.132196   -0.410865   -1.146534
     26          6           0        0.018802    0.693956    2.363454
     27          1           0        1.096622    0.891550    2.399737
     28          6           0       -0.732051    2.028785    2.251391
     29          1           0       -1.812259    1.863562    2.158927
     30          1           0       -0.565162    2.641784    3.142927
     31          1           0       -0.423620    2.628609    1.384112
     32          6           0       -0.353296   -0.020025    3.670002
     33          1           0       -1.427279   -0.239349    3.704307
     34          1           0        0.186383   -0.967921    3.772599
     35          1           0       -0.111912    0.601742    4.538278
     36          7           0        2.129422    1.617548   -0.090631
     37          1           0        1.638194    2.108419    0.649923
     38          6           0        3.592278    1.686564   -0.034528
     39          1           0        3.938971    1.047912   -0.854783
     40          6           0        4.196180    1.071006    1.233093
     41          6           0        4.136827    3.107371   -0.241786
     42          1           0        5.220417    3.045109   -0.126457
     43          1           0        3.788815    3.762868    0.568566
     44          8           0        5.321484    1.292897    1.608345
     45          6           0        3.771360    3.699096   -1.614889
     46          1           0        4.614944    4.271881   -2.013586
     47          1           0        3.594957    2.885725   -2.329326
     48          6           0        2.535026    4.615782   -1.568265
     49          1           0        2.800782    5.607741   -1.194694
     50          1           0        1.773282    4.222892   -0.889078
     51          7           0        1.901945    4.798660   -2.877941
     52          1           0        2.280303    5.508672   -3.490731
     53          7           0        0.820278    2.745030   -2.796967
     54          1           0       -0.072622    2.244250   -2.899288
     55          1           0        1.356485    2.494920   -1.971042
     56          7           0        0.452028    4.164696   -4.583885
     57          1           0        0.181786    3.405297   -5.210928
     58          1           0        0.511764    5.090240   -4.983596
     59          6           0        1.064455    3.897276   -3.419025
     60          8           0        3.349815    0.227710    1.863905
     61          1           0        3.840613   -0.148028    2.620568
     62          1           0        0.985374    2.186218   -7.296979
 ---------------------------------------------------------------------

 SCF Done:  E(RB3LYP) =  -1447.54498236     A.U. after    1 cycles

 Alpha  occ. eigenvalues --  -19.30794 -19.30733 -19.24604 -19.24465 -19.24297
 Alpha  occ. eigenvalues --  -19.23822 -14.52413 -14.50682 -14.49803 -14.49122
 Alpha  occ. eigenvalues --  -14.48164 -14.41230 -10.47620 -10.42865 -10.42345
 Alpha  occ. eigenvalues --  -10.41168 -10.40298 -10.36705 -10.35668 -10.34938
 Alpha  occ. eigenvalues --  -10.32818 -10.31712 -10.31055 -10.29735 -10.29531
 Alpha  occ. eigenvalues --  -10.29115 -10.28820 -10.27642 -10.26276  -1.21503
 Alpha  occ. eigenvalues --   -1.20806  -1.16687  -1.16265  -1.15226  -1.12467
 Alpha  occ. eigenvalues --   -1.12022  -1.05819  -1.05284  -1.04537  -1.03716
 Alpha  occ. eigenvalues --   -0.98895  -0.93010  -0.91671  -0.89149  -0.88115
 Alpha  occ. eigenvalues --   -0.85874  -0.81824  -0.81213  -0.78340  -0.78008
 Alpha  occ. eigenvalues --   -0.76287  -0.74539  -0.74015  -0.73706  -0.71367
 Alpha  occ. eigenvalues --   -0.71057  -0.70153  -0.69992  -0.67827  -0.66726
 Alpha  occ. eigenvalues --   -0.64892  -0.64508  -0.64294  -0.62646  -0.61624
 Alpha  occ. eigenvalues --   -0.61507  -0.60316  -0.59827  -0.58979  -0.58834
 Alpha  occ. eigenvalues --   -0.58588  -0.57757  -0.57443  -0.56986  -0.56686
 Alpha  occ. eigenvalues --   -0.55945  -0.55126  -0.54731  -0.54384  -0.53520
 Alpha  occ. eigenvalues --   -0.53270  -0.52126  -0.51731  -0.51423  -0.51257
 Alpha  occ. eigenvalues --   -0.50604  -0.50307  -0.49607  -0.49385  -0.48882
 Alpha  occ. eigenvalues --   -0.48007  -0.47508  -0.47082  -0.46688  -0.46345
 Alpha  occ. eigenvalues --   -0.45948  -0.45285  -0.44825  -0.43413  -0.43103
 Alpha  occ. eigenvalues --   -0.42812  -0.42694  -0.42055  -0.41954  -0.41096
 Alpha  occ. eigenvalues --   -0.40907  -0.38586  -0.38319  -0.37621  -0.37109
 Alpha  occ. eigenvalues --   -0.36718  -0.33360
 Alpha virt. eigenvalues --   -0.12460  -0.11084  -0.10100  -0.09818  -0.09221
 Alpha virt. eigenvalues --   -0.07401  -0.05914  -0.03947  -0.03149  -0.02415
 Alpha virt. eigenvalues --   -0.01914  -0.01647  -0.00572   0.00108   0.00285

 Mulliken charges:
               1
     1  N   -0.698835
     2  H    0.318911
     3  H    0.319570
     4  C   -0.085494
     5  H    0.153207
     6  C    0.615742
     7  C   -0.256343
     8  H    0.193908
     9  H    0.162039
    10  O   -0.578014
    11  C   -0.385886
    12  H    0.221825
    13  H    0.167743
    14  C    0.591599
    15  O   -0.424647
    16  O   -0.609186
    17  N   -0.566756
    18  H    0.356189
    19  C   -0.106619
    20  H    0.183360
    21  C    0.607909
    22  C   -0.263180
    23  H    0.159291
    24  H    0.166184
    25  O   -0.482041
    26  C   -0.109418
    27  H    0.142751
    28  C   -0.460270
    29  H    0.165966
    30  H    0.168461
    31  H    0.115607
    32  C   -0.448600
    33  H    0.156867
    34  H    0.153363
    35  H    0.159331
    36  N   -0.647348
    37  H    0.350806
    38  C   -0.082258
    39  H    0.230513
    40  C    0.607612
    41  C   -0.289800
    42  H    0.211117
    43  H    0.154406
    44  O   -0.434462
    45  C   -0.283430
    46  H    0.176338
    47  H    0.163117
    48  C   -0.183615
    49  H    0.198698
    50  H    0.174834
    51  N   -0.586353
    52  H    0.359069
    53  N   -0.836666
    54  H    0.432498
    55  H    0.407808
    56  N   -0.791380
    57  H    0.419860
    58  H    0.366068
    59  C    0.789704
    60  O   -0.566450
    61  H    0.432374
    62  H    0.422406
 Sum of Mulliken charges =   1.00000

 Dipole moment (field-independent basis, Debye):
    X=              4.0943    Y=             14.3320    Z=             -8.6723  Tot=             17.2446
 Quadrupole moment (field-independent basis, Debye-Ang):
   XX=           -159.9163   YY=            -95.9453   ZZ=           -111.0673
   XY=             33.3022   XZ=             -8.0684   YZ=            -56.8021

 Normal termination of Gaussian 16 at Thu Jun 23 05:40:08 2022.
