 Gaussian 16, Revision C.01,
 Gaussian 16:  ES64L-G16RevC.01  3-Jul-2019

 ----------------------------------------------------------------------
 # B3LYP/6-31G* empiricaldispersion=gd3bj guess=read geom=check nosymm
 integral(ultrafinegrid)
 ----------------------------------------------------------------------

 ------------------------------------------------------
 Candidate Structure: Conf:123 Charge calc in gas phase
 ------------------------------------------------------
 Structure from the checkpoint file:  "conf-123.chk"
 Charge =  1 Multiplicity = 1

                          Input orientation:
 ---------------------------------------------------------------------
 Center     Atomic      Atomic             Coordinates (Angstroms)
 Number     Number       Type             X           Y           Z
 ---------------------------------------------------------------------
      1          7           0       -1.952170    0.743004   -4.196514
      2          1           0       -2.855653    0.643711   -3.736030
      3          1           0       -1.688301    1.723606   -4.095195
      4          6           0       -0.948483   -0.066835   -3.508932
      5          1           0       -1.341935   -1.086496   -3.411173
      6          6           0       -0.593855    0.503478   -2.133043
      7          6           0        0.323877   -0.099448   -4.369888
      8          1           0        0.685413    0.928628   -4.481757
      9          1           0        0.039605   -0.461732   -5.362217
     10          8           0       -0.243242    1.680589   -2.011606
     11          6           0        1.443208   -0.980496   -3.773604
     12          1           0        1.795788   -0.577040   -2.817538
     13          1           0        1.080070   -1.997166   -3.600235
     14          6           0        2.575746   -1.092562   -4.752520
     15          8           0        2.858033   -2.031761   -5.447926
     16          8           0        3.307326    0.093453   -4.863757
     17          7           0       -0.676572   -0.333493   -1.069624
     18          1           0       -0.835612   -1.318757   -1.227254
     19          6           0       -0.195931    0.087392    0.237235
     20          1           0       -0.778163    0.961887    0.543697
     21          6           0        1.283401    0.483715    0.119520
     22          6           0       -0.346320   -1.041849    1.264572
     23          1           0        0.046198   -0.674282    2.221660
     24          1           0        0.307676   -1.868656    0.958181
     25          8           0        2.099243   -0.232846   -0.461389
     26          6           0       -1.783313   -1.552605    1.477035
     27          1           0       -2.151310   -1.966156    0.526097
     28          6           0       -1.773546   -2.690364    2.505576
     29          1           0       -1.434558   -2.327247    3.483635
     30          1           0       -2.776890   -3.109054    2.635146
     31          1           0       -1.104874   -3.502990    2.199474
     32          6           0       -2.739835   -0.432893    1.903171
     33          1           0       -2.387767    0.052172    2.822505
     34          1           0       -2.844499    0.337095    1.131076
     35          1           0       -3.738728   -0.834337    2.102609
     36          7           0        1.615212    1.650285    0.720593
     37          1           0        0.915444    2.203742    1.198654
     38          6           0        2.968616    2.158358    0.738976
     39          1           0        3.649300    1.301220    0.747345
     40          6           0        3.149834    2.958689    2.019491
     41          6           0        3.305613    3.046482   -0.484433
     42          1           0        4.362202    3.327881   -0.399258
     43          1           0        2.718440    3.972531   -0.431019
     44          8           0        2.243898    3.318347    2.735678
     45          6           0        3.030667    2.331534   -1.811744
     46          1           0        3.393154    1.302556   -1.751752
     47          1           0        1.951464    2.256555   -1.979595
     48          6           0        3.636470    3.034048   -3.024212
     49          1           0        3.281139    4.063794   -3.107281
     50          1           0        3.353806    2.520537   -3.948432
     51          7           0        5.114564    3.133260   -2.961377
     52          1           0        5.519689    4.055261   -2.878609
     53          7           0        5.561377    0.868975   -3.246363
     54          1           0        6.119480    0.071601   -2.975636
     55          1           0        4.642898    0.676087   -3.652614
     56          7           0        7.236866    2.298277   -2.544876
     57          1           0        7.953633    1.623351   -2.769678
     58          1           0        7.537504    3.174256   -2.143449
     59          6           0        5.957269    2.101231   -2.919128
     60          8           0        4.446220    3.260323    2.236190
     61          1           0        4.479837    3.792182    3.054942
     62          1           0        3.877819   -0.049136   -5.645209
 ---------------------------------------------------------------------

 SCF Done:  E(RB3LYP) =  -1447.53810943     A.U. after    1 cycles

 Alpha  occ. eigenvalues --  -19.31352 -19.30032 -19.24738 -19.24376 -19.20880
 Alpha  occ. eigenvalues --  -19.20638 -14.53415 -14.53288 -14.52359 -14.45677
 Alpha  occ. eigenvalues --  -14.45504 -14.39640 -10.49501 -10.42603 -10.42364
 Alpha  occ. eigenvalues --  -10.38008 -10.37147 -10.36003 -10.34262 -10.32248
 Alpha  occ. eigenvalues --  -10.31111 -10.30257 -10.29300 -10.29270 -10.28238
 Alpha  occ. eigenvalues --  -10.27359 -10.26987 -10.24560 -10.24296  -1.21129
 Alpha  occ. eigenvalues --   -1.20960  -1.17962  -1.13363  -1.12344  -1.12240
 Alpha  occ. eigenvalues --   -1.11913  -1.07160  -1.05920  -1.02540  -1.01758
 Alpha  occ. eigenvalues --   -0.97286  -0.91780  -0.89520  -0.88854  -0.87483
 Alpha  occ. eigenvalues --   -0.83686  -0.81865  -0.79860  -0.78801  -0.75621
 Alpha  occ. eigenvalues --   -0.75578  -0.74462  -0.73474  -0.73089  -0.70443
 Alpha  occ. eigenvalues --   -0.70179  -0.69134  -0.68475  -0.66951  -0.66519
 Alpha  occ. eigenvalues --   -0.66233  -0.64259  -0.62668  -0.61871  -0.60862
 Alpha  occ. eigenvalues --   -0.59793  -0.59546  -0.59064  -0.58763  -0.58315
 Alpha  occ. eigenvalues --   -0.57517  -0.57287  -0.56776  -0.55951  -0.54467
 Alpha  occ. eigenvalues --   -0.54204  -0.54009  -0.53683  -0.53129  -0.52267
 Alpha  occ. eigenvalues --   -0.51579  -0.51459  -0.50441  -0.50214  -0.49633
 Alpha  occ. eigenvalues --   -0.49339  -0.48450  -0.47978  -0.47869  -0.46788
 Alpha  occ. eigenvalues --   -0.46394  -0.45923  -0.45654  -0.45318  -0.45140
 Alpha  occ. eigenvalues --   -0.44274  -0.43737  -0.43661  -0.43192  -0.42867
 Alpha  occ. eigenvalues --   -0.42110  -0.41773  -0.40489  -0.40343  -0.40161
 Alpha  occ. eigenvalues --   -0.38041  -0.37859  -0.36174  -0.35553  -0.34976
 Alpha  occ. eigenvalues --   -0.33863  -0.31614
 Alpha virt. eigenvalues --   -0.13593  -0.10110  -0.09742  -0.09329  -0.07713
 Alpha virt. eigenvalues --   -0.06481  -0.05714  -0.05550  -0.04063  -0.02045
 Alpha virt. eigenvalues --   -0.01719  -0.01329  -0.00057   0.00315   0.01571

 Mulliken charges:
               1
     1  N   -0.695213
     2  H    0.312454
     3  H    0.315011
     4  C   -0.075466
     5  H    0.140665
     6  C    0.620159
     7  C   -0.266589
     8  H    0.159359
     9  H    0.184381
    10  O   -0.554983
    11  C   -0.375904
    12  H    0.215058
    13  H    0.181643
    14  C    0.564704
    15  O   -0.413022
    16  O   -0.611492
    17  N   -0.597026
    18  H    0.341304
    19  C   -0.035458
    20  H    0.167187
    21  C    0.656716
    22  C   -0.302389
    23  H    0.155771
    24  H    0.159217
    25  O   -0.560255
    26  C   -0.076778
    27  H    0.120300
    28  C   -0.443984
    29  H    0.150763
    30  H    0.158864
    31  H    0.147115
    32  C   -0.454060
    33  H    0.148651
    34  H    0.148781
    35  H    0.161898
    36  N   -0.599054
    37  H    0.357680
    38  C   -0.042083
    39  H    0.195083
    40  C    0.587689
    41  C   -0.265812
    42  H    0.138480
    43  H    0.162069
    44  O   -0.449602
    45  C   -0.322212
    46  H    0.171326
    47  H    0.231871
    48  C   -0.189824
    49  H    0.188869
    50  H    0.201435
    51  N   -0.591886
    52  H    0.364620
    53  N   -0.788208
    54  H    0.377905
    55  H    0.434842
    56  N   -0.764470
    57  H    0.383992
    58  H    0.381513
    59  C    0.811966
    60  O   -0.571041
    61  H    0.428536
    62  H    0.418937
 Sum of Mulliken charges =   1.00000

 Dipole moment (field-independent basis, Debye):
    X=             22.2346    Y=              9.2514    Z=             -8.7416  Tot=             25.6200
 Quadrupole moment (field-independent basis, Debye-Ang):
   XX=             -3.9605   YY=           -135.6496   ZZ=           -138.1048
   XY=             67.5707   XZ=            -59.1922   YZ=            -24.5385

 Normal termination of Gaussian 16 at Thu Jun 23 05:40:07 2022.
