 Gaussian 16, Revision C.01,
 Gaussian 16:  ES64L-G16RevC.01  3-Jul-2019

 ----------------------------------------------------------------------
 # B3LYP/6-31G* empiricaldispersion=gd3bj guess=read geom=check nosymm
 integral(ultrafinegrid)
 ----------------------------------------------------------------------

 ------------------------------------------------------
 Candidate Structure: Conf:578 Charge calc in gas phase
 ------------------------------------------------------
 Structure from the checkpoint file:  "conf-578.chk"
 Charge =  1 Multiplicity = 1

                          Input orientation:
 ---------------------------------------------------------------------
 Center     Atomic      Atomic             Coordinates (Angstroms)
 Number     Number       Type             X           Y           Z
 ---------------------------------------------------------------------
      1          7           0       -1.298266   -1.059373   -3.634203
      2          1           0       -2.094218   -0.434357   -3.747561
      3          1           0       -1.313047   -1.715650   -4.411220
      4          6           0       -0.038540   -0.317244   -3.600853
      5          1           0        0.759127   -1.073134   -3.575725
      6          6           0        0.087710    0.425774   -2.261660
      7          6           0        0.278291    0.614936   -4.782379
      8          1           0        0.260197    0.028322   -5.708351
      9          1           0        1.296442    0.993636   -4.653832
     10          8           0        0.672586    1.511673   -2.163448
     11          6           0       -0.678936    1.817486   -4.907930
     12          1           0       -1.685217    1.497593   -5.189556
     13          1           0       -0.712204    2.342718   -3.950620
     14          6           0       -0.145860    2.775792   -5.935856
     15          8           0        0.814655    3.517830   -5.773207
     16          8           0       -0.796830    2.716009   -7.103316
     17          7           0       -0.434788   -0.219498   -1.203601
     18          1           0       -0.885536   -1.109226   -1.386143
     19          6           0       -0.161017    0.204392    0.163340
     20          1           0       -0.719809    1.124945    0.366663
     21          6           0        1.349959    0.474716    0.294917
     22          6           0       -0.585488   -0.906146    1.132481
     23          1           0       -0.037285   -1.812880    0.849062
     24          1           0       -1.655821   -1.105195    0.982521
     25          8           0        2.181856   -0.359031   -0.046916
     26          6           0       -0.327914   -0.606918    2.619323
     27          1           0        0.751401   -0.444756    2.748576
     28          6           0       -1.063394    0.648126    3.107782
     29          1           0       -2.140735    0.571950    2.913355
     30          1           0       -0.929078    0.776267    4.186882
     31          1           0       -0.696143    1.563229    2.630840
     32          6           0       -0.722441   -1.827610    3.460001
     33          1           0       -1.797840   -2.028839    3.376577
     34          1           0       -0.185791   -2.726093    3.135622
     35          1           0       -0.496142   -1.662729    4.518631
     36          7           0        1.665721    1.681649    0.824942
     37          1           0        0.934606    2.337703    1.065072
     38          6           0        3.019467    2.173898    0.957308
     39          1           0        3.685567    1.323742    1.127543
     40          6           0        3.049494    3.101432    2.163102
     41          6           0        3.469390    2.957866   -0.303257
     42          1           0        4.346827    3.564513   -0.051066
     43          1           0        2.657483    3.653864   -0.549705
     44          8           0        2.067964    3.617118    2.650500
     45          6           0        3.769022    2.045171   -1.508429
     46          1           0        4.829807    1.760211   -1.508669
     47          1           0        3.203788    1.115357   -1.428682
     48          6           0        3.386369    2.673378   -2.845633
     49          1           0        2.311816    2.857211   -2.854910
     50          1           0        3.620100    1.995925   -3.674723
     51          7           0        4.087560    3.951372   -3.061272
     52          1           0        5.074535    3.974252   -2.837424
     53          7           0        2.337596    5.106197   -4.070941
     54          1           0        1.886516    5.994428   -4.237073
     55          1           0        1.885559    4.291555   -4.500892
     56          7           0        4.224287    6.240977   -3.359483
     57          1           0        4.000665    7.051110   -3.918048
     58          1           0        5.016966    6.308005   -2.738661
     59          6           0        3.544243    5.083384   -3.506097
     60          8           0        4.306782    3.326293    2.589739
     61          1           0        4.246438    3.943935    3.343959
     62          1           0       -0.362115    3.336651   -7.720148
 ---------------------------------------------------------------------

 SCF Done:  E(RB3LYP) =  -1447.54971669     A.U. after    1 cycles

 Alpha  occ. eigenvalues --  -19.30748 -19.29002 -19.25664 -19.23412 -19.20836
 Alpha  occ. eigenvalues --  -19.19235 -14.51951 -14.51710 -14.50448 -14.44431
 Alpha  occ. eigenvalues --  -14.44338 -14.41998 -10.47865 -10.43608 -10.41342
 Alpha  occ. eigenvalues --  -10.37480 -10.36690 -10.33889 -10.33076 -10.32124
 Alpha  occ. eigenvalues --  -10.31476 -10.29844 -10.29321 -10.29169 -10.28599
 Alpha  occ. eigenvalues --  -10.26322 -10.25916 -10.23990 -10.23398  -1.21941
 Alpha  occ. eigenvalues --   -1.19974  -1.16321  -1.12865  -1.12633  -1.11370
 Alpha  occ. eigenvalues --   -1.10880  -1.05659  -1.04168  -1.01520  -1.01323
 Alpha  occ. eigenvalues --   -0.98654  -0.90561  -0.89437  -0.88650  -0.86108
 Alpha  occ. eigenvalues --   -0.82987  -0.80895  -0.80058  -0.77589  -0.74911
 Alpha  occ. eigenvalues --   -0.74373  -0.73787  -0.73206  -0.72141  -0.70726
 Alpha  occ. eigenvalues --   -0.69298  -0.68502  -0.67291  -0.66500  -0.65766
 Alpha  occ. eigenvalues --   -0.64480  -0.62760  -0.61856  -0.61381  -0.60407
 Alpha  occ. eigenvalues --   -0.59870  -0.58994  -0.58726  -0.58025  -0.57564
 Alpha  occ. eigenvalues --   -0.57208  -0.56480  -0.55917  -0.55598  -0.54844
 Alpha  occ. eigenvalues --   -0.54420  -0.53839  -0.52999  -0.52307  -0.52006
 Alpha  occ. eigenvalues --   -0.51325  -0.50527  -0.49678  -0.49428  -0.49207
 Alpha  occ. eigenvalues --   -0.48415  -0.48115  -0.47781  -0.47364  -0.46417
 Alpha  occ. eigenvalues --   -0.45560  -0.45438  -0.45143  -0.44740  -0.44468
 Alpha  occ. eigenvalues --   -0.43846  -0.43716  -0.42966  -0.42739  -0.42539
 Alpha  occ. eigenvalues --   -0.41044  -0.40195  -0.39837  -0.39507  -0.39409
 Alpha  occ. eigenvalues --   -0.39229  -0.37045  -0.35682  -0.35070  -0.33917
 Alpha  occ. eigenvalues --   -0.33362  -0.32481
 Alpha virt. eigenvalues --   -0.11881  -0.10522  -0.08523  -0.08200  -0.07678
 Alpha virt. eigenvalues --   -0.05468  -0.04172  -0.03418  -0.02650  -0.01377
 Alpha virt. eigenvalues --   -0.01080  -0.00556  -0.00035   0.00289   0.02011

 Mulliken charges:
               1
     1  N   -0.734728
     2  H    0.316480
     3  H    0.324814
     4  C   -0.088794
     5  H    0.190540
     6  C    0.637895
     7  C   -0.275700
     8  H    0.157036
     9  H    0.160601
    10  O   -0.574302
    11  C   -0.345387
    12  H    0.172520
    13  H    0.198932
    14  C    0.581103
    15  O   -0.506556
    16  O   -0.528082
    17  N   -0.604152
    18  H    0.364888
    19  C   -0.000154
    20  H    0.151964
    21  C    0.648275
    22  C   -0.302316
    23  H    0.167048
    24  H    0.146537
    25  O   -0.548329
    26  C   -0.086441
    27  H    0.142528
    28  C   -0.450118
    29  H    0.146583
    30  H    0.160677
    31  H    0.133089
    32  C   -0.445613
    33  H    0.146721
    34  H    0.151458
    35  H    0.154576
    36  N   -0.594621
    37  H    0.351628
    38  C   -0.049733
    39  H    0.208651
    40  C    0.580594
    41  C   -0.263727
    42  H    0.148392
    43  H    0.149665
    44  O   -0.457766
    45  C   -0.308623
    46  H    0.147738
    47  H    0.229532
    48  C   -0.183486
    49  H    0.224707
    50  H    0.181030
    51  N   -0.593426
    52  H    0.355722
    53  N   -0.774932
    54  H    0.367685
    55  H    0.431793
    56  N   -0.766341
    57  H    0.378776
    58  H    0.376737
    59  C    0.809174
    60  O   -0.562330
    61  H    0.425516
    62  H    0.424052
 Sum of Mulliken charges =   1.00000

 Dipole moment (field-independent basis, Debye):
    X=             11.0545    Y=             18.8031    Z=            -15.7849  Tot=             26.9244
 Quadrupole moment (field-independent basis, Debye-Ang):
   XX=           -104.8659   YY=            -57.0626   ZZ=            -76.5428
   XY=             77.6286   XZ=            -25.2012   YZ=            -64.7319

 Normal termination of Gaussian 16 at Thu Jun 23 05:40:07 2022.
