 Gaussian 16, Revision C.01,
 Gaussian 16:  ES64L-G16RevC.01  3-Jul-2019

 ----------------------------------------------------------------------
 # B3LYP/6-31G* empiricaldispersion=gd3bj guess=read geom=check nosymm
 integral(ultrafinegrid)
 ----------------------------------------------------------------------

 ------------------------------------------------------
 Candidate Structure: Conf:746 Charge calc in gas phase
 ------------------------------------------------------
 Structure from the checkpoint file:  "conf-746.chk"
 Charge =  1 Multiplicity = 1

                          Input orientation:
 ---------------------------------------------------------------------
 Center     Atomic      Atomic             Coordinates (Angstroms)
 Number     Number       Type             X           Y           Z
 ---------------------------------------------------------------------
      1          7           0       -2.153214    0.197757   -4.323186
      2          1           0       -1.785165    1.144529   -4.360058
      3          1           0       -2.445739   -0.095259   -5.250805
      4          6           0       -1.181015   -0.703799   -3.744753
      5          1           0       -1.704537   -1.594419   -3.369347
      6          6           0       -0.523431    0.017893   -2.567932
      7          6           0       -0.075346   -1.225959   -4.706540
      8          1           0       -0.574270   -1.749062   -5.530667
      9          1           0        0.541525   -1.970572   -4.185870
     10          8           0       -0.313743    1.232531   -2.600361
     11          6           0        0.815539   -0.108976   -5.288404
     12          1           0        0.184470    0.675731   -5.711716
     13          1           0        1.441702    0.334839   -4.509325
     14          6           0        1.653596   -0.669573   -6.404006
     15          8           0        1.361663   -0.742384   -7.565782
     16          8           0        2.851494   -1.213439   -5.940604
     17          7           0       -0.109876   -0.763369   -1.535340
     18          1           0       -0.431777   -1.721417   -1.486820
     19          6           0        0.428695   -0.167348   -0.308860
     20          1           0       -0.175980    0.715962   -0.083846
     21          6           0        1.875463    0.288361   -0.566364
     22          6           0        0.347146   -1.161650    0.848586
     23          1           0        0.891674   -2.072223    0.569830
     24          1           0       -0.710021   -1.431525    0.975731
     25          8           0        2.835369   -0.483540   -0.415831
     26          6           0        0.902149   -0.638077    2.187118
     27          1           0        1.986613   -0.518827    2.069345
     28          6           0        0.308501    0.721539    2.581907
     29          1           0       -0.788005    0.683681    2.606397
     30          1           0        0.650174    1.009460    3.581426
     31          1           0        0.608161    1.522467    1.896074
     32          6           0        0.657350   -1.683467    3.281853
     33          1           0       -0.416460   -1.821663    3.458764
     34          1           0        1.081732   -2.656641    3.009549
     35          1           0        1.112632   -1.371174    4.227204
     36          7           0        1.981792    1.576490   -0.950187
     37          1           0        1.117112    2.019996   -1.248814
     38          6           0        3.241689    2.216708   -1.262496
     39          1           0        4.003536    1.636569   -0.731375
     40          6           0        3.329331    3.633632   -0.698498
     41          6           0        3.570789    2.215206   -2.772217
     42          1           0        3.041884    3.037905   -3.261782
     43          1           0        3.147871    1.293415   -3.178310
     44          8           0        4.068708    4.474675   -1.155536
     45          6           0        5.084792    2.296558   -3.060901
     46          1           0        5.358345    3.303043   -3.386176
     47          1           0        5.641396    2.153686   -2.128971
     48          6           0        5.599895    1.314190   -4.139000
     49          1           0        6.689091    1.220548   -4.068366
     50          1           0        5.386926    1.709211   -5.134985
     51          7           0        4.980536   -0.028058   -4.133675
     52          1           0        4.472820   -0.289601   -4.972398
     53          7           0        5.215755   -0.514603   -1.852960
     54          1           0        4.616877   -0.604704   -1.026838
     55          1           0        5.999341    0.117270   -1.797817
     56          7           0        3.629830   -1.607317   -3.115060
     57          1           0        3.310762   -2.063010   -2.270944
     58          1           0        3.095675   -1.698858   -3.971839
     59          6           0        4.613981   -0.702491   -3.035484
     60          8           0        2.528316    3.824457    0.364059
     61          1           0        2.673283    4.741504    0.669272
     62          1           0        3.249814   -1.666432   -6.710996
 ---------------------------------------------------------------------

 SCF Done:  E(RB3LYP) =  -1447.54489927     A.U. after    1 cycles

 Alpha  occ. eigenvalues --  -19.33668 -19.30724 -19.26805 -19.24986 -19.24953
 Alpha  occ. eigenvalues --  -19.23968 -14.51486 -14.50995 -14.50346 -14.48474
 Alpha  occ. eigenvalues --  -14.48343 -14.41185 -10.47507 -10.44806 -10.43289
 Alpha  occ. eigenvalues --  -10.41363 -10.40564 -10.36508 -10.36201 -10.34639
 Alpha  occ. eigenvalues --  -10.33814 -10.32259 -10.31794 -10.31710 -10.31536
 Alpha  occ. eigenvalues --  -10.28914 -10.27839 -10.25659 -10.25207  -1.23278
 Alpha  occ. eigenvalues --   -1.21707  -1.16676  -1.16191  -1.15472  -1.14587
 Alpha  occ. eigenvalues --   -1.12748  -1.05798  -1.05333  -1.04543  -1.04155
 Alpha  occ. eigenvalues --   -0.99418  -0.92929  -0.91482  -0.90971  -0.88213
 Alpha  occ. eigenvalues --   -0.85429  -0.82555  -0.81814  -0.78079  -0.76901
 Alpha  occ. eigenvalues --   -0.76197  -0.75412  -0.74775  -0.72944  -0.72316
 Alpha  occ. eigenvalues --   -0.71538  -0.70190  -0.69760  -0.69058  -0.66263
 Alpha  occ. eigenvalues --   -0.65137  -0.64863  -0.64281  -0.63657  -0.62083
 Alpha  occ. eigenvalues --   -0.61671  -0.61346  -0.60722  -0.60444  -0.59712
 Alpha  occ. eigenvalues --   -0.59203  -0.58514  -0.57751  -0.57536  -0.56893
 Alpha  occ. eigenvalues --   -0.55913  -0.55612  -0.55017  -0.54670  -0.54033
 Alpha  occ. eigenvalues --   -0.53607  -0.53223  -0.52132  -0.51880  -0.51641
 Alpha  occ. eigenvalues --   -0.51030  -0.50507  -0.49837  -0.49535  -0.48390
 Alpha  occ. eigenvalues --   -0.48220  -0.48097  -0.47583  -0.47481  -0.47140
 Alpha  occ. eigenvalues --   -0.46548  -0.46203  -0.45289  -0.45015  -0.42723
 Alpha  occ. eigenvalues --   -0.42462  -0.41923  -0.41538  -0.41311  -0.40851
 Alpha  occ. eigenvalues --   -0.40232  -0.39816  -0.39712  -0.38131  -0.37181
 Alpha  occ. eigenvalues --   -0.36494  -0.33281
 Alpha virt. eigenvalues --   -0.12713  -0.12096  -0.11032  -0.10412  -0.09687
 Alpha virt. eigenvalues --   -0.07730  -0.05946  -0.04812  -0.03248  -0.03068
 Alpha virt. eigenvalues --   -0.02715  -0.01744  -0.00906  -0.00604   0.00331

 Mulliken charges:
               1
     1  N   -0.712093
     2  H    0.331561
     3  H    0.315922
     4  C   -0.054566
     5  H    0.157853
     6  C    0.642138
     7  C   -0.295829
     8  H    0.186877
     9  H    0.131307
    10  O   -0.548959
    11  C   -0.355339
    12  H    0.196645
    13  H    0.175352
    14  C    0.576264
    15  O   -0.401766
    16  O   -0.622910
    17  N   -0.623905
    18  H    0.344949
    19  C   -0.050593
    20  H    0.190208
    21  C    0.648512
    22  C   -0.293505
    23  H    0.147515
    24  H    0.154412
    25  O   -0.588178
    26  C   -0.086789
    27  H    0.146481
    28  C   -0.461836
    29  H    0.151920
    30  H    0.163347
    31  H    0.144717
    32  C   -0.448110
    33  H    0.151480
    34  H    0.146900
    35  H    0.160023
    36  N   -0.580830
    37  H    0.379815
    38  C   -0.056482
    39  H    0.182643
    40  C    0.589875
    41  C   -0.285832
    42  H    0.186454
    43  H    0.156751
    44  O   -0.443239
    45  C   -0.296619
    46  H    0.208611
    47  H    0.146483
    48  C   -0.173182
    49  H    0.195644
    50  H    0.190357
    51  N   -0.605185
    52  H    0.376589
    53  N   -0.750711
    54  H    0.411570
    55  H    0.369683
    56  N   -0.777181
    57  H    0.382008
    58  H    0.403408
    59  C    0.753662
    60  O   -0.550769
    61  H    0.433038
    62  H    0.433432
 Sum of Mulliken charges =   1.00000

 Dipole moment (field-independent basis, Debye):
    X=             14.5036    Y=             -1.2781    Z=            -12.5175  Tot=             19.2009
 Quadrupole moment (field-independent basis, Debye-Ang):
   XX=           -101.8103   YY=           -152.1240   ZZ=           -109.0651
   XY=              6.3411   XZ=            -48.0664   YZ=             12.7823

 Normal termination of Gaussian 16 at Thu Jun 23 05:40:09 2022.
