 Gaussian 16, Revision C.01,
 Gaussian 16:  ES64L-G16RevC.01  3-Jul-2019

 ----------------------------------------------------------------------
 # B3LYP/6-31G* empiricaldispersion=gd3bj guess=read geom=check nosymm
 integral(ultrafinegrid)
 ----------------------------------------------------------------------

 ------------------------------------------------------
 Candidate Structure: Conf:102 Charge calc in gas phase
 ------------------------------------------------------
 Structure from the checkpoint file:  "conf-102.chk"
 Charge =  1 Multiplicity = 1

                          Input orientation:
 ---------------------------------------------------------------------
 Center     Atomic      Atomic             Coordinates (Angstroms)
 Number     Number       Type             X           Y           Z
 ---------------------------------------------------------------------
      1          7           0       -3.247784    0.907121   -3.465137
      2          1           0       -3.945779    0.682848   -2.757694
      3          1           0       -3.037176    1.899462   -3.353827
      4          6           0       -2.023063    0.152151   -3.218675
      5          1           0       -2.292484   -0.896621   -3.072971
      6          6           0       -1.278077    0.649921   -1.972961
      7          6           0       -1.122993    0.255346   -4.474051
      8          1           0       -1.247707    1.260446   -4.891260
      9          1           0       -1.510570   -0.445870   -5.217675
     10          8           0       -1.074513    1.858873   -1.779840
     11          6           0        0.375000    0.037308   -4.247955
     12          1           0        0.910874    0.057604   -5.205664
     13          1           0        0.791214    0.858332   -3.654715
     14          6           0        0.746185   -1.248821   -3.546021
     15          8           0        0.003302   -2.171078   -3.283497
     16          8           0        2.055526   -1.248831   -3.195402
     17          7           0       -0.855634   -0.311347   -1.120121
     18          1           0       -0.945029   -1.277121   -1.411900
     19          6           0       -0.154566   -0.045045    0.134853
     20          1           0       -0.607326    0.856005    0.559001
     21          6           0        1.329169    0.269006   -0.146581
     22          6           0       -0.298510   -1.225450    1.093322
     23          1           0        0.234173   -0.969423    2.017061
     24          1           0        0.236441   -2.084973    0.671455
     25          8           0        2.245631   -0.510283    0.076890
     26          6           0       -1.749147   -1.613788    1.427626
     27          1           0       -2.247402   -1.926744    0.498567
     28          6           0       -1.750809   -2.812435    2.384214
     29          1           0       -1.282577   -2.548326    3.340539
     30          1           0       -2.772752   -3.145616    2.593731
     31          1           0       -1.198110   -3.660445    1.964192
     32          6           0       -2.545656   -0.441912    2.014656
     33          1           0       -2.054716   -0.047488    2.913571
     34          1           0       -2.657029    0.381908    1.300706
     35          1           0       -3.552044   -0.764370    2.301799
     36          7           0        1.524140    1.520436   -0.668699
     37          1           0        0.695589    2.027150   -0.988932
     38          6           0        2.861467    1.989912   -0.955846
     39          1           0        3.522301    1.315853   -0.394894
     40          6           0        3.030173    3.384894   -0.358698
     41          6           0        3.227837    1.919790   -2.445336
     42          1           0        2.630072    2.659100   -2.993028
     43          1           0        2.913356    0.934263   -2.792288
     44          8           0        3.398003    4.389129   -0.962834
     45          6           0        4.737912    2.105240   -2.730846
     46          1           0        5.266452    2.466802   -1.840203
     47          1           0        5.193294    1.143369   -2.982446
     48          6           0        5.023346    3.078495   -3.876584
     49          1           0        4.513638    2.755605   -4.793849
     50          1           0        6.101705    3.122826   -4.074385
     51          7           0        4.533228    4.404545   -3.484601
     52          1           0        4.115659    4.461067   -2.543908
     53          7           0        5.087047    5.507389   -5.453145
     54          1           0        4.904029    6.253018   -6.108515
     55          1           0        5.597043    4.706460   -5.793893
     56          7           0        3.848055    6.583236   -3.811596
     57          1           0        4.063538    7.491386   -4.197919
     58          1           0        3.431128    6.572195   -2.889843
     59          6           0        4.499638    5.484269   -4.245172
     60          8           0        2.724798    3.422048    0.935098
     61          1           0        2.854707    4.336706    1.252435
     62          1           0        2.219459   -2.060315   -2.677346
 ---------------------------------------------------------------------

 SCF Done:  E(RB3LYP) =  -1447.54517843     A.U. after    3 cycles

 Alpha  occ. eigenvalues --  -19.32077 -19.28595 -19.27937 -19.22928 -19.20716
 Alpha  occ. eigenvalues --  -19.20678 -14.53225 -14.52568 -14.51513 -14.45089
 Alpha  occ. eigenvalues --  -14.44841 -14.38723 -10.48942 -10.45301 -10.41135
 Alpha  occ. eigenvalues --  -10.37424 -10.36943 -10.36885 -10.34753 -10.31656
 Alpha  occ. eigenvalues --  -10.31514 -10.30166 -10.29877 -10.28895 -10.26990
 Alpha  occ. eigenvalues --  -10.25740 -10.25719 -10.23707 -10.23218  -1.23761
 Alpha  occ. eigenvalues --   -1.19379  -1.17609  -1.14552  -1.12868  -1.11917
 Alpha  occ. eigenvalues --   -1.10417  -1.06684  -1.05947  -1.02234  -1.01379
 Alpha  occ. eigenvalues --   -0.96275  -0.92554  -0.88646  -0.87726  -0.87428
 Alpha  occ. eigenvalues --   -0.83063  -0.81398  -0.79704  -0.78769  -0.75568
 Alpha  occ. eigenvalues --   -0.74772  -0.74529  -0.73549  -0.72519  -0.70988
 Alpha  occ. eigenvalues --   -0.70080  -0.68346  -0.67254  -0.66466  -0.65699
 Alpha  occ. eigenvalues --   -0.65666  -0.64363  -0.63092  -0.62408  -0.61811
 Alpha  occ. eigenvalues --   -0.60311  -0.59728  -0.58622  -0.58429  -0.57945
 Alpha  occ. eigenvalues --   -0.57337  -0.56875  -0.56438  -0.56239  -0.55333
 Alpha  occ. eigenvalues --   -0.54749  -0.54326  -0.52640  -0.52088  -0.51686
 Alpha  occ. eigenvalues --   -0.51278  -0.50498  -0.50197  -0.49808  -0.49526
 Alpha  occ. eigenvalues --   -0.48939  -0.47975  -0.47392  -0.46805  -0.46547
 Alpha  occ. eigenvalues --   -0.45895  -0.45501  -0.45303  -0.44779  -0.44706
 Alpha  occ. eigenvalues --   -0.44193  -0.44093  -0.43332  -0.42885  -0.42244
 Alpha  occ. eigenvalues --   -0.41746  -0.41293  -0.40875  -0.39317  -0.39217
 Alpha  occ. eigenvalues --   -0.39037  -0.36788  -0.36321  -0.35170  -0.34629
 Alpha  occ. eigenvalues --   -0.32829  -0.30904
 Alpha virt. eigenvalues --   -0.12851  -0.12561  -0.08841  -0.08528  -0.07396
 Alpha virt. eigenvalues --   -0.05978  -0.05360  -0.03655  -0.03451  -0.02152
 Alpha virt. eigenvalues --   -0.01417  -0.00843  -0.00089   0.00690   0.01644

 Mulliken charges:
               1
     1  N   -0.698986
     2  H    0.309797
     3  H    0.311736
     4  C   -0.067464
     5  H    0.165183
     6  C    0.588853
     7  C   -0.238572
     8  H    0.153517
     9  H    0.180806
    10  O   -0.575920
    11  C   -0.395714
    12  H    0.186711
    13  H    0.179325
    14  C    0.599889
    15  O   -0.472549
    16  O   -0.564360
    17  N   -0.600431
    18  H    0.366123
    19  C   -0.070182
    20  H    0.184192
    21  C    0.627971
    22  C   -0.283411
    23  H    0.159190
    24  H    0.157582
    25  O   -0.519849
    26  C   -0.075212
    27  H    0.122112
    28  C   -0.443952
    29  H    0.148347
    30  H    0.154114
    31  H    0.148111
    32  C   -0.454682
    33  H    0.146192
    34  H    0.144064
    35  H    0.157587
    36  N   -0.635261
    37  H    0.377205
    38  C   -0.044417
    39  H    0.222191
    40  C    0.611788
    41  C   -0.314176
    42  H    0.146498
    43  H    0.219245
    44  O   -0.529075
    45  C   -0.318482
    46  H    0.169762
    47  H    0.191265
    48  C   -0.159468
    49  H    0.181613
    50  H    0.182452
    51  N   -0.634041
    52  H    0.430898
    53  N   -0.761344
    54  H    0.383999
    55  H    0.390442
    56  N   -0.763186
    57  H    0.378156
    58  H    0.390683
    59  C    0.813085
    60  O   -0.517845
    61  H    0.431246
    62  H    0.426650
 Sum of Mulliken charges =   1.00000

 Dipole moment (field-independent basis, Debye):
    X=             17.7386    Y=             20.8546    Z=            -16.1654  Tot=             31.7945
 Quadrupole moment (field-independent basis, Debye-Ang):
   XX=            -82.4424   YY=            -42.0536   ZZ=            -82.3758
   XY=             96.7218   XZ=            -87.2711   YZ=            -84.5509

 Normal termination of Gaussian 16 at Thu Jun 23 05:40:31 2022.
