 Gaussian 16, Revision C.01,
 Gaussian 16:  ES64L-G16RevC.01  3-Jul-2019

 ----------------------------------------------------------------------
 # B3LYP/6-31G* empiricaldispersion=gd3bj guess=read geom=check nosymm
 integral(ultrafinegrid)
 ----------------------------------------------------------------------

 ------------------------------------------------------
 Candidate Structure: Conf:205 Charge calc in gas phase
 ------------------------------------------------------
 Structure from the checkpoint file:  "conf-205.chk"
 Charge =  1 Multiplicity = 1

                          Input orientation:
 ---------------------------------------------------------------------
 Center     Atomic      Atomic             Coordinates (Angstroms)
 Number     Number       Type             X           Y           Z
 ---------------------------------------------------------------------
      1          7           0       -0.643471    2.589236   -4.204914
      2          1           0       -0.849522    2.478135   -5.196520
      3          1           0       -1.129187    3.417989   -3.867441
      4          6           0       -1.127822    1.414180   -3.450658
      5          1           0       -2.228358    1.395088   -3.390543
      6          6           0       -0.640277    1.648447   -2.013655
      7          6           0       -0.687056    0.113828   -4.137255
      8          1           0       -1.183380    0.058595   -5.110830
      9          1           0       -1.068948   -0.738766   -3.563562
     10          8           0       -0.648366    2.800221   -1.555266
     11          6           0        0.826616   -0.028263   -4.349624
     12          1           0        1.414357    0.269932   -3.476316
     13          1           0        1.073847   -1.082362   -4.536152
     14          6           0        1.292073    0.721025   -5.577110
     15          8           0        0.606319    1.039953   -6.521155
     16          8           0        2.628290    0.993370   -5.534242
     17          7           0       -0.253280    0.582726   -1.287697
     18          1           0       -0.150720   -0.303629   -1.761016
     19          6           0        0.437664    0.720177   -0.019191
     20          1           0        0.140846    1.689602    0.387544
     21          6           0        1.958823    0.760227   -0.283990
     22          6           0        0.031899   -0.401264    0.952904
     23          1           0        0.538297   -0.236518    1.912354
     24          1           0        0.409198   -1.360136    0.570758
     25          8           0        2.432977    0.613492   -1.411652
     26          6           0       -1.483696   -0.500546    1.202552
     27          1           0       -1.966375   -0.746019    0.246444
     28          6           0       -1.768714   -1.641545    2.186698
     29          1           0       -1.324844   -1.432313    3.167890
     30          1           0       -2.846120   -1.771788    2.330562
     31          1           0       -1.359300   -2.593366    1.829258
     32          6           0       -2.073913    0.823364    1.704148
     33          1           0       -1.571576    1.153052    2.622989
     34          1           0       -1.989190    1.625144    0.962258
     35          1           0       -3.137181    0.704735    1.936112
     36          7           0        2.717367    0.973198    0.812713
     37          1           0        2.297450    1.061875    1.732312
     38          6           0        4.169749    0.919857    0.819794
     39          1           0        4.509037   -0.054826    0.447571
     40          6           0        4.583993    1.032673    2.282987
     41          6           0        4.842167    2.009511   -0.046623
     42          1           0        4.619840    1.745410   -1.082733
     43          1           0        5.924754    1.940735    0.093382
     44          8           0        3.806488    1.213680    3.196067
     45          6           0        4.332443    3.425132    0.241466
     46          1           0        3.268503    3.379082    0.496367
     47          1           0        4.842371    3.860383    1.109007
     48          6           0        4.530851    4.377715   -0.946459
     49          1           0        5.593434    4.479468   -1.179994
     50          1           0        4.176940    5.386708   -0.699693
     51          7           0        3.892325    3.919824   -2.187288
     52          1           0        4.489528    3.655209   -2.956591
     53          7           0        1.687992    4.275742   -1.522943
     54          1           0        0.734095    3.899756   -1.494642
     55          1           0        1.990764    4.894201   -0.788003
     56          7           0        2.138748    3.108956   -3.464236
     57          1           0        1.128148    3.018793   -3.696771
     58          1           0        2.742844    2.436719   -3.923179
     59          6           0        2.569316    3.754230   -2.380460
     60          8           0        5.911441    0.921981    2.433804
     61          1           0        6.105964    0.997572    3.388120
     62          1           0        2.851534    1.387687   -6.400637
 ---------------------------------------------------------------------

 SCF Done:  E(RB3LYP) =  -1447.57870766     A.U. after    1 cycles

 Alpha  occ. eigenvalues --  -19.30934 -19.30762 -19.25582 -19.24651 -19.24030
 Alpha  occ. eigenvalues --  -19.23342 -14.50368 -14.48723 -14.48284 -14.47398
 Alpha  occ. eigenvalues --  -14.47353 -14.44317 -10.45572 -10.43508 -10.42839
 Alpha  occ. eigenvalues --  -10.41027 -10.40259 -10.35723 -10.35421 -10.34455
 Alpha  occ. eigenvalues --  -10.34377 -10.30634 -10.30578 -10.30453 -10.30067
 Alpha  occ. eigenvalues --  -10.29334 -10.28097 -10.25729 -10.25366  -1.22100
 Alpha  occ. eigenvalues --   -1.21262  -1.16182  -1.14947  -1.14197  -1.13236
 Alpha  occ. eigenvalues --   -1.12284  -1.04913  -1.04259  -1.03841  -1.01831
 Alpha  occ. eigenvalues --   -1.00821  -0.92353  -0.91105  -0.90022  -0.87644
 Alpha  occ. eigenvalues --   -0.85198  -0.82348  -0.80609  -0.77026  -0.76751
 Alpha  occ. eigenvalues --   -0.76325  -0.75438  -0.73430  -0.72496  -0.71723
 Alpha  occ. eigenvalues --   -0.70697  -0.69276  -0.68578  -0.66947  -0.66069
 Alpha  occ. eigenvalues --   -0.64196  -0.64023  -0.62786  -0.61928  -0.61003
 Alpha  occ. eigenvalues --   -0.60704  -0.60476  -0.60197  -0.59346  -0.59069
 Alpha  occ. eigenvalues --   -0.58455  -0.58218  -0.57253  -0.57114  -0.56295
 Alpha  occ. eigenvalues --   -0.55477  -0.55285  -0.55126  -0.53605  -0.53437
 Alpha  occ. eigenvalues --   -0.53153  -0.52451  -0.52022  -0.51343  -0.51284
 Alpha  occ. eigenvalues --   -0.50638  -0.50014  -0.49853  -0.48769  -0.48110
 Alpha  occ. eigenvalues --   -0.47608  -0.47256  -0.46930  -0.46628  -0.46334
 Alpha  occ. eigenvalues --   -0.45846  -0.45747  -0.45251  -0.43128  -0.42760
 Alpha  occ. eigenvalues --   -0.42149  -0.41556  -0.41520  -0.40224  -0.39253
 Alpha  occ. eigenvalues --   -0.39049  -0.38567  -0.38549  -0.38241  -0.37141
 Alpha  occ. eigenvalues --   -0.36834  -0.36174
 Alpha virt. eigenvalues --   -0.10770  -0.10543  -0.09950  -0.09854  -0.08941
 Alpha virt. eigenvalues --   -0.06018  -0.04285  -0.04084  -0.03061  -0.02775
 Alpha virt. eigenvalues --   -0.01731  -0.00595   0.00546   0.01178   0.01615

 Mulliken charges:
               1
     1  N   -0.779312
     2  H    0.351672
     3  H    0.343031
     4  C   -0.056821
     5  H    0.184322
     6  C    0.649506
     7  C   -0.330230
     8  H    0.199291
     9  H    0.157872
    10  O   -0.576903
    11  C   -0.395422
    12  H    0.219029
    13  H    0.204595
    14  C    0.600223
    15  O   -0.453498
    16  O   -0.586064
    17  N   -0.571474
    18  H    0.349716
    19  C   -0.099450
    20  H    0.199367
    21  C    0.635453
    22  C   -0.287186
    23  H    0.152743
    24  H    0.147917
    25  O   -0.540121
    26  C   -0.065505
    27  H    0.129300
    28  C   -0.447585
    29  H    0.151820
    30  H    0.162252
    31  H    0.148202
    32  C   -0.465069
    33  H    0.146014
    34  H    0.154986
    35  H    0.165601
    36  N   -0.631936
    37  H    0.368892
    38  C   -0.022630
    39  H    0.204788
    40  C    0.586575
    41  C   -0.288445
    42  H    0.177859
    43  H    0.181791
    44  O   -0.460368
    45  C   -0.284308
    46  H    0.154012
    47  H    0.173105
    48  C   -0.172071
    49  H    0.188676
    50  H    0.178365
    51  N   -0.600280
    52  H    0.359286
    53  N   -0.792288
    54  H    0.431369
    55  H    0.364829
    56  N   -0.828873
    57  H    0.430753
    58  H    0.373834
    59  C    0.807762
    60  O   -0.558062
    61  H    0.434685
    62  H    0.424407
 Sum of Mulliken charges =   1.00000

 Dipole moment (field-independent basis, Debye):
    X=             11.4191    Y=              9.8635    Z=             -6.8148  Tot=             16.5567
 Quadrupole moment (field-independent basis, Debye-Ang):
   XX=           -100.7795   YY=           -125.2628   ZZ=           -129.3183
   XY=             39.7172   XZ=             -5.6023   YZ=            -18.2630

 Normal termination of Gaussian 16 at Thu Jun 23 05:40:09 2022.
