 Gaussian 16, Revision C.01,
 Gaussian 16:  ES64L-G16RevC.01  3-Jul-2019

 ----------------------------------------------------------------------
 # B3LYP/6-31G* empiricaldispersion=gd3bj guess=read geom=check nosymm
 integral(ultrafinegrid)
 ----------------------------------------------------------------------

 ------------------------------------------------------
 Candidate Structure: Conf:669 Charge calc in gas phase
 ------------------------------------------------------
 Structure from the checkpoint file:  "conf-669.chk"
 Charge =  1 Multiplicity = 1

                          Input orientation:
 ---------------------------------------------------------------------
 Center     Atomic      Atomic             Coordinates (Angstroms)
 Number     Number       Type             X           Y           Z
 ---------------------------------------------------------------------
      1          7           0       -2.634631    1.188938   -4.480393
      2          1           0       -3.548818    1.341021   -4.058091
      3          1           0       -2.219806    2.114899   -4.578354
      4          6           0       -1.805536    0.382767   -3.604028
      5          1           0       -2.384099   -0.504326   -3.326306
      6          6           0       -1.397464    1.064082   -2.290003
      7          6           0       -0.520333   -0.078753   -4.350848
      8          1           0        0.351647   -0.045099   -3.689685
      9          1           0       -0.341034    0.626128   -5.168747
     10          8           0       -1.497066    2.301336   -2.140819
     11          6           0       -0.663899   -1.482315   -4.934018
     12          1           0       -1.578618   -1.560370   -5.535457
     13          1           0        0.162345   -1.723578   -5.612699
     14          6           0       -0.708357   -2.554387   -3.868419
     15          8           0       -0.719318   -2.368091   -2.660014
     16          8           0       -0.739727   -3.785093   -4.395447
     17          7           0       -0.912673    0.229049   -1.361758
     18          1           0       -0.784812   -0.740949   -1.661299
     19          6           0       -0.283522    0.631934   -0.124586
     20          1           0       -0.820467    1.499237    0.270249
     21          6           0        1.183848    1.042391   -0.364763
     22          6           0       -0.350760   -0.531389    0.887345
     23          1           0        0.130478   -0.222936    1.823404
     24          1           0        0.248948   -1.362750    0.492577
     25          8           0        1.766075    0.855306   -1.428676
     26          6           0       -1.775512   -1.026426    1.192181
     27          1           0       -2.209941   -1.404248    0.257161
     28          6           0       -1.707601   -2.190480    2.188248
     29          1           0       -1.292903   -1.861156    3.149062
     30          1           0       -2.705327   -2.599196    2.378354
     31          1           0       -1.077110   -3.003263    1.810545
     32          6           0       -2.676053    0.097516    1.717545
     33          1           0       -2.245252    0.557920    2.616415
     34          1           0       -2.834151    0.884478    0.971071
     35          1           0       -3.661795   -0.293873    1.988643
     36          7           0        1.779863    1.634785    0.716151
     37          1           0        1.268562    1.597239    1.593934
     38          6           0        3.224309    1.578190    0.925094
     39          1           0        3.648399    0.870945    0.204603
     40          6           0        3.439605    1.029348    2.334436
     41          6           0        3.939451    2.936713    0.761766
     42          1           0        4.973614    2.811782    1.092736
     43          1           0        3.477682    3.651705    1.454944
     44          8           0        2.548713    0.881559    3.144797
     45          6           0        3.905664    3.463720   -0.690401
     46          1           0        4.926159    3.598734   -1.064623
     47          1           0        3.450587    2.702928   -1.333351
     48          6           0        3.190962    4.812816   -0.858903
     49          1           0        3.182307    5.120637   -1.909326
     50          1           0        3.717348    5.593592   -0.304234
     51          7           0        1.806627    4.829418   -0.371789
     52          1           0        1.656862    5.077294    0.595778
     53          7           0        0.943176    3.663374   -2.197440
     54          1           0        0.117726    3.178971   -2.556483
     55          1           0        1.822624    3.206754   -2.395668
     56          7           0       -0.450028    4.276978   -0.469808
     57          1           0       -1.162267    3.679506   -0.897306
     58          1           0       -0.699709    4.937282    0.251038
     59          6           0        0.778156    4.247183   -1.002233
     60          8           0        4.729564    0.759169    2.572872
     61          1           0        4.800345    0.430041    3.490132
     62          1           0       -0.776043   -4.422042   -3.656007
 ---------------------------------------------------------------------

 SCF Done:  E(RB3LYP) =  -1447.56805732     A.U. after    1 cycles

 Alpha  occ. eigenvalues --  -19.31258 -19.29238 -19.25937 -19.24527 -19.24040
 Alpha  occ. eigenvalues --  -19.23963 -14.51482 -14.49963 -14.49309 -14.47578
 Alpha  occ. eigenvalues --  -14.46441 -14.40530 -10.46770 -10.43838 -10.42329
 Alpha  occ. eigenvalues --  -10.40558 -10.39689 -10.35916 -10.35703 -10.34440
 Alpha  occ. eigenvalues --  -10.31945 -10.31263 -10.31067 -10.29329 -10.29026
 Alpha  occ. eigenvalues --  -10.28487 -10.27945 -10.26028 -10.25260  -1.22410
 Alpha  occ. eigenvalues --   -1.20601  -1.16094  -1.15470  -1.14682  -1.13549
 Alpha  occ. eigenvalues --   -1.11462  -1.05439  -1.04460  -1.03865  -1.03019
 Alpha  occ. eigenvalues --   -0.98260  -0.92625  -0.90915  -0.88730  -0.87953
 Alpha  occ. eigenvalues --   -0.85129  -0.81353  -0.80201  -0.77516  -0.76939
 Alpha  occ. eigenvalues --   -0.75743  -0.74824  -0.73801  -0.72694  -0.71394
 Alpha  occ. eigenvalues --   -0.69856  -0.69174  -0.68279  -0.67779  -0.65914
 Alpha  occ. eigenvalues --   -0.64356  -0.63962  -0.63348  -0.61721  -0.61168
 Alpha  occ. eigenvalues --   -0.60382  -0.60006  -0.59672  -0.59055  -0.58971
 Alpha  occ. eigenvalues --   -0.58406  -0.58053  -0.57490  -0.56517  -0.56036
 Alpha  occ. eigenvalues --   -0.55416  -0.54831  -0.54156  -0.53844  -0.53399
 Alpha  occ. eigenvalues --   -0.52788  -0.51947  -0.51612  -0.51202  -0.50819
 Alpha  occ. eigenvalues --   -0.50106  -0.49754  -0.49076  -0.48241  -0.47763
 Alpha  occ. eigenvalues --   -0.47436  -0.46825  -0.46625  -0.46541  -0.46068
 Alpha  occ. eigenvalues --   -0.45302  -0.45231  -0.43554  -0.43385  -0.42178
 Alpha  occ. eigenvalues --   -0.41825  -0.41759  -0.41489  -0.41281  -0.40378
 Alpha  occ. eigenvalues --   -0.39542  -0.38577  -0.37924  -0.37848  -0.37721
 Alpha  occ. eigenvalues --   -0.36241  -0.33206
 Alpha virt. eigenvalues --   -0.12039  -0.10817  -0.09748  -0.09484  -0.09011
 Alpha virt. eigenvalues --   -0.06982  -0.03957  -0.02980  -0.02535  -0.01888
 Alpha virt. eigenvalues --   -0.01175  -0.00859   0.00347   0.00888   0.01279

 Mulliken charges:
               1
     1  N   -0.689930
     2  H    0.313964
     3  H    0.305559
     4  C   -0.090978
     5  H    0.172567
     6  C    0.581698
     7  C   -0.282346
     8  H    0.179003
     9  H    0.165249
    10  O   -0.601351
    11  C   -0.366796
    12  H    0.215329
    13  H    0.200036
    14  C    0.598989
    15  O   -0.494983
    16  O   -0.540507
    17  N   -0.582842
    18  H    0.413637
    19  C   -0.077666
    20  H    0.168042
    21  C    0.608254
    22  C   -0.307414
    23  H    0.158613
    24  H    0.162258
    25  O   -0.530150
    26  C   -0.068367
    27  H    0.141584
    28  C   -0.448153
    29  H    0.150791
    30  H    0.160409
    31  H    0.151061
    32  C   -0.457464
    33  H    0.142901
    34  H    0.139393
    35  H    0.166990
    36  N   -0.603957
    37  H    0.357161
    38  C   -0.067568
    39  H    0.212868
    40  C    0.589535
    41  C   -0.270197
    42  H    0.195535
    43  H    0.134773
    44  O   -0.461455
    45  C   -0.301107
    46  H    0.183171
    47  H    0.180226
    48  C   -0.185646
    49  H    0.197328
    50  H    0.192769
    51  N   -0.583416
    52  H    0.355054
    53  N   -0.754687
    54  H    0.401307
    55  H    0.380208
    56  N   -0.790083
    57  H    0.419150
    58  H    0.365548
    59  C    0.785658
    60  O   -0.550038
    61  H    0.435484
    62  H    0.424999
 Sum of Mulliken charges =   1.00000

 Dipole moment (field-independent basis, Debye):
    X=              5.4057    Y=             10.5049    Z=             -1.6995  Tot=             11.9358
 Quadrupole moment (field-independent basis, Debye-Ang):
   XX=           -131.4789   YY=            -96.2436   ZZ=           -147.0671
   XY=             25.0443   XZ=              9.4585   YZ=              6.9140

 Normal termination of Gaussian 16 at Thu Jun 23 05:40:08 2022.
