 Gaussian 16, Revision C.01,
 Gaussian 16:  ES64L-G16RevC.01  3-Jul-2019

 ----------------------------------------------------------------------
 # B3LYP/6-31G* empiricaldispersion=gd3bj guess=read geom=check nosymm
 integral(ultrafinegrid)
 ----------------------------------------------------------------------

 ------------------------------------------------------
 Candidate Structure: Conf:879 Charge calc in gas phase
 ------------------------------------------------------
 Structure from the checkpoint file:  "conf-879.chk"
 Charge =  1 Multiplicity = 1

                          Input orientation:
 ---------------------------------------------------------------------
 Center     Atomic      Atomic             Coordinates (Angstroms)
 Number     Number       Type             X           Y           Z
 ---------------------------------------------------------------------
      1          7           0       -0.594261   -1.910591   -3.215463
      2          1           0       -0.780983   -2.347082   -4.118136
      3          1           0        0.394473   -2.085376   -3.033893
      4          6           0       -0.798503   -0.464673   -3.358866
      5          1           0       -0.168720   -0.008689   -4.136318
      6          6           0       -0.437113    0.244255   -2.054589
      7          6           0       -2.275836   -0.140560   -3.668679
      8          1           0       -2.350943    0.934746   -3.860755
      9          1           0       -2.879856   -0.358758   -2.781314
     10          8           0       -0.078576    1.425666   -2.019731
     11          6           0       -2.886302   -0.932980   -4.844864
     12          1           0       -2.979411   -1.986288   -4.565246
     13          1           0       -3.885451   -0.546531   -5.059294
     14          6           0       -2.029860   -0.872147   -6.086222
     15          8           0       -1.019691   -1.527499   -6.259577
     16          8           0       -2.477095    0.024566   -6.988871
     17          7           0       -0.589107   -0.512033   -0.944863
     18          1           0       -0.801178   -1.494372   -1.089427
     19          6           0       -0.216220   -0.015272    0.364054
     20          1           0       -0.852591    0.844344    0.603377
     21          6           0        1.252668    0.428650    0.338943
     22          6           0       -0.397210   -1.124244    1.410837
     23          1           0        0.224391   -1.972613    1.098592
     24          1           0       -1.444266   -1.454618    1.380643
     25          8           0        2.146169   -0.290979   -0.088468
     26          6           0       -0.026426   -0.731910    2.851744
     27          1           0        1.021617   -0.402373    2.859989
     28          6           0       -0.888321    0.418061    3.388548
     29          1           0       -1.954328    0.161648    3.347921
     30          1           0       -0.636618    0.632533    4.432529
     31          1           0       -0.745043    1.346787    2.825378
     32          6           0       -0.140901   -1.961433    3.761435
     33          1           0       -1.174218   -2.328655    3.795496
     34          1           0        0.494909   -2.780220    3.406768
     35          1           0        0.160121   -1.719828    4.786411
     36          7           0        1.493945    1.659932    0.878778
     37          1           0        0.711391    2.255977    1.106908
     38          6           0        2.833278    2.193995    0.935989
     39          1           0        3.491346    1.316045    0.894739
     40          6           0        3.114013    2.907422    2.254457
     41          6           0        3.176887    3.118129   -0.243393
     42          1           0        4.213972    3.440388   -0.097920
     43          1           0        2.538182    4.013717   -0.171792
     44          8           0        3.842396    3.871320    2.357183
     45          6           0        2.980276    2.455530   -1.606908
     46          1           0        3.581019    1.540954   -1.673428
     47          1           0        1.936530    2.147018   -1.730401
     48          6           0        3.310096    3.382348   -2.774204
     49          1           0        2.741757    4.316121   -2.723296
     50          1           0        3.052394    2.905975   -3.723700
     51          7           0        4.743371    3.742407   -2.870978
     52          1           0        5.358400    3.042985   -3.267928
     53          7           0        4.663066    5.717436   -1.643331
     54          1           0        5.026512    6.643652   -1.469978
     55          1           0        3.918918    5.388199   -1.043091
     56          7           0        6.560438    5.177014   -2.852593
     57          1           0        7.120713    5.852599   -2.352851
     58          1           0        6.984399    4.716505   -3.645259
     59          6           0        5.315884    4.866342   -2.447177
     60          8           0        2.480342    2.336611    3.295216
     61          1           0        2.746739    2.831244    4.094166
     62          1           0       -1.856656   -0.003751   -7.742529
 ---------------------------------------------------------------------

 SCF Done:  E(RB3LYP) =  -1447.53020180     A.U. after    2 cycles

 Alpha  occ. eigenvalues --  -19.29413 -19.26767 -19.23845 -19.21062 -19.19924
 Alpha  occ. eigenvalues --  -19.19062 -14.53911 -14.53815 -14.53568 -14.45237
 Alpha  occ. eigenvalues --  -14.43116 -14.39043 -10.50156 -10.41968 -10.39187
 Alpha  occ. eigenvalues --  -10.36966 -10.36285 -10.35694 -10.33881 -10.31137
 Alpha  occ. eigenvalues --  -10.30423 -10.29404 -10.29206 -10.27056 -10.26936
 Alpha  occ. eigenvalues --  -10.26188 -10.25906 -10.24266 -10.23483  -1.20424
 Alpha  occ. eigenvalues --   -1.18566  -1.17643  -1.12345  -1.11419  -1.10546
 Alpha  occ. eigenvalues --   -1.08499  -1.07685  -1.06710  -1.02088  -1.00301
 Alpha  occ. eigenvalues --   -0.96203  -0.91916  -0.88624  -0.87068  -0.86342
 Alpha  occ. eigenvalues --   -0.82867  -0.81612  -0.79444  -0.78402  -0.76109
 Alpha  occ. eigenvalues --   -0.74984  -0.73820  -0.73091  -0.71524  -0.71309
 Alpha  occ. eigenvalues --   -0.69328  -0.68259  -0.67564  -0.66976  -0.65942
 Alpha  occ. eigenvalues --   -0.64963  -0.62640  -0.62132  -0.61580  -0.59845
 Alpha  occ. eigenvalues --   -0.59310  -0.58632  -0.57999  -0.57226  -0.56963
 Alpha  occ. eigenvalues --   -0.56508  -0.55882  -0.55273  -0.55246  -0.53720
 Alpha  occ. eigenvalues --   -0.53169  -0.53016  -0.52466  -0.51256  -0.50686
 Alpha  occ. eigenvalues --   -0.49986  -0.49698  -0.49033  -0.48854  -0.48645
 Alpha  occ. eigenvalues --   -0.48505  -0.47979  -0.47114  -0.46773  -0.45994
 Alpha  occ. eigenvalues --   -0.45511  -0.45159  -0.44775  -0.44539  -0.44062
 Alpha  occ. eigenvalues --   -0.43489  -0.43051  -0.42767  -0.42071  -0.41605
 Alpha  occ. eigenvalues --   -0.41483  -0.39833  -0.39532  -0.39266  -0.38690
 Alpha  occ. eigenvalues --   -0.37955  -0.34737  -0.34525  -0.34419  -0.32801
 Alpha  occ. eigenvalues --   -0.32479  -0.31919
 Alpha virt. eigenvalues --   -0.14291  -0.09887  -0.09188  -0.06781  -0.06275
 Alpha virt. eigenvalues --   -0.05783  -0.05277  -0.04950  -0.04388  -0.02200
 Alpha virt. eigenvalues --   -0.00616  -0.00265   0.00554   0.01165   0.01653

 Mulliken charges:
               1
     1  N   -0.768075
     2  H    0.340534
     3  H    0.314250
     4  C   -0.046875
     5  H    0.144000
     6  C    0.602129
     7  C   -0.270532
     8  H    0.170376
     9  H    0.163066
    10  O   -0.567236
    11  C   -0.357779
    12  H    0.189283
    13  H    0.185162
    14  C    0.579341
    15  O   -0.469800
    16  O   -0.551063
    17  N   -0.601591
    18  H    0.363788
    19  C   -0.008988
    20  H    0.151320
    21  C    0.647412
    22  C   -0.300500
    23  H    0.163927
    24  H    0.152023
    25  O   -0.542364
    26  C   -0.089786
    27  H    0.146300
    28  C   -0.441042
    29  H    0.150561
    30  H    0.153867
    31  H    0.119851
    32  C   -0.445318
    33  H    0.148306
    34  H    0.151297
    35  H    0.151001
    36  N   -0.595854
    37  H    0.340617
    38  C   -0.058241
    39  H    0.220968
    40  C    0.587743
    41  C   -0.290417
    42  H    0.151248
    43  H    0.135237
    44  O   -0.471016
    45  C   -0.297837
    46  H    0.167531
    47  H    0.247277
    48  C   -0.190164
    49  H    0.185493
    50  H    0.203376
    51  N   -0.580720
    52  H    0.367326
    53  N   -0.751144
    54  H    0.384003
    55  H    0.401159
    56  N   -0.760240
    57  H    0.386413
    58  H    0.385663
    59  C    0.812239
    60  O   -0.548426
    61  H    0.426421
    62  H    0.414501
 Sum of Mulliken charges =   1.00000

 Dipole moment (field-independent basis, Debye):
    X=             18.5121    Y=             18.8436    Z=             -9.4214  Tot=             28.0454
 Quadrupole moment (field-independent basis, Debye-Ang):
   XX=            -40.8418   YY=            -70.9108   ZZ=           -108.3924
   XY=            109.5110   XZ=            -48.9425   YZ=            -40.4288

 Normal termination of Gaussian 16 at Thu Jun 23 05:40:16 2022.
