 Gaussian 16, Revision C.01,
 Gaussian 16:  ES64L-G16RevC.01  3-Jul-2019

 ----------------------------------------------------------------------
 # B3LYP/6-31G* empiricaldispersion=gd3bj guess=read geom=check nosymm
 integral(ultrafinegrid)
 ----------------------------------------------------------------------

 ------------------------------------------------------
 Candidate Structure: Conf:962 Charge calc in gas phase
 ------------------------------------------------------
 Structure from the checkpoint file:  "conf-962.chk"
 Charge =  1 Multiplicity = 1

                          Input orientation:
 ---------------------------------------------------------------------
 Center     Atomic      Atomic             Coordinates (Angstroms)
 Number     Number       Type             X           Y           Z
 ---------------------------------------------------------------------
      1          7           0       -2.582635   -2.347933   -3.213878
      2          1           0       -3.370129   -1.708443   -3.117364
      3          1           0       -2.730689   -2.906663   -4.050813
      4          6           0       -1.357030   -1.558682   -3.320353
      5          1           0       -0.507083   -2.253688   -3.268082
      6          6           0       -1.346525   -0.638017   -2.101216
      7          6           0       -1.199537   -0.681859   -4.580535
      8          1           0       -0.258247   -0.122542   -4.521957
      9          1           0       -2.004931    0.061082   -4.592665
     10          8           0       -2.298786    0.098013   -1.855750
     11          6           0       -1.209327   -1.489580   -5.876273
     12          1           0       -0.484258   -2.315608   -5.828598
     13          1           0       -2.182941   -1.953250   -6.066565
     14          6           0       -0.838542   -0.648296   -7.079059
     15          8           0       -0.277849    0.425171   -7.046382
     16          8           0       -1.190565   -1.257485   -8.235103
     17          7           0       -0.229385   -0.682667   -1.328002
     18          1           0        0.559802   -1.259846   -1.585915
     19          6           0       -0.054678    0.194117   -0.191030
     20          1           0       -0.782487    1.003091   -0.314437
     21          6           0        1.367749    0.741127   -0.246307
     22          6           0       -0.294880   -0.482277    1.177767
     23          1           0       -0.061231    0.266849    1.947275
     24          1           0        0.432512   -1.295135    1.306179
     25          8           0        2.305335    0.106435   -0.721302
     26          6           0       -1.730575   -1.009865    1.403701
     27          1           0       -2.425252   -0.326449    0.897985
     28          6           0       -1.946666   -2.418933    0.832464
     29          1           0       -1.235076   -3.126909    1.277334
     30          1           0       -2.955891   -2.771540    1.071572
     31          1           0       -1.837220   -2.460963   -0.252631
     32          6           0       -2.047423   -0.999771    2.906047
     33          1           0       -1.353304   -1.647860    3.456708
     34          1           0       -1.970979    0.009585    3.328377
     35          1           0       -3.061901   -1.367093    3.093991
     36          7           0        1.550064    1.978216    0.306737
     37          1           0        0.762579    2.507340    0.652400
     38          6           0        2.876516    2.554573    0.344398
     39          1           0        3.578124    1.734417    0.537428
     40          6           0        3.032084    3.540255    1.482892
     41          6           0        3.266469    3.166056   -1.031441
     42          1           0        2.642144    4.045119   -1.234890
     43          1           0        2.981633    2.400351   -1.755331
     44          8           0        4.098247    4.029658    1.829126
     45          6           0        4.763137    3.485707   -1.205147
     46          1           0        5.355681    2.856508   -0.530731
     47          1           0        5.075460    3.216757   -2.220055
     48          6           0        5.110114    4.962725   -0.971746
     49          1           0        4.687444    5.338420   -0.038733
     50          1           0        4.709055    5.585514   -1.775277
     51          7           0        6.560911    5.202878   -0.938018
     52          1           0        7.031462    5.315058   -1.826609
     53          7           0        6.827748    4.530240    1.273796
     54          1           0        7.376762    4.569556    2.120869
     55          1           0        5.847622    4.247381    1.373984
     56          7           0        8.655348    5.247545    0.044469
     57          1           0        9.288219    4.995481    0.789383
     58          1           0        9.034995    5.788268   -0.718846
     59          6           0        7.336664    4.989310    0.131360
     60          8           0        1.882851    3.864510    2.079712
     61          1           0        2.076430    4.500878    2.795941
     62          1           0       -0.896915   -0.670198   -8.957152
 ---------------------------------------------------------------------

 SCF Done:  E(RB3LYP) =  -1447.52284954     A.U. after    1 cycles

 Alpha  occ. eigenvalues --  -19.33947 -19.28703 -19.24695 -19.21253 -19.19145
 Alpha  occ. eigenvalues --  -19.17280 -14.53746 -14.53671 -14.52575 -14.46507
 Alpha  occ. eigenvalues --  -14.42434 -14.36786 -10.49891 -10.46700 -10.38107
 Alpha  occ. eigenvalues --  -10.37367 -10.37077 -10.36210 -10.34363 -10.32064
 Alpha  occ. eigenvalues --  -10.31378 -10.30679 -10.27980 -10.25827 -10.25504
 Alpha  occ. eigenvalues --  -10.24300 -10.24256 -10.22486 -10.21440  -1.25223
 Alpha  occ. eigenvalues --   -1.18366  -1.15893  -1.15621  -1.13470  -1.09394
 Alpha  occ. eigenvalues --   -1.07730  -1.06622  -1.06205  -1.03415  -0.99109
 Alpha  occ. eigenvalues --   -0.94274  -0.93124  -0.88815  -0.86617  -0.84642
 Alpha  occ. eigenvalues --   -0.83508  -0.81515  -0.80077  -0.76958  -0.76104
 Alpha  occ. eigenvalues --   -0.75827  -0.73088  -0.72821  -0.72233  -0.71770
 Alpha  occ. eigenvalues --   -0.70271  -0.68208  -0.67224  -0.66593  -0.65377
 Alpha  occ. eigenvalues --   -0.65158  -0.63335  -0.62365  -0.61943  -0.61753
 Alpha  occ. eigenvalues --   -0.60756  -0.59855  -0.58772  -0.58573  -0.56667
 Alpha  occ. eigenvalues --   -0.56478  -0.55232  -0.54814  -0.54267  -0.54032
 Alpha  occ. eigenvalues --   -0.53252  -0.52915  -0.52727  -0.52116  -0.50726
 Alpha  occ. eigenvalues --   -0.50526  -0.49587  -0.49462  -0.48421  -0.48305
 Alpha  occ. eigenvalues --   -0.48052  -0.47292  -0.47133  -0.46891  -0.45965
 Alpha  occ. eigenvalues --   -0.45588  -0.44585  -0.44295  -0.43810  -0.43334
 Alpha  occ. eigenvalues --   -0.43035  -0.42688  -0.42031  -0.41965  -0.41579
 Alpha  occ. eigenvalues --   -0.41341  -0.40030  -0.38731  -0.38008  -0.37683
 Alpha  occ. eigenvalues --   -0.36970  -0.35881  -0.34958  -0.32884  -0.31381
 Alpha  occ. eigenvalues --   -0.31332  -0.28761
 Alpha virt. eigenvalues --   -0.13679  -0.13459  -0.09915  -0.07089  -0.05920
 Alpha virt. eigenvalues --   -0.05269  -0.05022  -0.04361  -0.03179  -0.02584
 Alpha virt. eigenvalues --   -0.00929  -0.00673   0.00833   0.01007   0.01657

 Mulliken charges:
               1
     1  N   -0.715564
     2  H    0.321031
     3  H    0.306565
     4  C   -0.065816
     5  H    0.128738
     6  C    0.634191
     7  C   -0.261702
     8  H    0.153374
     9  H    0.168247
    10  O   -0.537690
    11  C   -0.366811
    12  H    0.179347
    13  H    0.173792
    14  C    0.582487
    15  O   -0.463721
    16  O   -0.562656
    17  N   -0.600942
    18  H    0.344979
    19  C   -0.068398
    20  H    0.179689
    21  C    0.629516
    22  C   -0.254742
    23  H    0.123295
    24  H    0.147881
    25  O   -0.534178
    26  C   -0.075953
    27  H    0.154610
    28  C   -0.454542
    29  H    0.132692
    30  H    0.150467
    31  H    0.172927
    32  C   -0.446949
    33  H    0.141735
    34  H    0.131159
    35  H    0.155720
    36  N   -0.625779
    37  H    0.357610
    38  C   -0.046863
    39  H    0.216142
    40  C    0.618163
    41  C   -0.283772
    42  H    0.158862
    43  H    0.212688
    44  O   -0.506136
    45  C   -0.277835
    46  H    0.159600
    47  H    0.174105
    48  C   -0.191937
    49  H    0.196193
    50  H    0.198039
    51  N   -0.593164
    52  H    0.365293
    53  N   -0.792576
    54  H    0.374883
    55  H    0.446504
    56  N   -0.768420
    57  H    0.384881
    58  H    0.384440
    59  C    0.826717
    60  O   -0.541948
    61  H    0.438393
    62  H    0.413138
 Sum of Mulliken charges =   1.00000

 Dipole moment (field-independent basis, Debye):
    X=             29.5707    Y=             21.7919    Z=              0.1751  Tot=             36.7334
 Quadrupole moment (field-independent basis, Debye-Ang):
   XX=             50.3682   YY=            -56.2289   ZZ=           -131.3796
   XY=            154.3305   XZ=              6.8702   YZ=             15.4849

 Normal termination of Gaussian 16 at Thu Jun 23 05:40:04 2022.
