 Gaussian 16, Revision C.01,
 Gaussian 16:  ES64L-G16RevC.01  3-Jul-2019

 ----------------------------------------------------------------------
 # B3LYP/6-31G* empiricaldispersion=gd3bj guess=read geom=check nosymm
 integral(ultrafinegrid)
 ----------------------------------------------------------------------

 ------------------------------------------------------
 Candidate Structure: Conf:110 Charge calc in gas phase
 ------------------------------------------------------
 Structure from the checkpoint file:  "conf-110.chk"
 Charge =  1 Multiplicity = 1

                          Input orientation:
 ---------------------------------------------------------------------
 Center     Atomic      Atomic             Coordinates (Angstroms)
 Number     Number       Type             X           Y           Z
 ---------------------------------------------------------------------
      1          7           0       -2.412943   -1.243868   -3.583582
      2          1           0       -3.268402   -0.739274   -3.354207
      3          1           0       -2.566620   -1.708439   -4.476832
      4          6           0       -1.308457   -0.291099   -3.689132
      5          1           0       -0.407713   -0.866009   -3.931110
      6          6           0       -1.147655    0.330093   -2.298765
      7          6           0       -1.488359    0.801483   -4.768224
      8          1           0       -2.507891    1.192555   -4.701611
      9          1           0       -1.378806    0.321896   -5.746153
     10          8           0       -1.917075    1.188879   -1.882075
     11          6           0       -0.530904    2.020586   -4.664591
     12          1           0       -0.437777    2.488671   -5.651043
     13          1           0       -0.935309    2.753752   -3.966707
     14          6           0        0.843616    1.631378   -4.189699
     15          8           0        1.545090    0.768494   -4.700679
     16          8           0        1.250734    2.298002   -3.083991
     17          7           0       -0.087617   -0.141915   -1.579995
     18          1           0        0.484982   -0.873462   -1.976768
     19          6           0        0.227611    0.319519   -0.247743
     20          1           0       -0.512427    1.092339   -0.019741
     21          6           0        1.612714    0.968808   -0.261196
     22          6           0        0.146583   -0.813541    0.798502
     23          1           0        0.381923   -0.401943    1.789569
     24          1           0        0.930729   -1.550765    0.576033
     25          8           0        2.386663    0.869731   -1.240242
     26          6           0       -1.222949   -1.512695    0.853123
     27          1           0       -1.432028   -1.918165   -0.145863
     28          6           0       -1.159118   -2.682555    1.842949
     29          1           0       -0.964287   -2.325212    2.861986
     30          1           0       -2.108029   -3.228261    1.858756
     31          1           0       -0.367229   -3.393018    1.578368
     32          6           0       -2.352141   -0.540354    1.218152
     33          1           0       -2.149997   -0.048790    2.179232
     34          1           0       -2.497079    0.231417    0.455903
     35          1           0       -3.299150   -1.080544    1.319483
     36          7           0        1.976247    1.674048    0.817813
     37          1           0        1.401803    1.726727    1.653074
     38          6           0        3.254121    2.365906    0.851974
     39          1           0        4.038843    1.655158    0.569911
     40          6           0        3.493336    2.804663    2.285994
     41          6           0        3.293017    3.561716   -0.138201
     42          1           0        2.905239    4.462649    0.348149
     43          1           0        2.590562    3.318681   -0.936118
     44          8           0        2.697844    2.657350    3.185652
     45          6           0        4.684928    3.826340   -0.741320
     46          1           0        5.191420    4.640226   -0.213557
     47          1           0        5.319750    2.941262   -0.617902
     48          6           0        4.612766    4.179845   -2.235093
     49          1           0        5.583637    4.523642   -2.611143
     50          1           0        3.917684    5.005959   -2.404559
     51          7           0        4.137447    3.072416   -3.077655
     52          1           0        3.137917    3.022651   -3.262581
     53          7           0        6.151467    1.905262   -3.029399
     54          1           0        6.735003    1.184908   -3.429949
     55          1           0        6.634048    2.723264   -2.690336
     56          7           0        4.295419    0.970530   -4.049559
     57          1           0        4.828788    0.128530   -4.212039
     58          1           0        3.283773    0.913215   -4.249374
     59          6           0        4.850138    1.983078   -3.383548
     60          8           0        4.692294    3.397733    2.418102
     61          1           0        4.782346    3.671954    3.351589
     62          1           0        1.758186    1.658239   -2.490809
 ---------------------------------------------------------------------

 SCF Done:  E(RB3LYP) =  -1447.55303129     A.U. after    1 cycles

 Alpha  occ. eigenvalues --  -19.31428 -19.29366 -19.26171 -19.25913 -19.24928
 Alpha  occ. eigenvalues --  -19.20523 -14.52228 -14.51424 -14.50301 -14.48769
 Alpha  occ. eigenvalues --  -14.45657 -14.40017 -10.47989 -10.43943 -10.43655
 Alpha  occ. eigenvalues --  -10.41432 -10.37559 -10.36724 -10.36143 -10.33496
 Alpha  occ. eigenvalues --  -10.31585 -10.31313 -10.31081 -10.29477 -10.28251
 Alpha  occ. eigenvalues --  -10.28192 -10.26460 -10.24122 -10.23785  -1.22451
 Alpha  occ. eigenvalues --   -1.21333  -1.16620  -1.16468  -1.13678  -1.12556
 Alpha  occ. eigenvalues --   -1.12418  -1.05959  -1.05259  -1.04371  -1.02340
 Alpha  occ. eigenvalues --   -0.97427  -0.93009  -0.89880  -0.88616  -0.88067
 Alpha  occ. eigenvalues --   -0.84231  -0.81767  -0.79778  -0.78548  -0.75608
 Alpha  occ. eigenvalues --   -0.75193  -0.74891  -0.74632  -0.73702  -0.71556
 Alpha  occ. eigenvalues --   -0.70744  -0.69734  -0.69282  -0.67519  -0.65044
 Alpha  occ. eigenvalues --   -0.64818  -0.64555  -0.63412  -0.62253  -0.61458
 Alpha  occ. eigenvalues --   -0.60823  -0.60518  -0.59595  -0.59053  -0.58916
 Alpha  occ. eigenvalues --   -0.58422  -0.58306  -0.57552  -0.56673  -0.55835
 Alpha  occ. eigenvalues --   -0.55297  -0.54991  -0.54145  -0.53998  -0.52972
 Alpha  occ. eigenvalues --   -0.52652  -0.51973  -0.51888  -0.50532  -0.49894
 Alpha  occ. eigenvalues --   -0.49379  -0.48671  -0.48475  -0.48030  -0.47658
 Alpha  occ. eigenvalues --   -0.47318  -0.46909  -0.46644  -0.45709  -0.45223
 Alpha  occ. eigenvalues --   -0.44788  -0.44254  -0.43841  -0.43573  -0.43039
 Alpha  occ. eigenvalues --   -0.42490  -0.41194  -0.40411  -0.39975  -0.39942
 Alpha  occ. eigenvalues --   -0.39659  -0.39379  -0.38577  -0.38019  -0.35030
 Alpha  occ. eigenvalues --   -0.34382  -0.31948
 Alpha virt. eigenvalues --   -0.12242  -0.11693  -0.11330  -0.10226  -0.08040
 Alpha virt. eigenvalues --   -0.06584  -0.05140  -0.03362  -0.02720  -0.01941
 Alpha virt. eigenvalues --   -0.01582  -0.01030  -0.00294   0.00464   0.01140

 Mulliken charges:
               1
     1  N   -0.716549
     2  H    0.321185
     3  H    0.315043
     4  C   -0.080935
     5  H    0.148631
     6  C    0.626963
     7  C   -0.264945
     8  H    0.175668
     9  H    0.161702
    10  O   -0.524625
    11  C   -0.363746
    12  H    0.192106
    13  H    0.205166
    14  C    0.586738
    15  O   -0.486039
    16  O   -0.638877
    17  N   -0.597984
    18  H    0.340534
    19  C   -0.085915
    20  H    0.214483
    21  C    0.653033
    22  C   -0.270224
    23  H    0.142778
    24  H    0.141485
    25  O   -0.611064
    26  C   -0.073964
    27  H    0.149785
    28  C   -0.446495
    29  H    0.146466
    30  H    0.161186
    31  H    0.142825
    32  C   -0.474228
    33  H    0.136673
    34  H    0.176910
    35  H    0.160739
    36  N   -0.605271
    37  H    0.374587
    38  C   -0.018134
    39  H    0.200335
    40  C    0.580671
    41  C   -0.285588
    42  H    0.178687
    43  H    0.166513
    44  O   -0.445659
    45  C   -0.266416
    46  H    0.185109
    47  H    0.156629
    48  C   -0.201859
    49  H    0.175173
    50  H    0.202581
    51  N   -0.608097
    52  H    0.388870
    53  N   -0.758725
    54  H    0.376534
    55  H    0.380122
    56  N   -0.795807
    57  H    0.366527
    58  H    0.424578
    59  C    0.817824
    60  O   -0.562607
    61  H    0.436158
    62  H    0.472757
 Sum of Mulliken charges =   1.00000

 Dipole moment (field-independent basis, Debye):
    X=             19.2157    Y=              9.0769    Z=            -10.5118  Tot=             23.7094
 Quadrupole moment (field-independent basis, Debye-Ang):
   XX=            -54.0437   YY=           -131.4691   ZZ=           -113.8771
   XY=             51.9935   XZ=            -32.9633   YZ=            -11.7107

 Normal termination of Gaussian 16 at Thu Jun 23 05:40:07 2022.
