 Gaussian 16, Revision C.01,
 Gaussian 16:  ES64L-G16RevC.01  3-Jul-2019

 ----------------------------------------------------------------------
 # B3LYP/6-31G* empiricaldispersion=gd3bj guess=read geom=check nosymm
 integral(ultrafinegrid)
 ----------------------------------------------------------------------

 ------------------------------------------------------
 Candidate Structure: Conf:433 Charge calc in gas phase
 ------------------------------------------------------
 Structure from the checkpoint file:  "conf-433.chk"
 Charge =  1 Multiplicity = 1

                          Input orientation:
 ---------------------------------------------------------------------
 Center     Atomic      Atomic             Coordinates (Angstroms)
 Number     Number       Type             X           Y           Z
 ---------------------------------------------------------------------
      1          7           0       -1.260748    0.025181   -4.239368
      2          1           0       -1.206724    1.041595   -4.236846
      3          1           0       -1.049950   -0.318225   -5.172035
      4          6           0       -0.358019   -0.507750   -3.233883
      5          1           0       -0.560886   -1.580804   -3.118946
      6          6           0       -0.636074    0.228218   -1.921568
      7          6           0        1.161775   -0.305939   -3.486862
      8          1           0        1.720148   -0.634117   -2.601726
      9          1           0        1.326917    0.771740   -3.593197
     10          8           0       -0.640164    1.457892   -1.895402
     11          6           0        1.672975   -1.033039   -4.727299
     12          1           0        1.508072   -2.113956   -4.666861
     13          1           0        1.137929   -0.693737   -5.626388
     14          6           0        3.138213   -0.801270   -4.992001
     15          8           0        3.791003    0.165386   -4.605411
     16          8           0        3.681896   -1.769014   -5.729725
     17          7           0       -0.783912   -0.537540   -0.805691
     18          1           0       -0.560143   -1.520404   -0.896310
     19          6           0       -0.505116    0.050551    0.498661
     20          1           0       -1.102215    0.961005    0.581850
     21          6           0        0.988043    0.417024    0.528608
     22          6           0       -0.847135   -0.927115    1.629988
     23          1           0       -0.597025   -0.441936    2.582911
     24          1           0       -0.182976   -1.798612    1.546219
     25          8           0        1.823306   -0.268122   -0.062944
     26          6           0       -2.315180   -1.388084    1.664262
     27          1           0       -2.532212   -1.900457    0.716745
     28          6           0       -2.510618   -2.393099    2.806028
     29          1           0       -2.321711   -1.921386    3.778426
     30          1           0       -3.535811   -2.777557    2.816476
     31          1           0       -1.830842   -3.247722    2.710598
     32          6           0       -3.286959   -0.209607    1.795451
     33          1           0       -3.068763    0.379555    2.695733
     34          1           0       -3.243806    0.459442    0.929427
     35          1           0       -4.317881   -0.569005    1.877906
     36          7           0        1.317587    1.545198    1.205460
     37          1           0        0.628769    2.058852    1.740864
     38          6           0        2.682991    2.027416    1.229614
     39          1           0        3.331935    1.153959    1.127228
     40          6           0        2.934341    2.696996    2.567862
     41          6           0        3.007858    3.018477    0.067360
     42          1           0        4.091203    2.980732   -0.096286
     43          1           0        2.766608    4.045572    0.372062
     44          8           0        2.069900    2.988082    3.362540
     45          6           0        2.225295    2.673724   -1.204753
     46          1           0        2.273656    1.597997   -1.383757
     47          1           0        1.166930    2.898361   -1.058886
     48          6           0        2.696205    3.380688   -2.477481
     49          1           0        3.011131    4.414739   -2.301280
     50          1           0        1.873339    3.434304   -3.194727
     51          7           0        3.769547    2.641776   -3.159508
     52          1           0        3.486183    1.792885   -3.654565
     53          7           0        5.614709    3.874609   -2.421895
     54          1           0        6.589317    3.872705   -2.159264
     55          1           0        5.022451    4.538706   -1.947878
     56          7           0        5.902010    1.871025   -3.555365
     57          1           0        6.869966    2.093799   -3.735973
     58          1           0        5.486897    1.098618   -4.070880
     59          6           0        5.079838    2.801364   -3.035830
     60          8           0        4.241965    2.976753    2.738803
     61          1           0        4.325621    3.427076    3.601624
     62          1           0        4.617750   -1.548075   -5.898823
 ---------------------------------------------------------------------

 SCF Done:  E(RB3LYP) =  -1447.54571907     A.U. after    1 cycles

 Alpha  occ. eigenvalues --  -19.32716 -19.29595 -19.28355 -19.23961 -19.20877
 Alpha  occ. eigenvalues --  -19.20723 -14.52187 -14.51029 -14.51021 -14.45701
 Alpha  occ. eigenvalues --  -14.44790 -14.40055 -10.48013 -10.45938 -10.41977
 Alpha  occ. eigenvalues --  -10.37882 -10.37410 -10.35626 -10.33905 -10.31834
 Alpha  occ. eigenvalues --  -10.31701 -10.31629 -10.30290 -10.29210 -10.28869
 Alpha  occ. eigenvalues --  -10.27002 -10.26137 -10.23843 -10.23702  -1.24152
 Alpha  occ. eigenvalues --   -1.20540  -1.16597  -1.14935  -1.13407  -1.12213
 Alpha  occ. eigenvalues --   -1.11624  -1.05796  -1.04686  -1.02388  -1.01438
 Alpha  occ. eigenvalues --   -0.97815  -0.91244  -0.90378  -0.88932  -0.86952
 Alpha  occ. eigenvalues --   -0.83591  -0.81529  -0.80778  -0.77961  -0.75593
 Alpha  occ. eigenvalues --   -0.74834  -0.74007  -0.73671  -0.72383  -0.70875
 Alpha  occ. eigenvalues --   -0.69688  -0.68882  -0.68375  -0.66740  -0.66289
 Alpha  occ. eigenvalues --   -0.64758  -0.63924  -0.62687  -0.62249  -0.61429
 Alpha  occ. eigenvalues --   -0.61194  -0.60450  -0.59338  -0.59106  -0.58542
 Alpha  occ. eigenvalues --   -0.57417  -0.57258  -0.56665  -0.55908  -0.54925
 Alpha  occ. eigenvalues --   -0.54314  -0.54100  -0.53731  -0.53181  -0.52576
 Alpha  occ. eigenvalues --   -0.51926  -0.51719  -0.50847  -0.50355  -0.49473
 Alpha  occ. eigenvalues --   -0.49064  -0.48670  -0.48004  -0.47592  -0.47468
 Alpha  occ. eigenvalues --   -0.46697  -0.45560  -0.45424  -0.45113  -0.45050
 Alpha  occ. eigenvalues --   -0.44854  -0.44533  -0.44372  -0.43277  -0.42938
 Alpha  occ. eigenvalues --   -0.42053  -0.41725  -0.40073  -0.39910  -0.39631
 Alpha  occ. eigenvalues --   -0.39537  -0.37635  -0.35737  -0.35236  -0.34747
 Alpha  occ. eigenvalues --   -0.33732  -0.31847
 Alpha virt. eigenvalues --   -0.12531  -0.11744  -0.08977  -0.08091  -0.07846
 Alpha virt. eigenvalues --   -0.06445  -0.04680  -0.04395  -0.02879  -0.01836
 Alpha virt. eigenvalues --   -0.01617  -0.00975  -0.00299   0.00031   0.00953

 Mulliken charges:
               1
     1  N   -0.707635
     2  H    0.318926
     3  H    0.305304
     4  C   -0.068563
     5  H    0.143802
     6  C    0.649722
     7  C   -0.295373
     8  H    0.189517
     9  H    0.141510
    10  O   -0.548228
    11  C   -0.368902
    12  H    0.203184
    13  H    0.190980
    14  C    0.611848
    15  O   -0.513599
    16  O   -0.522097
    17  N   -0.576670
    18  H    0.338157
    19  C   -0.066920
    20  H    0.181112
    21  C    0.638162
    22  C   -0.292067
    23  H    0.152832
    24  H    0.150263
    25  O   -0.552744
    26  C   -0.068653
    27  H    0.133958
    28  C   -0.445195
    29  H    0.148512
    30  H    0.157905
    31  H    0.144679
    32  C   -0.457758
    33  H    0.143056
    34  H    0.155375
    35  H    0.161089
    36  N   -0.605475
    37  H    0.355314
    38  C   -0.028365
    39  H    0.210071
    40  C    0.579466
    41  C   -0.293108
    42  H    0.141397
    43  H    0.155926
    44  O   -0.450631
    45  C   -0.285917
    46  H    0.189373
    47  H    0.205345
    48  C   -0.190076
    49  H    0.160913
    50  H    0.204436
    51  N   -0.619769
    52  H    0.415088
    53  N   -0.754958
    54  H    0.378846
    55  H    0.381694
    56  N   -0.778911
    57  H    0.369429
    58  H    0.399234
    59  C    0.800298
    60  O   -0.567719
    61  H    0.428100
    62  H    0.424510
 Sum of Mulliken charges =   1.00000

 Dipole moment (field-independent basis, Debye):
    X=             20.4523    Y=              8.1579    Z=            -12.2637  Tot=             25.2041
 Quadrupole moment (field-independent basis, Debye-Ang):
   XX=            -53.0663   YY=           -125.3856   ZZ=            -99.7530
   XY=             57.5854   XZ=            -64.0144   YZ=             -9.0102

 Normal termination of Gaussian 16 at Thu Jun 23 05:40:07 2022.
