 Gaussian 16, Revision C.01,
 Gaussian 16:  ES64L-G16RevC.01  3-Jul-2019

 ----------------------------------------------------------------------
 # B3LYP/6-31G* empiricaldispersion=gd3 guess=read geom=check nosymm in
 tegral(ultrafinegrid)
 ----------------------------------------------------------------------

 ------------------------------------------------------
 Candidate Structure: Conf:883 Charge calc in gas phase
 ------------------------------------------------------
 Structure from the checkpoint file:  "conf-883.chk"
 Charge =  1 Multiplicity = 1

                          Input orientation:
 ---------------------------------------------------------------------
 Center     Atomic      Atomic             Coordinates (Angstroms)
 Number     Number       Type             X           Y           Z
 ---------------------------------------------------------------------
      1          7           0       -0.174755   -4.053105   -4.232913
      2          1           0       -0.653322   -3.619595   -5.028878
      3          1           0        0.440719   -3.282570   -3.766780
      4          1           0        0.410326   -4.834018   -4.559378
      5          6           0       -1.178877   -4.569149   -3.232653
      6          1           0       -1.863089   -5.220225   -3.782615
      7          6           0       -2.007746   -3.331713   -2.833261
      8          6           0       -0.461795   -5.358525   -2.127733
      9          1           0       -1.238445   -5.773564   -1.472594
     10          1           0        0.142929   -4.678328   -1.523718
     11          8           0       -2.788697   -2.867794   -3.668265
     12          6           0        0.434916   -6.424125   -2.685792
     13          6           0        0.323932   -7.283354   -3.762667
     14          1           0       -0.515584   -7.401820   -4.437814
     15          7           0        1.675287   -6.699478   -2.143353
     16          1           0        2.092565   -6.226097   -1.343542
     17          6           0        2.232342   -7.693846   -2.893641
     18          1           0        3.209241   -8.102786   -2.673456
     19          7           0        1.447669   -8.067732   -3.883382
     20          7           0       -1.786062   -2.808135   -1.612785
     21          1           0       -0.923523   -3.050800   -1.128741
     22          6           0       -2.410617   -1.549636   -1.199667
     23          1           0       -3.434448   -1.551894   -1.583662
     24          6           0       -1.581701   -0.419135   -1.834167
     25          6           0       -2.448719   -1.452418    0.328078
     26          1           0       -1.408362   -1.464109    0.692056
     27          8           0       -0.623364    0.083078   -1.222451
     28          6           0       -3.128265   -0.163563    0.790203
     29          1           0       -2.567971    0.715700    0.459612
     30          1           0       -3.178113   -0.137002    1.885285
     31          1           0       -4.151550   -0.110328    0.403150
     32          8           0       -3.149319   -2.613281    0.759956
     33          1           0       -3.272713   -2.549971    1.719583
     34          7           0       -1.916566   -0.101845   -3.097954
     35          1           0       -2.651602   -0.670601   -3.508043
     36          6           0       -0.991407    0.520111   -4.070105
     37          1           0        0.000922    0.098681   -3.863496
     38          6           0       -0.846452    2.059553   -3.924057
     39          6           0       -1.437893    0.146991   -5.492451
     40          1           0       -2.235591    0.834625   -5.791388
     41          1           0       -1.866863   -0.865213   -5.473695
     42          8           0       -0.867573    2.802228   -4.895702
     43          6           0       -0.304503    0.178717   -6.538394
     44          1           0        0.299449    1.074142   -6.350856
     45          6           0        0.597664   -1.060123   -6.425674
     46          1           0        0.021605   -1.967393   -6.670683
     47          1           0        1.024394   -1.182023   -5.424861
     48          1           0        1.426911   -1.007143   -7.139834
     49          6           0       -0.894206    0.294818   -7.949643
     50          1           0       -1.562177   -0.549567   -8.167346
     51          1           0       -0.103327    0.297216   -8.708043
     52          1           0       -1.470927    1.219602   -8.058505
     53          7           0       -0.626156    2.492468   -2.648524
     54          1           0       -0.523418    1.773898   -1.931904
     55          6           0       -0.101889    3.825301   -2.364201
     56          1           0        0.193555    4.259701   -3.323410
     57          6           0        1.197372    3.574431   -1.584393
     58          6           0       -1.139167    4.725596   -1.687156
     59          1           0       -0.710918    5.697992   -1.416295
     60          1           0       -1.557495    4.254074   -0.788788
     61          1           0       -1.968283    4.895482   -2.378885
     62          8           0        2.181199    3.082990   -2.146052
     63          7           0        1.169834    3.782160   -0.240177
     64          1           0        0.385369    4.265865    0.174224
     65          6           0        2.319409    3.487025    0.617722
     66          1           0        3.221111    3.732212    0.045567
     67          6           0        2.308342    1.968379    0.908033
     68          6           0        2.266524    4.323542    1.906495
     69          1           0        1.455255    3.940894    2.536681
     70          1           0        3.204245    4.145717    2.451514
     71          8           0        1.987339    1.492278    2.022612
     72          6           0        2.077043    5.797126    1.630685
     73          6           0        3.112387    6.565105    1.075739
     74          1           0        4.082516    6.108378    0.891149
     75          6           0        0.842314    6.415219    1.852010
     76          1           0        0.024782    5.848303    2.294376
     77          6           0        2.924897    7.902128    0.751755
     78          1           0        3.724679    8.498915    0.325954
     79          6           0        0.635181    7.757617    1.529288
     80          1           0       -0.331062    8.221421    1.715250
     81          8           0        1.560278    9.817841    0.635793
     82          1           0        0.667231   10.135440    0.842562
     83          6           0        1.679133    8.506704    0.975883
     84          7           0        2.570263    1.201191   -0.145813
     85          1           0        2.739577    1.689859   -1.029116
     86          6           0        2.274733   -0.223578   -0.174683
     87          1           0        1.262005   -0.364974    0.213033
     88          6           0        3.273065   -1.011152    0.693058
     89          6           0        2.302917   -0.688502   -1.644726
     90          1           0        3.330329   -0.906124   -1.964238
     91          1           0        1.945033    0.125252   -2.280571
     92          8           0        4.393761   -0.594943    0.970267
     93          6           0        1.432167   -1.900862   -1.967304
     94          8           0        1.071090   -2.693346   -1.034922
     95          8           0        1.130086   -2.040441   -3.180075
     96          7           0        2.787765   -2.216787    1.100796
     97          1           0        1.858359   -2.446265    0.761468
     98          6           0        3.640248   -3.280865    1.617546
     99          1           0        4.658814   -3.049127    1.277080
    100          6           0        3.311445   -4.656428    0.990632
    101          6           0        3.673510   -3.380411    3.155608
    102          1           0        4.222553   -4.293402    3.399461
    103          1           0        2.652497   -3.514832    3.536385
    104          8           0        3.701259   -5.683992    1.485643
    105          6           0        4.355493   -2.174830    3.826904
    106          1           0        4.752505   -2.480886    4.801818
    107          1           0        5.217256   -1.881352    3.215777
    108          6           0        3.437915   -0.950355    4.028977
    109          1           0        2.724283   -0.855977    3.207943
    110          1           0        2.855039   -1.072197    4.953338
    111          6           0        4.268016    0.324668    4.090912
    112          1           0        4.795025    0.470992    3.145334
    113          1           0        4.982298    0.321963    4.919134
    114          7           0        3.370275    1.534139    4.264851
    115          1           0        3.908838    2.396613    4.385244
    116          1           0        2.761838    1.430376    5.082504
    117          1           0        2.755546    1.639385    3.393634
    118          8           0        2.625981   -4.685301   -0.175791
    119          1           0        2.248082   -3.823546   -0.489014
 ---------------------------------------------------------------------

 SCF Done:  E(RB3LYP) =  -2933.91263727     A.U. after    3 cycles

 Alpha  occ. eigenvalues --  -19.27419 -19.25647 -19.24639 -19.23116 -19.22342
 Alpha  occ. eigenvalues --  -19.22274 -19.21967 -19.21811 -19.21624 -19.21535
 Alpha  occ. eigenvalues --  -19.21486 -19.18642 -14.57170 -14.52790 -14.46832
 Alpha  occ. eigenvalues --  -14.46599 -14.46289 -14.45470 -14.45368 -14.45342
 Alpha  occ. eigenvalues --  -14.42500 -14.37739 -10.40581 -10.40458 -10.39763
 Alpha  occ. eigenvalues --  -10.39643 -10.38797 -10.38596 -10.38436 -10.36419
 Alpha  occ. eigenvalues --  -10.35826 -10.35753 -10.34582 -10.33340 -10.33231
 Alpha  occ. eigenvalues --  -10.33199 -10.33102 -10.32863 -10.31493 -10.31097
 Alpha  occ. eigenvalues --  -10.30475 -10.30372 -10.30212 -10.29913 -10.29795
 Alpha  occ. eigenvalues --  -10.28897 -10.28470 -10.28292 -10.28188 -10.27803
 Alpha  occ. eigenvalues --  -10.27754 -10.27502 -10.27106 -10.26852 -10.26666
 Alpha  occ. eigenvalues --  -10.26594 -10.25320 -10.24819 -10.23722 -10.22528
 Alpha  occ. eigenvalues --   -1.18040  -1.15831  -1.15205  -1.14504  -1.13857
 Alpha  occ. eigenvalues --   -1.13612  -1.13474  -1.13162  -1.11771  -1.10801
 Alpha  occ. eigenvalues --   -1.10431  -1.09843  -1.08376  -1.07749  -1.05978
 Alpha  occ. eigenvalues --   -1.03907  -1.02971  -1.02836  -1.02257  -1.01751
 Alpha  occ. eigenvalues --   -0.99505  -0.94248  -0.93653  -0.91521  -0.89807
 Alpha  occ. eigenvalues --   -0.89678  -0.88289  -0.87972  -0.86744  -0.86418
 Alpha  occ. eigenvalues --   -0.85205  -0.83413  -0.82493  -0.82137  -0.81494
 Alpha  occ. eigenvalues --   -0.81257  -0.78935  -0.77737  -0.75750  -0.75496
 Alpha  occ. eigenvalues --   -0.75109  -0.74242  -0.73980  -0.72339  -0.71834
 Alpha  occ. eigenvalues --   -0.71475  -0.71040  -0.70738  -0.70131  -0.69394
 Alpha  occ. eigenvalues --   -0.69120  -0.68568  -0.68263  -0.67983  -0.67790
 Alpha  occ. eigenvalues --   -0.67533  -0.67381  -0.67223  -0.66772  -0.65644
 Alpha  occ. eigenvalues --   -0.65485  -0.64971  -0.63286  -0.63189  -0.62815
 Alpha  occ. eigenvalues --   -0.61994  -0.61860  -0.61491  -0.61379  -0.60850
 Alpha  occ. eigenvalues --   -0.60233  -0.59944  -0.59719  -0.59205  -0.58619
 Alpha  occ. eigenvalues --   -0.58396  -0.57619  -0.57039  -0.56658  -0.56476
 Alpha  occ. eigenvalues --   -0.56426  -0.55956  -0.55585  -0.54800  -0.54527
 Alpha  occ. eigenvalues --   -0.54212  -0.53616  -0.53497  -0.53051  -0.52915
 Alpha  occ. eigenvalues --   -0.52783  -0.52574  -0.52412  -0.52087  -0.51987
 Alpha  occ. eigenvalues --   -0.51660  -0.51545  -0.51439  -0.51082  -0.51026
 Alpha  occ. eigenvalues --   -0.50804  -0.50693  -0.50667  -0.50183  -0.49947
 Alpha  occ. eigenvalues --   -0.49877  -0.49681  -0.49257  -0.48956  -0.48779
 Alpha  occ. eigenvalues --   -0.48484  -0.48464  -0.48289  -0.48189  -0.47973
 Alpha  occ. eigenvalues --   -0.47731  -0.47540  -0.47368  -0.47310  -0.47173
 Alpha  occ. eigenvalues --   -0.47082  -0.46774  -0.46400  -0.46361  -0.45760
 Alpha  occ. eigenvalues --   -0.45712  -0.45499  -0.45168  -0.44887  -0.44486
 Alpha  occ. eigenvalues --   -0.44374  -0.44122  -0.43718  -0.43431  -0.42971
 Alpha  occ. eigenvalues --   -0.42847  -0.42142  -0.42012  -0.41626  -0.41386
 Alpha  occ. eigenvalues --   -0.39740  -0.39502  -0.39212  -0.38633  -0.38574
 Alpha  occ. eigenvalues --   -0.38333  -0.38175  -0.37696  -0.36833  -0.36777
 Alpha  occ. eigenvalues --   -0.36631  -0.36204  -0.35819  -0.35730  -0.35598
 Alpha  occ. eigenvalues --   -0.35506  -0.34740  -0.34660  -0.34150  -0.33979
 Alpha  occ. eigenvalues --   -0.33816  -0.33058  -0.32330  -0.31575  -0.30234
 Alpha  occ. eigenvalues --   -0.29825
 Alpha virt. eigenvalues --   -0.10895  -0.10275  -0.09826  -0.09156  -0.08309
 Alpha virt. eigenvalues --   -0.08182  -0.07819  -0.07576  -0.07429  -0.06469
 Alpha virt. eigenvalues --   -0.04894  -0.04278  -0.04156  -0.03899  -0.01989

 Mulliken charges:
               1
     1  N   -0.778775
     2  H    0.402553
     3  H    0.449064
     4  H    0.395185
     5  C   -0.105470
     6  H    0.217703
     7  C    0.619957
     8  C   -0.381133
     9  H    0.203965
    10  H    0.189576
    11  O   -0.536668
    12  C    0.279189
    13  C   -0.104803
    14  H    0.139772
    15  N   -0.620444
    16  H    0.387624
    17  C    0.208921
    18  H    0.176833
    19  N   -0.411529
    20  N   -0.597347
    21  H    0.394557
    22  C   -0.065580
    23  H    0.194026
    24  C    0.645013
    25  C    0.137441
    26  H    0.130894
    27  O   -0.586196
    28  C   -0.482005
    29  H    0.163736
    30  H    0.146946
    31  H    0.170490
    32  O   -0.625185
    33  H    0.400535
    34  N   -0.607228
    35  H    0.376766
    36  C   -0.083142
    37  H    0.208628
    38  C    0.625188
    39  C   -0.301584
    40  H    0.171755
    41  H    0.130887
    42  O   -0.503564
    43  C   -0.072575
    44  H    0.160947
    45  C   -0.484808
    46  H    0.104434
    47  H    0.171454
    48  H    0.159173
    49  C   -0.450010
    50  H    0.135627
    51  H    0.149982
    52  H    0.162308
    53  N   -0.636576
    54  H    0.378587
    55  C   -0.020570
    56  H    0.213748
    57  C    0.590097
    58  C   -0.478707
    59  H    0.165301
    60  H    0.139179
    61  H    0.194010
    62  O   -0.535576
    63  N   -0.602328
    64  H    0.354014
    65  C   -0.046444
    66  H    0.200886
    67  C    0.652019
    68  C   -0.405461
    69  H    0.159681
    70  H    0.131281
    71  O   -0.611799
    72  C    0.174525
    73  C   -0.183583
    74  H    0.134802
    75  C   -0.214469
    76  H    0.128266
    77  C   -0.153042
    78  H    0.164117
    79  C   -0.190790
    80  H    0.138456
    81  O   -0.626279
    82  H    0.417459
    83  C    0.356366
    84  N   -0.608154
    85  H    0.404696
    86  C   -0.029018
    87  H    0.204593
    88  C    0.610652
    89  C   -0.414412
    90  H    0.197355
    91  H    0.203829
    92  O   -0.535376
    93  C    0.663463
    94  O   -0.640844
    95  O   -0.581670
    96  N   -0.636154
    97  H    0.357507
    98  C   -0.067048
    99  H    0.209511
   100  C    0.597459
   101  C   -0.263602
   102  H    0.194846
   103  H    0.143597
   104  O   -0.433513
   105  C   -0.284785
   106  H    0.157907
   107  H    0.170745
   108  C   -0.285804
   109  H    0.190581
   110  H    0.145022
   111  C   -0.204845
   112  H    0.240288
   113  H    0.195943
   114  N   -0.775301
   115  H    0.398996
   116  H    0.394855
   117  H    0.460332
   118  O   -0.641639
   119  H    0.459732
 Sum of Mulliken charges =   1.00000

 Dipole moment (field-independent basis, Debye):
    X=              5.1602    Y=              6.8269    Z=             11.1633  Tot=             14.0660
 Quadrupole moment (field-independent basis, Debye-Ang):
   XX=           -314.6103   YY=           -308.1046   ZZ=           -277.6043
   XY=             16.4319   XZ=             43.5298   YZ=             44.6891

 Normal termination of Gaussian 16 at Sun Jun 19 13:59:34 2022.
