 Gaussian 16, Revision C.01,
 Gaussian 16:  ES64L-G16RevC.01  3-Jul-2019

 ----------------------------------------------------------------------
 # B3LYP/6-31G* empiricaldispersion=gd3 guess=read geom=check nosymm in
 tegral(ultrafinegrid)
 ----------------------------------------------------------------------

 ------------------------------------------------------
 Candidate Structure: Conf:156 Charge calc in gas phase
 ------------------------------------------------------
 Structure from the checkpoint file:  "conf-156.chk"
 Charge =  1 Multiplicity = 1

                          Input orientation:
 ---------------------------------------------------------------------
 Center     Atomic      Atomic             Coordinates (Angstroms)
 Number     Number       Type             X           Y           Z
 ---------------------------------------------------------------------
      1          7           0       -5.104089    0.546542   -7.490671
      2          1           0       -6.050312    0.322538   -7.810159
      3          1           0       -5.176282    1.286533   -6.749200
      4          1           0       -4.532550    0.846731   -8.303193
      5          6           0       -4.433161   -0.599685   -6.780145
      6          1           0       -4.901285   -1.529008   -7.111285
      7          6           0       -4.674698   -0.310331   -5.285722
      8          6           0       -2.905879   -0.587687   -7.099832
      9          1           0       -2.476397   -1.499682   -6.671080
     10          1           0       -2.446866    0.245650   -6.557452
     11          8           0       -5.036303    0.839280   -4.969194
     12          6           0       -2.634917   -0.458537   -8.559479
     13          6           0       -2.437020    0.667265   -9.338882
     14          1           0       -2.291030    1.685979   -8.997877
     15          7           0       -2.687787   -1.502036   -9.467897
     16          1           0       -2.741938   -2.487459   -9.246195
     17          6           0       -2.490051   -0.967587  -10.714084
     18          1           0       -2.457760   -1.579765  -11.605555
     19          7           0       -2.349356    0.337518  -10.671455
     20          7           0       -4.377593   -1.289245   -4.450593
     21          1           0       -4.038035   -2.198663   -4.761445
     22          6           0       -4.318174   -1.124411   -3.005132
     23          1           0       -4.052660   -0.085574   -2.792206
     24          6           0       -3.204297   -2.083778   -2.554185
     25          6           0       -5.695633   -1.444509   -2.359143
     26          1           0       -5.876099   -2.518815   -2.475844
     27          8           0       -3.034346   -3.137555   -3.175723
     28          6           0       -5.726792   -1.061530   -0.881387
     29          1           0       -4.971078   -1.604494   -0.305733
     30          1           0       -6.713394   -1.285455   -0.467710
     31          1           0       -5.540375    0.014003   -0.757484
     32          8           0       -6.732461   -0.818778   -3.100921
     33          1           0       -6.609262    0.143373   -3.041879
     34          7           0       -2.496322   -1.696064   -1.486799
     35          1           0       -2.581939   -0.756143   -1.109239
     36          6           0       -1.334488   -2.427112   -0.996146
     37          1           0       -1.600088   -3.484701   -0.914614
     38          6           0       -1.011516   -1.820228    0.369671
     39          6           0       -0.135886   -2.240076   -1.970362
     40          1           0        0.118021   -1.175440   -1.982455
     41          1           0       -0.520460   -2.489798   -2.966442
     42          8           0       -1.371358   -0.674206    0.652722
     43          6           0        1.133676   -3.076393   -1.720545
     44          1           0        1.570759   -2.802387   -0.753094
     45          6           0        0.841471   -4.585327   -1.718245
     46          1           0        0.373208   -4.891418   -2.662400
     47          1           0        0.164389   -4.896524   -0.910366
     48          1           0        1.767440   -5.158095   -1.600440
     49          6           0        2.182506   -2.727522   -2.789594
     50          1           0        1.792300   -2.930995   -3.796258
     51          1           0        3.083432   -3.335835   -2.652888
     52          1           0        2.495688   -1.679590   -2.738570
     53          7           0       -0.256298   -2.579063    1.203623
     54          1           0        0.122485   -3.445511    0.839371
     55          6           0        0.528474   -1.937598    2.271002
     56          1           0       -0.119108   -1.189003    2.732586
     57          6           0        1.719238   -1.270232    1.557263
     58          6           0        0.994305   -2.962238    3.296524
     59          1           0        1.569968   -2.467211    4.084155
     60          1           0        1.650609   -3.699642    2.824958
     61          1           0        0.135173   -3.467806    3.746564
     62          8           0        2.726812   -1.939240    1.295387
     63          7           0        1.542017    0.013943    1.169621
     64          1           0        0.613160    0.401334    1.292688
     65          6           0        2.425688    0.691761    0.203691
     66          1           0        2.699594   -0.018763   -0.584800
     67          6           0        3.772207    1.126030    0.838300
     68          6           0        1.732718    1.907663   -0.433173
     69          1           0        1.353194    2.560322    0.363753
     70          1           0        2.518545    2.468450   -0.945025
     71          8           0        4.158836    2.306621    0.834421
     72          6           0        0.643065    1.606287   -1.442264
     73          6           0        0.991230    1.240882   -2.756079
     74          1           0        2.041333    1.144417   -3.030064
     75          6           0       -0.709293    1.788126   -1.139373
     76          1           0       -1.007177    2.074975   -0.134539
     77          6           0        0.011974    1.074110   -3.732109
     78          1           0        0.284786    0.818531   -4.751565
     79          6           0       -1.699157    1.634764   -2.116057
     80          1           0       -2.743232    1.826385   -1.870262
     81          8           0       -2.257505    1.149302   -4.434334
     82          1           0       -3.110846    1.528638   -4.167748
     83          6           0       -1.330732    1.288535   -3.417268
     84          7           0        4.534800    0.116752    1.295158
     85          1           0        4.126006   -0.820323    1.261741
     86          6           0        5.946213    0.289427    1.627027
     87          1           0        6.054140    0.892844    2.532061
     88          6           0        6.607988    1.097017    0.487507
     89          6           0        6.601044   -1.077043    1.833561
     90          1           0        7.678148   -0.952684    1.993877
     91          1           0        6.495465   -1.707074    0.942027
     92          8           0        7.271847    2.116534    0.759073
     93          6           0        6.027794   -1.823394    3.025286
     94          8           0        5.187791   -1.399752    3.786941
     95          8           0        6.589437   -3.046725    3.137079
     96          7           0        6.326739    0.681778   -0.758040
     97          1           0        5.691529   -0.121902   -0.855858
     98          6           0        5.924132    1.638030   -1.801965
     99          1           0        5.504922    2.494984   -1.277116
    100          6           0        4.640749    1.064583   -2.499869
    101          6           0        7.013654    2.148578   -2.750859
    102          1           0        6.561363    2.284487   -3.738862
    103          1           0        7.807481    1.399979   -2.842800
    104          8           0        4.085262    1.869725   -3.276017
    105          6           0        7.596141    3.492630   -2.272673
    106          1           0        8.067660    3.339228   -1.294604
    107          1           0        8.393733    3.813231   -2.951838
    108          6           0        6.508415    4.603392   -2.192512
    109          1           0        6.733209    5.402188   -2.908922
    110          1           0        5.530966    4.205385   -2.497026
    111          6           0        6.380203    5.301120   -0.836417
    112          1           0        5.652381    6.116736   -0.877614
    113          1           0        7.341949    5.711723   -0.514992
    114          7           0        5.937290    4.379578    0.274821
    115          1           0        5.881095    4.872432    1.170037
    116          1           0        6.588398    3.553082    0.418109
    117          1           0        5.018889    3.928728    0.131793
    118          8           0        4.265416   -0.081793   -2.123146
    119          1           0        6.189025   -3.471104    3.919391
 ---------------------------------------------------------------------

 SCF Done:  E(RB3LYP) =  -2933.86231525     A.U. after    3 cycles

 Alpha  occ. eigenvalues --  -19.26443 -19.25833 -19.25467 -19.23537 -19.21188
 Alpha  occ. eigenvalues --  -19.20638 -19.20025 -19.19522 -19.19111 -19.18793
 Alpha  occ. eigenvalues --  -19.12148 -19.11290 -14.59278 -14.50971 -14.50680
 Alpha  occ. eigenvalues --  -14.49280 -14.44979 -14.44599 -14.43635 -14.42071
 Alpha  occ. eigenvalues --  -14.41571 -14.39935 -10.43325 -10.40590 -10.38380
 Alpha  occ. eigenvalues --  -10.38325 -10.37353 -10.36211 -10.35535 -10.35233
 Alpha  occ. eigenvalues --  -10.35052 -10.34358 -10.34152 -10.33796 -10.33586
 Alpha  occ. eigenvalues --  -10.32618 -10.31668 -10.31555 -10.31367 -10.31020
 Alpha  occ. eigenvalues --  -10.30059 -10.29739 -10.29266 -10.27346 -10.26382
 Alpha  occ. eigenvalues --  -10.25984 -10.25859 -10.25786 -10.25540 -10.25045
 Alpha  occ. eigenvalues --  -10.24935 -10.24873 -10.24800 -10.24572 -10.24377
 Alpha  occ. eigenvalues --  -10.23849 -10.23714 -10.23283 -10.22472 -10.20922
 Alpha  occ. eigenvalues --   -1.18771  -1.16453  -1.13855  -1.13335  -1.13176
 Alpha  occ. eigenvalues --   -1.12596  -1.12469  -1.11310  -1.11151  -1.10666
 Alpha  occ. eigenvalues --   -1.09451  -1.07580  -1.06059  -1.05832  -1.05024
 Alpha  occ. eigenvalues --   -1.01738  -1.01022  -0.99807  -0.99231  -0.98398
 Alpha  occ. eigenvalues --   -0.97195  -0.95831  -0.93788  -0.91490  -0.89152
 Alpha  occ. eigenvalues --   -0.87418  -0.86796  -0.86182  -0.85930  -0.85033
 Alpha  occ. eigenvalues --   -0.84015  -0.81909  -0.81692  -0.80888  -0.80677
 Alpha  occ. eigenvalues --   -0.79563  -0.78739  -0.76597  -0.74391  -0.73901
 Alpha  occ. eigenvalues --   -0.73719  -0.73122  -0.72937  -0.72654  -0.72583
 Alpha  occ. eigenvalues --   -0.72042  -0.71242  -0.70507  -0.70160  -0.70012
 Alpha  occ. eigenvalues --   -0.68655  -0.68288  -0.66821  -0.66647  -0.66521
 Alpha  occ. eigenvalues --   -0.66025  -0.65447  -0.64974  -0.64667  -0.64600
 Alpha  occ. eigenvalues --   -0.64100  -0.63055  -0.62680  -0.62221  -0.61806
 Alpha  occ. eigenvalues --   -0.61007  -0.60893  -0.60177  -0.59314  -0.59187
 Alpha  occ. eigenvalues --   -0.58802  -0.58160  -0.57413  -0.57064  -0.56586
 Alpha  occ. eigenvalues --   -0.56467  -0.56220  -0.55603  -0.55555  -0.55305
 Alpha  occ. eigenvalues --   -0.54890  -0.54495  -0.54278  -0.53934  -0.53746
 Alpha  occ. eigenvalues --   -0.53392  -0.53161  -0.52912  -0.52725  -0.52642
 Alpha  occ. eigenvalues --   -0.52362  -0.51983  -0.51701  -0.51310  -0.50942
 Alpha  occ. eigenvalues --   -0.50764  -0.50490  -0.50208  -0.50014  -0.49775
 Alpha  occ. eigenvalues --   -0.49635  -0.49349  -0.49068  -0.48970  -0.48542
 Alpha  occ. eigenvalues --   -0.48282  -0.48214  -0.47696  -0.47102  -0.47061
 Alpha  occ. eigenvalues --   -0.46997  -0.46905  -0.46618  -0.46380  -0.45916
 Alpha  occ. eigenvalues --   -0.45751  -0.45423  -0.45317  -0.44982  -0.44859
 Alpha  occ. eigenvalues --   -0.44790  -0.44570  -0.43920  -0.43646  -0.43447
 Alpha  occ. eigenvalues --   -0.43256  -0.43030  -0.42856  -0.42536  -0.42448
 Alpha  occ. eigenvalues --   -0.42197  -0.41734  -0.41455  -0.41210  -0.40736
 Alpha  occ. eigenvalues --   -0.40055  -0.39839  -0.39453  -0.39375  -0.38980
 Alpha  occ. eigenvalues --   -0.38835  -0.38510  -0.38378  -0.38000  -0.37822
 Alpha  occ. eigenvalues --   -0.37649  -0.37372  -0.37237  -0.36594  -0.36028
 Alpha  occ. eigenvalues --   -0.35066  -0.34933  -0.34557  -0.34443  -0.34054
 Alpha  occ. eigenvalues --   -0.33633  -0.33594  -0.32416  -0.31530  -0.31398
 Alpha  occ. eigenvalues --   -0.31013  -0.30970  -0.28535  -0.27196  -0.26641
 Alpha  occ. eigenvalues --   -0.25452
 Alpha virt. eigenvalues --   -0.12471  -0.10054  -0.08697  -0.07824  -0.07168
 Alpha virt. eigenvalues --   -0.06904  -0.06640  -0.06338  -0.05332  -0.05130
 Alpha virt. eigenvalues --   -0.04913  -0.04570  -0.04408  -0.03358  -0.02903

 Mulliken charges:
               1
     1  N   -0.748286
     2  H    0.416451
     3  H    0.424570
     4  H    0.400502
     5  C   -0.118989
     6  H    0.208836
     7  C    0.696971
     8  C   -0.405084
     9  H    0.203101
    10  H    0.249820
    11  O   -0.589780
    12  C    0.293982
    13  C   -0.100457
    14  H    0.170904
    15  N   -0.602549
    16  H    0.351106
    17  C    0.221987
    18  H    0.194942
    19  N   -0.390384
    20  N   -0.573262
    21  H    0.366379
    22  C   -0.093540
    23  H    0.152927
    24  C    0.640904
    25  C    0.150084
    26  H    0.164199
    27  O   -0.553578
    28  C   -0.477330
    29  H    0.172215
    30  H    0.186871
    31  H    0.141606
    32  O   -0.615152
    33  H    0.396827
    34  N   -0.616087
    35  H    0.369127
    36  C   -0.065231
    37  H    0.182828
    38  C    0.625032
    39  C   -0.277674
    40  H    0.177343
    41  H    0.155449
    42  O   -0.550516
    43  C   -0.117078
    44  H    0.147599
    45  C   -0.454841
    46  H    0.151757
    47  H    0.119435
    48  H    0.159853
    49  C   -0.461739
    50  H    0.120529
    51  H    0.146555
    52  H    0.205238
    53  N   -0.593371
    54  H    0.354237
    55  C   -0.060299
    56  H    0.180881
    57  C    0.649638
    58  C   -0.464893
    59  H    0.182267
    60  H    0.174451
    61  H    0.165298
    62  O   -0.560798
    63  N   -0.608014
    64  H    0.361905
    65  C   -0.086165
    66  H    0.251875
    67  C    0.659863
    68  C   -0.404344
    69  H    0.145213
    70  H    0.194591
    71  O   -0.599824
    72  C    0.141564
    73  C   -0.197428
    74  H    0.234050
    75  C   -0.169591
    76  H    0.132926
    77  C   -0.176560
    78  H    0.137579
    79  C   -0.237659
    80  H    0.116992
    81  O   -0.693232
    82  H    0.419586
    83  C    0.356085
    84  N   -0.633382
    85  H    0.404516
    86  C    0.007382
    87  H    0.187055
    88  C    0.586357
    89  C   -0.409551
    90  H    0.212879
    91  H    0.203634
    92  O   -0.587948
    93  C    0.588887
    94  O   -0.453306
    95  O   -0.560607
    96  N   -0.569868
    97  H    0.356914
    98  C   -0.053372
    99  H    0.114395
   100  C    0.596146
   101  C   -0.262225
   102  H    0.174256
   103  H    0.152002
   104  O   -0.587613
   105  C   -0.301541
   106  H    0.158597
   107  H    0.149592
   108  C   -0.296655
   109  H    0.168702
   110  H    0.196509
   111  C   -0.186734
   112  H    0.185074
   113  H    0.192888
   114  N   -0.785098
   115  H    0.388385
   116  H    0.461433
   117  H    0.429752
   118  O   -0.605786
   119  H    0.417139
 Sum of Mulliken charges =   1.00000

 Dipole moment (field-independent basis, Debye):
    X=            -10.3764    Y=              2.3734    Z=            -18.3434  Tot=             21.2081
 Quadrupole moment (field-independent basis, Debye-Ang):
   XX=           -215.3390   YY=           -278.8590   ZZ=           -164.1144
   XY=             44.1134   XZ=            142.9232   YZ=             21.8809

 Normal termination of Gaussian 16 at Sun Jun 19 13:59:01 2022.
