 Gaussian 16, Revision C.01,
 Gaussian 16:  ES64L-G16RevC.01  3-Jul-2019

 ----------------------------------------------------------------------
 # B3LYP/6-31G* empiricaldispersion=gd3 guess=read geom=check nosymm in
 tegral(ultrafinegrid)
 ----------------------------------------------------------------------

 ------------------------------------------------------
 Candidate Structure: Conf:684 Charge calc in gas phase
 ------------------------------------------------------
 Structure from the checkpoint file:  "conf-684.chk"
 Charge =  1 Multiplicity = 1

                          Input orientation:
 ---------------------------------------------------------------------
 Center     Atomic      Atomic             Coordinates (Angstroms)
 Number     Number       Type             X           Y           Z
 ---------------------------------------------------------------------
      1          7           0       -7.358583   -5.518041   -4.153168
      2          1           0       -7.907254   -5.798151   -3.333882
      3          1           0       -7.652988   -4.535225   -4.428932
      4          1           0       -7.531939   -6.187620   -4.909066
      5          6           0       -5.887943   -5.316530   -3.846775
      6          1           0       -5.628976   -5.912256   -2.968942
      7          6           0       -5.812058   -3.794165   -3.569403
      8          6           0       -5.042753   -5.726298   -5.084154
      9          1           0       -5.461314   -5.224177   -5.964934
     10          1           0       -5.156953   -6.809347   -5.236108
     11          8           0       -6.716321   -3.089497   -4.043634
     12          6           0       -3.611852   -5.323411   -4.973566
     13          6           0       -2.923129   -4.291696   -5.567655
     14          1           0       -3.289013   -3.597299   -6.313182
     15          7           0       -2.705987   -5.882934   -4.078532
     16          1           0       -2.821010   -6.739991   -3.553864
     17          6           0       -1.533600   -5.185728   -4.207784
     18          1           0       -0.653452   -5.424125   -3.626972
     19          7           0       -1.637583   -4.219320   -5.090944
     20          7           0       -4.767383   -3.379129   -2.869905
     21          1           0       -4.060657   -4.033979   -2.547976
     22          6           0       -4.422155   -1.982386   -2.627747
     23          1           0       -4.987528   -1.357226   -3.322935
     24          6           0       -2.906434   -1.879886   -2.815472
     25          6           0       -4.751143   -1.594479   -1.148540
     26          1           0       -4.303683   -0.602159   -0.974299
     27          8           0       -2.195141   -2.773344   -2.325675
     28          6           0       -6.249975   -1.529048   -0.897125
     29          1           0       -6.725728   -0.777626   -1.534535
     30          1           0       -6.429051   -1.272834    0.150217
     31          1           0       -6.711303   -2.502235   -1.093494
     32          8           0       -4.216248   -2.560537   -0.261082
     33          1           0       -3.259661   -2.637025   -0.424245
     34          7           0       -2.434604   -0.781072   -3.418260
     35          1           0       -3.086546   -0.074701   -3.736685
     36          6           0       -0.999056   -0.443762   -3.486407
     37          1           0       -0.471504   -1.389863   -3.637166
     38          6           0       -0.586499    0.172524   -2.124365
     39          6           0       -0.735898    0.528642   -4.635549
     40          1           0        0.329203    0.787202   -4.604492
     41          1           0       -1.264375    1.465242   -4.415554
     42          8           0       -0.392582    1.379688   -1.991430
     43          6           0       -1.100598    0.016881   -6.041280
     44          1           0       -2.160728   -0.284659   -6.038621
     45          6           0       -0.941018    1.158023   -7.056690
     46          1           0        0.102874    1.492895   -7.101153
     47          1           0       -1.557708    2.025131   -6.792171
     48          1           0       -1.228063    0.831806   -8.062448
     49          6           0       -0.262992   -1.202852   -6.452091
     50          1           0        0.807769   -0.963609   -6.411533
     51          1           0       -0.493356   -1.496809   -7.482842
     52          1           0       -0.447526   -2.076005   -5.818371
     53          7           0       -0.525881   -0.716433   -1.105612
     54          1           0       -0.665440   -1.698999   -1.311967
     55          6           0       -0.342822   -0.318849    0.294710
     56          1           0       -0.817081    0.663620    0.402099
     57          6           0        1.159483   -0.160681    0.635731
     58          6           0       -1.008405   -1.335239    1.215997
     59          1           0       -0.889356   -1.029494    2.257590
     60          1           0       -0.530967   -2.315339    1.116414
     61          1           0       -2.078255   -1.417809    0.994376
     62          8           0        1.724502   -0.910964    1.424642
     63          7           0        1.771547    0.859739   -0.017630
     64          1           0        1.202008    1.486284   -0.579577
     65          6           0        3.149188    1.245286    0.289841
     66          1           0        3.690888    0.324876    0.526719
     67          6           0        3.132424    2.179550    1.525142
     68          6           0        3.773421    1.945917   -0.920329
     69          1           0        3.522470    1.364804   -1.816561
     70          1           0        3.287043    2.925357   -1.018613
     71          8           0        3.122899    3.400371    1.400323
     72          6           0        5.276182    2.162552   -0.866915
     73          6           0        6.026571    2.072187    0.312003
     74          1           0        5.580720    1.813666    1.265983
     75          6           0        5.946131    2.516573   -2.047164
     76          1           0        5.388746    2.595667   -2.977758
     77          6           0        7.398237    2.336426    0.320378
     78          1           0        7.948986    2.268080    1.253052
     79          6           0        7.313508    2.789182   -2.056353
     80          1           0        7.812091    3.076443   -2.980404
     81          8           0        9.406904    2.983322   -0.823039
     82          1           0        9.774811    2.864136   -1.713224
     83          6           0        8.029662    2.692226   -0.864149
     84          7           0        3.098884    1.541902    2.722085
     85          1           0        3.255839    0.537517    2.744176
     86          6           0        3.400728    2.285388    3.942080
     87          1           0        2.638448    3.057306    4.086292
     88          6           0        4.793751    2.940014    3.800580
     89          6           0        3.385057    1.335483    5.155971
     90          1           0        2.395483    0.872277    5.237329
     91          1           0        3.584463    1.910181    6.062834
     92          8           0        5.730608    2.260694    3.344012
     93          6           0        4.397830    0.216434    5.005384
     94          8           0        4.332296   -0.657535    4.162141
     95          8           0        5.375589    0.273795    5.928314
     96          7           0        4.899186    4.208509    4.180371
     97          1           0        4.165979    4.772918    4.622489
     98          6           0        6.095788    5.002987    3.973887
     99          1           0        6.963964    4.451406    4.354247
    100          6           0        5.935169    6.357084    4.763151
    101          6           0        6.281200    5.286561    2.469374
    102          1           0        5.601492    6.096744    2.174867
    103          1           0        6.004652    4.404164    1.883498
    104          8           0        6.933912    7.111166    4.698143
    105          6           0        7.722292    5.680824    2.160862
    106          1           0        7.997920    6.490836    2.848105
    107          1           0        8.342431    4.800827    2.418255
    108          6           0        7.922909    6.078813    0.695446
    109          1           0        7.553422    5.293675    0.021951
    110          1           0        7.337949    6.980236    0.478033
    111          6           0        9.375710    6.396893    0.361675
    112          1           0        9.761800    7.215078    0.975232
    113          1           0        9.540760    6.624674   -0.694851
    114          7           0       10.238373    5.181251    0.673931
    115          1           0       11.235993    5.359494    0.531433
    116          1           0        9.947633    4.356957    0.087991
    117          1           0       10.094975    4.915938    1.655699
    118          8           0        4.816990    6.517258    5.310922
    119          1           0        5.997130   -0.449086    5.719592
 ---------------------------------------------------------------------

 SCF Done:  E(RB3LYP) =  -2933.77596724     A.U. after    1 cycles

 Alpha  occ. eigenvalues --  -19.28576 -19.27415 -19.24701 -19.24337 -19.22253
 Alpha  occ. eigenvalues --  -19.19899 -19.16532 -19.16458 -19.14120 -19.11503
 Alpha  occ. eigenvalues --  -19.03541 -19.02953 -14.62652 -14.54194 -14.51657
 Alpha  occ. eigenvalues --  -14.51640 -14.48607 -14.43899 -14.42856 -14.40558
 Alpha  occ. eigenvalues --  -14.37756 -14.34546 -10.45467 -10.43337 -10.41267
 Alpha  occ. eigenvalues --  -10.37438 -10.36899 -10.36218 -10.35844 -10.35445
 Alpha  occ. eigenvalues --  -10.35009 -10.34916 -10.33578 -10.33192 -10.32661
 Alpha  occ. eigenvalues --  -10.32097 -10.31101 -10.30991 -10.29996 -10.28534
 Alpha  occ. eigenvalues --  -10.27697 -10.27211 -10.26624 -10.26504 -10.25949
 Alpha  occ. eigenvalues --  -10.25266 -10.25056 -10.24746 -10.24634 -10.24577
 Alpha  occ. eigenvalues --  -10.24100 -10.24046 -10.23733 -10.23720 -10.23347
 Alpha  occ. eigenvalues --  -10.23037 -10.21853 -10.21219 -10.19331 -10.18333
 Alpha  occ. eigenvalues --   -1.21244  -1.16586  -1.16024  -1.14071  -1.13476
 Alpha  occ. eigenvalues --   -1.13158  -1.12462  -1.11685  -1.08807  -1.08404
 Alpha  occ. eigenvalues --   -1.08122  -1.06087  -1.04578  -1.04050  -1.02983
 Alpha  occ. eigenvalues --   -1.00256  -0.99350  -0.97063  -0.96736  -0.96334
 Alpha  occ. eigenvalues --   -0.94472  -0.91181  -0.90921  -0.90859  -0.88899
 Alpha  occ. eigenvalues --   -0.88068  -0.87455  -0.86209  -0.85315  -0.83939
 Alpha  occ. eigenvalues --   -0.83296  -0.82394  -0.81669  -0.81211  -0.80239
 Alpha  occ. eigenvalues --   -0.79171  -0.78018  -0.76356  -0.75637  -0.75001
 Alpha  occ. eigenvalues --   -0.74752  -0.73880  -0.73505  -0.73465  -0.72251
 Alpha  occ. eigenvalues --   -0.71714  -0.71433  -0.71020  -0.70922  -0.69376
 Alpha  occ. eigenvalues --   -0.68471  -0.67994  -0.67526  -0.67092  -0.66678
 Alpha  occ. eigenvalues --   -0.65684  -0.65616  -0.65241  -0.64989  -0.64551
 Alpha  occ. eigenvalues --   -0.63507  -0.63177  -0.62783  -0.61618  -0.61607
 Alpha  occ. eigenvalues --   -0.61165  -0.60668  -0.60333  -0.59908  -0.59439
 Alpha  occ. eigenvalues --   -0.58984  -0.57833  -0.57628  -0.57505  -0.57011
 Alpha  occ. eigenvalues --   -0.56810  -0.55730  -0.55673  -0.55236  -0.55124
 Alpha  occ. eigenvalues --   -0.54388  -0.54219  -0.53747  -0.53557  -0.53259
 Alpha  occ. eigenvalues --   -0.53045  -0.52875  -0.52740  -0.52710  -0.52546
 Alpha  occ. eigenvalues --   -0.52332  -0.51636  -0.50581  -0.50440  -0.50275
 Alpha  occ. eigenvalues --   -0.50096  -0.49634  -0.49327  -0.49084  -0.48610
 Alpha  occ. eigenvalues --   -0.48541  -0.48180  -0.48069  -0.47753  -0.47556
 Alpha  occ. eigenvalues --   -0.47147  -0.46961  -0.46836  -0.46502  -0.46152
 Alpha  occ. eigenvalues --   -0.45976  -0.45897  -0.45255  -0.45174  -0.45016
 Alpha  occ. eigenvalues --   -0.44770  -0.44555  -0.44323  -0.43795  -0.43384
 Alpha  occ. eigenvalues --   -0.43349  -0.43243  -0.43026  -0.42549  -0.42201
 Alpha  occ. eigenvalues --   -0.41729  -0.41483  -0.41359  -0.41162  -0.40921
 Alpha  occ. eigenvalues --   -0.40447  -0.40279  -0.40142  -0.40071  -0.39918
 Alpha  occ. eigenvalues --   -0.39889  -0.39018  -0.38810  -0.38519  -0.38405
 Alpha  occ. eigenvalues --   -0.38179  -0.37785  -0.37761  -0.37153  -0.37001
 Alpha  occ. eigenvalues --   -0.36211  -0.35136  -0.34904  -0.34681  -0.34636
 Alpha  occ. eigenvalues --   -0.34064  -0.33132  -0.33037  -0.31668  -0.31288
 Alpha  occ. eigenvalues --   -0.30353  -0.30238  -0.29573  -0.28544  -0.28196
 Alpha  occ. eigenvalues --   -0.27030  -0.25569  -0.24609  -0.18945  -0.18334
 Alpha  occ. eigenvalues --   -0.17390
 Alpha virt. eigenvalues --   -0.14525  -0.13192  -0.11307  -0.10197  -0.08187
 Alpha virt. eigenvalues --   -0.07196  -0.06358  -0.06162  -0.05458  -0.05048
 Alpha virt. eigenvalues --   -0.04756  -0.04160  -0.03481  -0.03162  -0.03048

 Mulliken charges:
               1
     1  N   -0.753053
     2  H    0.423936
     3  H    0.435233
     4  H    0.418497
     5  C   -0.116498
     6  H    0.213917
     7  C    0.660730
     8  C   -0.385790
     9  H    0.202806
    10  H    0.189426
    11  O   -0.542799
    12  C    0.295592
    13  C   -0.050432
    14  H    0.159898
    15  N   -0.624814
    16  H    0.346421
    17  C    0.247863
    18  H    0.194938
    19  N   -0.405428
    20  N   -0.554531
    21  H    0.371835
    22  C   -0.114821
    23  H    0.188515
    24  C    0.658908
    25  C    0.140166
    26  H    0.152731
    27  O   -0.575199
    28  C   -0.445406
    29  H    0.161958
    30  H    0.192596
    31  H    0.138040
    32  O   -0.631059
    33  H    0.416058
    34  N   -0.596141
    35  H    0.349842
    36  C   -0.081652
    37  H    0.198813
    38  C    0.629983
    39  C   -0.284644
    40  H    0.167587
    41  H    0.160007
    42  O   -0.528870
    43  C   -0.074744
    44  H    0.100522
    45  C   -0.441960
    46  H    0.152807
    47  H    0.145045
    48  H    0.149236
    49  C   -0.479478
    50  H    0.144255
    51  H    0.144803
    52  H    0.185772
    53  N   -0.612232
    54  H    0.359116
    55  C   -0.067016
    56  H    0.183666
    57  C    0.632171
    58  C   -0.475878
    59  H    0.191534
    60  H    0.168018
    61  H    0.136013
    62  O   -0.518197
    63  N   -0.629556
    64  H    0.367658
    65  C   -0.057691
    66  H    0.180132
    67  C    0.618410
    68  C   -0.366401
    69  H    0.142441
    70  H    0.190750
    71  O   -0.526504
    72  C    0.181449
    73  C   -0.195413
    74  H    0.215053
    75  C   -0.188265
    76  H    0.130018
    77  C   -0.181257
    78  H    0.159566
    79  C   -0.181902
    80  H    0.122882
    81  O   -0.707414
    82  H    0.423658
    83  C    0.325298
    84  N   -0.611866
    85  H    0.381736
    86  C   -0.049453
    87  H    0.169576
    88  C    0.663320
    89  C   -0.371255
    90  H    0.181804
    91  H    0.195940
    92  O   -0.593106
    93  C    0.597359
    94  O   -0.475801
    95  O   -0.549452
    96  N   -0.601657
    97  H    0.347262
    98  C   -0.052493
    99  H    0.129635
   100  C    0.572764
   101  C   -0.265777
   102  H    0.149234
   103  H    0.157533
   104  O   -0.608106
   105  C   -0.304719
   106  H    0.213518
   107  H    0.087785
   108  C   -0.291251
   109  H    0.168532
   110  H    0.187991
   111  C   -0.196839
   112  H    0.214504
   113  H    0.187908
   114  N   -0.770556
   115  H    0.396985
   116  H    0.446490
   117  H    0.412251
   118  O   -0.601461
   119  H    0.410142
 Sum of Mulliken charges =   1.00000

 Dipole moment (field-independent basis, Debye):
    X=            -15.1463    Y=            -29.0395    Z=            -34.1023  Tot=             47.2829
 Quadrupole moment (field-independent basis, Debye-Ang):
   XX=             75.4030   YY=           -255.8181   ZZ=           -329.0953
   XY=            206.2854   XZ=             27.1005   YZ=             -3.3460

 Normal termination of Gaussian 16 at Sun Jun 19 13:57:36 2022.
