 Gaussian 16, Revision C.01,
 Gaussian 16:  ES64L-G16RevC.01  3-Jul-2019

 ----------------------------------------------------------------------
 # B3LYP/6-31G* empiricaldispersion=gd3 guess=read geom=check nosymm in
 tegral(ultrafinegrid)
 ----------------------------------------------------------------------

 ------------------------------------------------------
 Candidate Structure: Conf:607 Charge calc in gas phase
 ------------------------------------------------------
 Structure from the checkpoint file:  "conf-607.chk"
 Charge =  1 Multiplicity = 1

                          Input orientation:
 ---------------------------------------------------------------------
 Center     Atomic      Atomic             Coordinates (Angstroms)
 Number     Number       Type             X           Y           Z
 ---------------------------------------------------------------------
      1          7           0        0.941283   -5.820392   -4.937519
      2          1           0        0.706856   -6.733547   -5.336639
      3          1           0        0.636684   -5.058414   -5.616736
      4          1           0        1.950859   -5.783852   -4.769041
      5          6           0        0.122774   -5.470951   -3.707417
      6          1           0       -0.312516   -6.385015   -3.299319
      7          6           0       -0.934467   -4.498285   -4.280606
      8          6           0        1.028038   -4.780300   -2.651855
      9          1           0        1.432545   -3.860339   -3.092715
     10          1           0        1.870981   -5.452231   -2.443845
     11          8           0       -0.719331   -4.013500   -5.401336
     12          6           0        0.320650   -4.481392   -1.370945
     13          6           0        0.108141   -5.241302   -0.237552
     14          1           0        0.446750   -6.251415   -0.041344
     15          7           0       -0.276472   -3.263112   -1.102601
     16          1           0       -0.396955   -2.509949   -1.785959
     17          6           0       -0.814696   -3.352519    0.144461
     18          1           0       -1.344387   -2.527961    0.602273
     19          7           0       -0.598761   -4.532115    0.698417
     20          7           0       -1.968026   -4.209194   -3.497921
     21          1           0       -2.102871   -4.688952   -2.612110
     22          6           0       -2.827988   -3.053915   -3.718572
     23          1           0       -3.465341   -3.227258   -4.594749
     24          6           0       -1.960566   -1.795801   -3.909128
     25          6           0       -3.707757   -2.880775   -2.430401
     26          1           0       -3.070598   -2.439093   -1.658401
     27          8           0       -0.851095   -1.699490   -3.373360
     28          6           0       -4.921853   -1.990962   -2.655354
     29          1           0       -4.611964   -0.957066   -2.825492
     30          1           0       -5.540942   -2.007338   -1.753945
     31          1           0       -5.528213   -2.348784   -3.498997
     32          8           0       -4.052760   -4.165997   -1.919243
     33          1           0       -4.822278   -4.497824   -2.411041
     34          7           0       -2.509823   -0.782255   -4.601538
     35          1           0       -3.463018   -0.877667   -4.927493
     36          6           0       -1.998795    0.581002   -4.407861
     37          1           0       -0.991003    0.624720   -4.829223
     38          6           0       -1.958032    0.848739   -2.886409
     39          6           0       -2.928887    1.575209   -5.115866
     40          1           0       -3.935203    1.449270   -4.691887
     41          1           0       -2.981927    1.297054   -6.178126
     42          8           0       -2.910835    0.530192   -2.169328
     43          6           0       -2.525614    3.059164   -5.005577
     44          1           0       -2.522770    3.338520   -3.942470
     45          6           0       -1.127333    3.346859   -5.570802
     46          1           0       -1.051168    3.019460   -6.616016
     47          1           0       -0.332615    2.854380   -5.000053
     48          1           0       -0.927384    4.421426   -5.532258
     49          6           0       -3.580877    3.915150   -5.721950
     50          1           0       -3.636625    3.655260   -6.786905
     51          1           0       -3.321543    4.975203   -5.654937
     52          1           0       -4.578778    3.770696   -5.290015
     53          7           0       -0.842311    1.438555   -2.437192
     54          1           0       -0.066505    1.672447   -3.050479
     55          6           0       -0.606108    1.763566   -1.043066
     56          1           0       -1.447833    2.357998   -0.667944
     57          6           0        0.664749    2.631200   -1.032824
     58          6           0       -0.445362    0.504813   -0.169813
     59          1           0       -0.283941    0.773069    0.879194
     60          1           0        0.405763   -0.090854   -0.517872
     61          1           0       -1.358155   -0.091883   -0.244449
     62          8           0        1.345374    2.777512   -2.048238
     63          7           0        0.962842    3.175421    0.165953
     64          1           0        0.380465    2.976680    0.973793
     65          6           0        2.042726    4.139146    0.353373
     66          1           0        2.719182    4.008337   -0.497210
     67          6           0        2.757316    3.758212    1.662917
     68          6           0        1.512148    5.588410    0.387024
     69          1           0        1.001023    5.743096    1.342417
     70          1           0        2.373103    6.266405    0.384890
     71          8           0        2.793998    4.493394    2.641774
     72          6           0        0.582702    5.864484   -0.771933
     73          6           0        1.076655    6.120173   -2.058835
     74          1           0        2.150844    6.178431   -2.216538
     75          6           0       -0.803777    5.779114   -0.608083
     76          1           0       -1.215091    5.580414    0.378924
     77          6           0        0.223950    6.292839   -3.144059
     78          1           0        0.608578    6.500985   -4.137285
     79          6           0       -1.675721    5.944494   -1.685577
     80          1           0       -2.752089    5.882820   -1.534960
     81          8           0       -1.958251    6.389531   -4.057677
     82          1           0       -2.886820    6.394363   -3.778236
     83          6           0       -1.159031    6.207625   -2.956619
     84          7           0        3.276004    2.495050    1.660984
     85          1           0        3.138878    1.895409    0.855120
     86          6           0        3.581457    1.799023    2.893977
     87          1           0        3.979954    2.526517    3.605000
     88          6           0        4.583398    0.684898    2.559337
     89          6           0        2.313099    1.118656    3.496766
     90          1           0        2.581268    0.629523    4.438136
     91          1           0        1.954812    0.369845    2.786145
     92          8           0        4.436894    0.015748    1.536154
     93          6           0        1.210936    2.122883    3.734270
     94          8           0        0.318423    2.381597    2.943436
     95          8           0        1.339287    2.739638    4.917466
     96          7           0        5.553302    0.474058    3.471123
     97          1           0        5.678071    1.090155    4.267161
     98          6           0        6.556421   -0.569300    3.328401
     99          1           0        6.079918   -1.483415    2.966254
    100          6           0        7.207071   -0.799746    4.679704
    101          6           0        7.670677   -0.131059    2.326274
    102          1           0        8.015083    0.860862    2.645887
    103          1           0        7.162906    0.008659    1.367136
    104          8           0        7.755399   -2.006545    4.771011
    105          6           0        8.872566   -1.099809    2.172151
    106          1           0        8.643289   -2.061348    2.637969
    107          1           0        9.019579   -1.307203    1.105557
    108          6           0       10.221621   -0.563468    2.702020
    109          1           0       11.004705   -1.298670    2.464188
    110          1           0       10.479869    0.338349    2.130180
    111          6           0       10.352302   -0.177353    4.184040
    112          1           0        9.566929    0.525659    4.475657
    113          1           0       11.311681    0.345715    4.307141
    114          7           0       10.264532   -1.330551    5.119601
    115          1           0       10.500144   -1.017382    6.060820
    116          1           0       10.955156   -2.038248    4.867714
    117          1           0        8.702301   -1.883297    5.158289
    118          8           0        7.320298    0.095276    5.502027
    119          1           0        0.669039    3.448300    4.955067
 ---------------------------------------------------------------------

 SCF Done:  E(RB3LYP) =  -2933.86593912     A.U. after    3 cycles

 Alpha  occ. eigenvalues --  -19.26898 -19.26374 -19.25647 -19.23323 -19.22873
 Alpha  occ. eigenvalues --  -19.21243 -19.21232 -19.18760 -19.18566 -19.18486
 Alpha  occ. eigenvalues --  -19.17907 -19.17731 -14.60209 -14.49508 -14.46563
 Alpha  occ. eigenvalues --  -14.46482 -14.42841 -14.42448 -14.42252 -14.41877
 Alpha  occ. eigenvalues --  -14.40793 -14.39143 -10.43484 -10.40754 -10.39826
 Alpha  occ. eigenvalues --  -10.39425 -10.36344 -10.35912 -10.35448 -10.35235
 Alpha  occ. eigenvalues --  -10.35114 -10.34964 -10.34792 -10.34373 -10.31923
 Alpha  occ. eigenvalues --  -10.31678 -10.31310 -10.30750 -10.30344 -10.29961
 Alpha  occ. eigenvalues --  -10.29225 -10.29026 -10.28720 -10.27549 -10.27148
 Alpha  occ. eigenvalues --  -10.26750 -10.26670 -10.25694 -10.24993 -10.24698
 Alpha  occ. eigenvalues --  -10.24597 -10.24176 -10.24110 -10.24055 -10.23923
 Alpha  occ. eigenvalues --  -10.23848 -10.23840 -10.23417 -10.23285 -10.23077
 Alpha  occ. eigenvalues --   -1.19463  -1.17516  -1.14990  -1.13866  -1.13706
 Alpha  occ. eigenvalues --   -1.13113  -1.11130  -1.10946  -1.10285  -1.09994
 Alpha  occ. eigenvalues --   -1.09510  -1.09365  -1.08405  -1.06169  -1.05326
 Alpha  occ. eigenvalues --   -1.02784  -0.99830  -0.99469  -0.98865  -0.98331
 Alpha  occ. eigenvalues --   -0.96167  -0.95416  -0.93396  -0.90302  -0.89639
 Alpha  occ. eigenvalues --   -0.87957  -0.86508  -0.85499  -0.84853  -0.84742
 Alpha  occ. eigenvalues --   -0.83248  -0.82042  -0.81186  -0.80779  -0.79732
 Alpha  occ. eigenvalues --   -0.78784  -0.78647  -0.76345  -0.74686  -0.74552
 Alpha  occ. eigenvalues --   -0.74387  -0.73930  -0.73676  -0.72893  -0.71725
 Alpha  occ. eigenvalues --   -0.71536  -0.70376  -0.69855  -0.69377  -0.68576
 Alpha  occ. eigenvalues --   -0.67578  -0.67361  -0.67222  -0.66433  -0.65983
 Alpha  occ. eigenvalues --   -0.65648  -0.64726  -0.64393  -0.64371  -0.63969
 Alpha  occ. eigenvalues --   -0.63322  -0.63074  -0.62777  -0.62408  -0.61910
 Alpha  occ. eigenvalues --   -0.61487  -0.60722  -0.59477  -0.59437  -0.58733
 Alpha  occ. eigenvalues --   -0.57891  -0.57577  -0.56866  -0.56661  -0.56348
 Alpha  occ. eigenvalues --   -0.55816  -0.55402  -0.55108  -0.54693  -0.54471
 Alpha  occ. eigenvalues --   -0.54294  -0.53944  -0.53755  -0.53567  -0.53233
 Alpha  occ. eigenvalues --   -0.53029  -0.52627  -0.52399  -0.52118  -0.52016
 Alpha  occ. eigenvalues --   -0.51648  -0.51583  -0.51299  -0.51208  -0.50970
 Alpha  occ. eigenvalues --   -0.50752  -0.50717  -0.50225  -0.49923  -0.49752
 Alpha  occ. eigenvalues --   -0.49628  -0.49398  -0.49217  -0.48959  -0.48494
 Alpha  occ. eigenvalues --   -0.48368  -0.48204  -0.48054  -0.47483  -0.47218
 Alpha  occ. eigenvalues --   -0.47179  -0.46928  -0.46864  -0.46593  -0.46386
 Alpha  occ. eigenvalues --   -0.45988  -0.45435  -0.45395  -0.45184  -0.44709
 Alpha  occ. eigenvalues --   -0.44570  -0.44331  -0.44276  -0.44146  -0.44012
 Alpha  occ. eigenvalues --   -0.43596  -0.43454  -0.43106  -0.42764  -0.42750
 Alpha  occ. eigenvalues --   -0.42012  -0.41733  -0.41421  -0.41163  -0.40934
 Alpha  occ. eigenvalues --   -0.40472  -0.40075  -0.39543  -0.39505  -0.39201
 Alpha  occ. eigenvalues --   -0.39144  -0.38969  -0.38701  -0.38618  -0.38572
 Alpha  occ. eigenvalues --   -0.38357  -0.37645  -0.36903  -0.36523  -0.35769
 Alpha  occ. eigenvalues --   -0.35089  -0.34847  -0.34405  -0.33749  -0.33055
 Alpha  occ. eigenvalues --   -0.32947  -0.32722  -0.32467  -0.32278  -0.31858
 Alpha  occ. eigenvalues --   -0.31497  -0.31262  -0.30861  -0.30593  -0.29688
 Alpha  occ. eigenvalues --   -0.26790
 Alpha virt. eigenvalues --   -0.12506  -0.11189  -0.09302  -0.07950  -0.07255
 Alpha virt. eigenvalues --   -0.05896  -0.05419  -0.05284  -0.04647  -0.04533
 Alpha virt. eigenvalues --   -0.04114  -0.03435  -0.03022  -0.02942  -0.02716

 Mulliken charges:
               1
     1  N   -0.758218
     2  H    0.417054
     3  H    0.433997
     4  H    0.414866
     5  C   -0.114028
     6  H    0.218897
     7  C    0.669043
     8  C   -0.384274
     9  H    0.205366
    10  H    0.188737
    11  O   -0.542451
    12  C    0.268723
    13  C   -0.069240
    14  H    0.143231
    15  N   -0.619885
    16  H    0.402820
    17  C    0.204611
    18  H    0.178969
    19  N   -0.408008
    20  N   -0.608685
    21  H    0.385849
    22  C   -0.067549
    23  H    0.171841
    24  C    0.675064
    25  C    0.107911
    26  H    0.181558
    27  O   -0.567861
    28  C   -0.511263
    29  H    0.210274
    30  H    0.190448
    31  H    0.135929
    32  O   -0.619242
    33  H    0.404818
    34  N   -0.599885
    35  H    0.342843
    36  C   -0.024621
    37  H    0.174481
    38  C    0.639838
    39  C   -0.301922
    40  H    0.150583
    41  H    0.148674
    42  O   -0.561969
    43  C   -0.081101
    44  H    0.143012
    45  C   -0.463674
    46  H    0.138274
    47  H    0.140133
    48  H    0.184269
    49  C   -0.460421
    50  H    0.145263
    51  H    0.163706
    52  H    0.140285
    53  N   -0.614124
    54  H    0.371200
    55  C   -0.034442
    56  H    0.185367
    57  C    0.629377
    58  C   -0.484240
    59  H    0.177723
    60  H    0.156111
    61  H    0.175780
    62  O   -0.542218
    63  N   -0.642026
    64  H    0.384348
    65  C   -0.068140
    66  H    0.193906
    67  C    0.612884
    68  C   -0.354455
    69  H    0.165992
    70  H    0.166195
    71  O   -0.523443
    72  C    0.168399
    73  C   -0.164005
    74  H    0.132964
    75  C   -0.198950
    76  H    0.128556
    77  C   -0.160246
    78  H    0.145411
    79  C   -0.196631
    80  H    0.123507
    81  O   -0.650074
    82  H    0.411285
    83  C    0.354974
    84  N   -0.592949
    85  H    0.348807
    86  C   -0.071409
    87  H    0.197304
    88  C    0.637687
    89  C   -0.331259
    90  H    0.187538
    91  H    0.185438
    92  O   -0.550394
    93  C    0.599220
    94  O   -0.497394
    95  O   -0.537200
    96  N   -0.616708
    97  H    0.353840
    98  C   -0.019348
    99  H    0.183512
   100  C    0.584379
   101  C   -0.285468
   102  H    0.148251
   103  H    0.176717
   104  O   -0.605248
   105  C   -0.279440
   106  H    0.172160
   107  H    0.142416
   108  C   -0.276195
   109  H    0.135825
   110  H    0.151027
   111  C   -0.156967
   112  H    0.182297
   113  H    0.147514
   114  N   -0.773872
   115  H    0.340325
   116  H    0.326268
   117  H    0.456067
   118  O   -0.495018
   119  H    0.424221
 Sum of Mulliken charges =   1.00000

 Dipole moment (field-independent basis, Debye):
    X=              5.1453    Y=            -18.1050    Z=            -16.0564  Tot=             24.7401
 Quadrupole moment (field-independent basis, Debye-Ang):
   XX=           -195.4541   YY=           -222.6369   ZZ=           -248.3043
   XY=            -30.1806   XZ=             52.1072   YZ=            100.9006

 Normal termination of Gaussian 16 at Sun Jun 19 13:58:39 2022.
