 Gaussian 16, Revision C.01,
 Gaussian 16:  ES64L-G16RevC.01  3-Jul-2019

 ----------------------------------------------------------------------
 # B3LYP/6-31G* empiricaldispersion=gd3 guess=read geom=check nosymm in
 tegral(ultrafinegrid)
 ----------------------------------------------------------------------

 ------------------------------------------------------
 Candidate Structure: Conf:772 Charge calc in gas phase
 ------------------------------------------------------
 Structure from the checkpoint file:  "conf-772.chk"
 Charge =  1 Multiplicity = 1

                          Input orientation:
 ---------------------------------------------------------------------
 Center     Atomic      Atomic             Coordinates (Angstroms)
 Number     Number       Type             X           Y           Z
 ---------------------------------------------------------------------
      1          7           0       -6.948194   -2.582182   -7.074815
      2          1           0       -7.958657   -2.508346   -6.919338
      3          1           0       -6.478120   -1.765204   -6.592967
      4          1           0       -6.768664   -2.576371   -8.083315
      5          6           0       -6.323083   -3.767458   -6.361393
      6          1           0       -7.078812   -4.544630   -6.235888
      7          6           0       -5.854629   -3.147306   -5.026617
      8          6           0       -5.114828   -4.299229   -7.177619
      9          1           0       -4.439616   -3.459161   -7.388314
     10          1           0       -5.484125   -4.679924   -8.137916
     11          8           0       -5.643065   -1.920320   -5.023634
     12          6           0       -4.401661   -5.381467   -6.436946
     13          6           0       -4.684832   -6.722023   -6.276820
     14          1           0       -5.441044   -7.306958   -6.785986
     15          7           0       -3.332353   -5.140154   -5.591270
     16          1           0       -2.952454   -4.229120   -5.340798
     17          6           0       -3.041820   -6.318239   -4.965667
     18          1           0       -2.257608   -6.393875   -4.225434
     19          7           0       -3.834175   -7.294503   -5.363206
     20          7           0       -5.644982   -3.976817   -4.015829
     21          1           0       -5.850028   -4.963713   -4.130394
     22          6           0       -5.044348   -3.561286   -2.739387
     23          1           0       -5.368163   -2.533747   -2.548671
     24          6           0       -3.503185   -3.589984   -2.871873
     25          6           0       -5.525068   -4.483251   -1.612342
     26          1           0       -5.013163   -5.450576   -1.725306
     27          8           0       -2.816467   -4.416714   -2.297750
     28          6           0       -5.199189   -3.889622   -0.244358
     29          1           0       -4.124221   -3.724834   -0.135888
     30          1           0       -5.518161   -4.576240    0.547949
     31          1           0       -5.722756   -2.937213   -0.111184
     32          8           0       -6.931125   -4.633622   -1.824089
     33          1           0       -7.283093   -5.157719   -1.087633
     34          7           0       -2.975595   -2.661440   -3.754647
     35          1           0       -3.609257   -1.885414   -3.932570
     36          6           0       -1.611103   -2.200002   -3.455728
     37          1           0       -0.964800   -3.079678   -3.427672
     38          6           0       -1.653146   -1.545163   -2.049836
     39          6           0       -1.159200   -1.222890   -4.557456
     40          1           0       -1.824825   -0.347834   -4.531396
     41          1           0       -1.327978   -1.718129   -5.525185
     42          8           0       -2.725564   -1.171757   -1.568746
     43          6           0        0.305283   -0.742443   -4.502722
     44          1           0        0.471356   -0.225156   -3.550008
     45          6           0        1.306586   -1.903278   -4.598883
     46          1           0        1.166529   -2.462585   -5.533465
     47          1           0        1.217561   -2.615076   -3.770101
     48          1           0        2.333727   -1.525667   -4.582590
     49          6           0        0.550332    0.271237   -5.630295
     50          1           0        0.410957   -0.194395   -6.614903
     51          1           0        1.573597    0.659191   -5.588247
     52          1           0       -0.135507    1.123829   -5.559911
     53          7           0       -0.467554   -1.422204   -1.433244
     54          1           0        0.406529   -1.693589   -1.875338
     55          6           0       -0.289252   -0.729661   -0.167750
     56          1           0       -0.883457    0.192343   -0.187622
     57          6           0        1.209247   -0.370970   -0.098793
     58          6           0       -0.744120   -1.592397    1.020938
     59          1           0       -0.637935   -1.053704    1.967766
     60          1           0       -0.151238   -2.510945    1.075013
     61          1           0       -1.796909   -1.853847    0.886137
     62          8           0        1.997382   -0.761635   -0.967682
     63          7           0        1.576862    0.360617    0.965051
     64          1           0        0.914677    0.679840    1.667363
     65          6           0        2.955640    0.710862    1.257642
     66          1           0        3.593993   -0.146202    1.020154
     67          6           0        2.999123    1.035767    2.760344
     68          6           0        3.420438    1.931083    0.409792
     69          1           0        3.325356    1.636356   -0.641244
     70          1           0        2.718942    2.752335    0.593665
     71          8           0        1.992406    1.478261    3.322182
     72          6           0        4.832771    2.352027    0.738741
     73          6           0        5.087208    3.474450    1.537091
     74          1           0        4.256338    4.092260    1.868743
     75          6           0        5.919993    1.558294    0.350378
     76          1           0        5.749504    0.682341   -0.271830
     77          6           0        6.379502    3.791713    1.949923
     78          1           0        6.569751    4.645197    2.593442
     79          6           0        7.216516    1.859791    0.760773
     80          1           0        8.048830    1.226966    0.461973
     81          8           0        8.708008    3.315253    2.003578
     82          1           0        9.248877    2.510377    2.033056
     83          6           0        7.443381    2.973347    1.572452
     84          7           0        4.181863    0.836179    3.360786
     85          1           0        5.000818    0.525604    2.843859
     86          6           0        4.477675    1.280726    4.709535
     87          1           0        3.984684    2.240598    4.892442
     88          6           0        6.012756    1.422094    4.792089
     89          6           0        3.954059    0.279733    5.782291
     90          1           0        4.387004   -0.708680    5.610943
     91          1           0        2.865873    0.243435    5.689170
     92          8           0        6.733508    0.823530    3.985579
     93          6           0        4.364352    0.851635    7.132542
     94          8           0        3.878722    1.903076    7.528216
     95          8           0        5.393884    0.225763    7.675665
     96          7           0        6.487477    2.180978    5.802707
     97          1           0        5.825902    2.541737    6.484459
     98          6           0        7.858181    2.006132    6.304829
     99          1           0        8.088800    0.934246    6.247667
    100          6           0        7.920842    2.417860    7.826561
    101          6           0        8.874409    2.761968    5.447816
    102          1           0        8.860691    2.357804    4.430283
    103          1           0        9.860461    2.591118    5.891471
    104          8           0        8.919572    3.065553    8.180069
    105          6           0        8.589176    4.264746    5.419444
    106          1           0        7.624066    4.447076    4.929122
    107          1           0        8.524820    4.609138    6.456698
    108          6           0        9.689915    5.040436    4.687222
    109          1           0       10.658758    4.823374    5.160595
    110          1           0        9.730879    4.717472    3.638833
    111          6           0        9.412559    6.529050    4.764720
    112          1           0        9.384312    6.898317    5.792790
    113          1           0        8.490074    6.813573    4.252399
    114          7           0       10.538949    7.310766    4.065279
    115          1           0       10.396036    8.327038    4.083847
    116          1           0       10.616838    7.013615    3.085425
    117          1           0       11.439125    7.106698    4.515454
    118          8           0        6.937074    2.046779    8.541430
    119          1           0        5.979003    0.930648    8.184091
 ---------------------------------------------------------------------

 SCF Done:  E(RB3LYP) =  -2933.77888032     A.U. after    2 cycles

 Alpha  occ. eigenvalues --  -19.27621 -19.23683 -19.23510 -19.22495 -19.18573
 Alpha  occ. eigenvalues --  -19.17842 -19.15525 -19.14855 -19.14046 -19.11724
 Alpha  occ. eigenvalues --  -19.07832 -19.06830 -14.61472 -14.60626 -14.50808
 Alpha  occ. eigenvalues --  -14.48417 -14.45097 -14.42462 -14.41460 -14.40450
 Alpha  occ. eigenvalues --  -14.39220 -14.36834 -10.44263 -10.41827 -10.39095
 Alpha  occ. eigenvalues --  -10.36711 -10.35738 -10.35636 -10.34810 -10.34166
 Alpha  occ. eigenvalues --  -10.33297 -10.33114 -10.32796 -10.32597 -10.31453
 Alpha  occ. eigenvalues --  -10.30710 -10.30224 -10.30049 -10.29887 -10.29748
 Alpha  occ. eigenvalues --  -10.28347 -10.27751 -10.27227 -10.26261 -10.26037
 Alpha  occ. eigenvalues --  -10.25768 -10.25376 -10.24233 -10.24178 -10.24140
 Alpha  occ. eigenvalues --  -10.24095 -10.24027 -10.23972 -10.23966 -10.23922
 Alpha  occ. eigenvalues --  -10.23799 -10.22665 -10.22134 -10.20589 -10.19990
 Alpha  occ. eigenvalues --   -1.20116  -1.15179  -1.14449  -1.14384  -1.11295
 Alpha  occ. eigenvalues --   -1.11097  -1.10988  -1.10549  -1.09481  -1.07468
 Alpha  occ. eigenvalues --   -1.07143  -1.06956  -1.05466  -1.01663  -1.00698
 Alpha  occ. eigenvalues --   -0.99218  -0.98416  -0.98093  -0.96865  -0.95953
 Alpha  occ. eigenvalues --   -0.94656  -0.93457  -0.91987  -0.90436  -0.89670
 Alpha  occ. eigenvalues --   -0.89403  -0.88294  -0.85567  -0.84922  -0.83296
 Alpha  occ. eigenvalues --   -0.81748  -0.81575  -0.80730  -0.80104  -0.79786
 Alpha  occ. eigenvalues --   -0.79134  -0.77345  -0.75705  -0.75244  -0.75155
 Alpha  occ. eigenvalues --   -0.74291  -0.73947  -0.73172  -0.73120  -0.73005
 Alpha  occ. eigenvalues --   -0.71851  -0.71077  -0.70714  -0.70259  -0.69444
 Alpha  occ. eigenvalues --   -0.68749  -0.68053  -0.67318  -0.67046  -0.65930
 Alpha  occ. eigenvalues --   -0.65370  -0.64334  -0.64229  -0.64041  -0.63492
 Alpha  occ. eigenvalues --   -0.63124  -0.62982  -0.62836  -0.61818  -0.61223
 Alpha  occ. eigenvalues --   -0.61085  -0.60561  -0.59474  -0.59132  -0.58534
 Alpha  occ. eigenvalues --   -0.57922  -0.57626  -0.57354  -0.57006  -0.56408
 Alpha  occ. eigenvalues --   -0.55732  -0.54708  -0.54513  -0.54488  -0.54314
 Alpha  occ. eigenvalues --   -0.53389  -0.53323  -0.52768  -0.52440  -0.52111
 Alpha  occ. eigenvalues --   -0.51911  -0.51729  -0.51604  -0.51514  -0.51104
 Alpha  occ. eigenvalues --   -0.50746  -0.50484  -0.50339  -0.50124  -0.49937
 Alpha  occ. eigenvalues --   -0.49824  -0.49680  -0.49271  -0.49110  -0.48910
 Alpha  occ. eigenvalues --   -0.48551  -0.48202  -0.47865  -0.47582  -0.47313
 Alpha  occ. eigenvalues --   -0.46909  -0.46720  -0.46163  -0.46052  -0.45972
 Alpha  occ. eigenvalues --   -0.45678  -0.45486  -0.45337  -0.45172  -0.45034
 Alpha  occ. eigenvalues --   -0.44689  -0.44131  -0.43875  -0.43739  -0.43377
 Alpha  occ. eigenvalues --   -0.42911  -0.42647  -0.42414  -0.42396  -0.42244
 Alpha  occ. eigenvalues --   -0.42088  -0.41874  -0.41483  -0.40897  -0.40403
 Alpha  occ. eigenvalues --   -0.40366  -0.40280  -0.40142  -0.39800  -0.39689
 Alpha  occ. eigenvalues --   -0.39042  -0.38804  -0.38381  -0.38090  -0.37805
 Alpha  occ. eigenvalues --   -0.37766  -0.37291  -0.36929  -0.36836  -0.36463
 Alpha  occ. eigenvalues --   -0.36310  -0.35628  -0.34520  -0.34489  -0.33316
 Alpha  occ. eigenvalues --   -0.32853  -0.32618  -0.32542  -0.31859  -0.31250
 Alpha  occ. eigenvalues --   -0.30253  -0.29843  -0.29097  -0.28930  -0.27788
 Alpha  occ. eigenvalues --   -0.27202  -0.26551  -0.25304  -0.23061  -0.22375
 Alpha  occ. eigenvalues --   -0.21118
 Alpha virt. eigenvalues --   -0.13759  -0.11920  -0.11388  -0.09664  -0.08794
 Alpha virt. eigenvalues --   -0.06683  -0.05507  -0.04972  -0.04740  -0.04522
 Alpha virt. eigenvalues --   -0.04404  -0.03808  -0.03259  -0.03196  -0.02989

 Mulliken charges:
               1
     1  N   -0.753002
     2  H    0.423379
     3  H    0.432486
     4  H    0.417263
     5  C   -0.111690
     6  H    0.223701
     7  C    0.657364
     8  C   -0.381924
     9  H    0.188315
    10  H    0.198654
    11  O   -0.561463
    12  C    0.277552
    13  C   -0.077951
    14  H    0.151962
    15  N   -0.601335
    16  H    0.368524
    17  C    0.204084
    18  H    0.200901
    19  N   -0.406133
    20  N   -0.567718
    21  H    0.377279
    22  C   -0.085985
    23  H    0.216920
    24  C    0.644058
    25  C    0.121117
    26  H    0.158540
    27  O   -0.495452
    28  C   -0.482501
    29  H    0.196102
    30  H    0.158263
    31  H    0.168856
    32  O   -0.649781
    33  H    0.410635
    34  N   -0.644362
    35  H    0.356755
    36  C   -0.078678
    37  H    0.182456
    38  C    0.632858
    39  C   -0.269736
    40  H    0.145084
    41  H    0.128743
    42  O   -0.558485
    43  C   -0.093836
    44  H    0.154264
    45  C   -0.453146
    46  H    0.138021
    47  H    0.146026
    48  H    0.170086
    49  C   -0.445684
    50  H    0.137533
    51  H    0.159903
    52  H    0.145012
    53  N   -0.616673
    54  H    0.372756
    55  C   -0.046244
    56  H    0.182102
    57  C    0.624855
    58  C   -0.451612
    59  H    0.165452
    60  H    0.164606
    61  H    0.181543
    62  O   -0.557617
    63  N   -0.620408
    64  H    0.359330
    65  C   -0.034001
    66  H    0.173753
    67  C    0.613035
    68  C   -0.351774
    69  H    0.172845
    70  H    0.154711
    71  O   -0.553485
    72  C    0.155298
    73  C   -0.185893
    74  H    0.139405
    75  C   -0.208887
    76  H    0.141618
    77  C   -0.154306
    78  H    0.117705
    79  C   -0.160877
    80  H    0.131481
    81  O   -0.672478
    82  H    0.419986
    83  C    0.373511
    84  N   -0.613614
    85  H    0.362012
    86  C   -0.056034
    87  H    0.188890
    88  C    0.612226
    89  C   -0.303631
    90  H    0.159545
    91  H    0.180216
    92  O   -0.566367
    93  C    0.537725
    94  O   -0.492823
    95  O   -0.598184
    96  N   -0.620719
    97  H    0.361976
    98  C   -0.063920
    99  H    0.165497
   100  C    0.581899
   101  C   -0.251139
   102  H    0.128068
   103  H    0.147432
   104  O   -0.573029
   105  C   -0.270783
   106  H    0.143444
   107  H    0.186622
   108  C   -0.304902
   109  H    0.157498
   110  H    0.176488
   111  C   -0.208546
   112  H    0.231445
   113  H    0.217143
   114  N   -0.732282
   115  H    0.420391
   116  H    0.421752
   117  H    0.422815
   118  O   -0.612509
   119  H    0.461829
 Sum of Mulliken charges =   1.00000

 Dipole moment (field-independent basis, Debye):
    X=             -6.4051    Y=              8.5224    Z=            -36.8846  Tot=             38.3944
 Quadrupole moment (field-independent basis, Debye-Ang):
   XX=            106.2565   YY=           -141.1833   ZZ=           -318.4279
   XY=            321.6639   XZ=            153.5183   YZ=            116.4865

 Normal termination of Gaussian 16 at Sun Jun 19 13:58:01 2022.
