 Gaussian 16, Revision C.01,
 Gaussian 16:  ES64L-G16RevC.01  3-Jul-2019

 ----------------------------------------------------------------------
 # B3LYP/6-31G* empiricaldispersion=gd3 guess=read geom=check nosymm in
 tegral(ultrafinegrid)
 ----------------------------------------------------------------------

 ------------------------------------------------------
 Candidate Structure: Conf:535 Charge calc in gas phase
 ------------------------------------------------------
 Structure from the checkpoint file:  "conf-535.chk"
 Charge =  1 Multiplicity = 1

                          Input orientation:
 ---------------------------------------------------------------------
 Center     Atomic      Atomic             Coordinates (Angstroms)
 Number     Number       Type             X           Y           Z
 ---------------------------------------------------------------------
      1          7           0       -6.379585   -1.772649    0.330465
      2          1           0       -6.040220   -1.656102    1.289931
      3          1           0       -6.374355   -0.822817   -0.123214
      4          1           0       -7.306415   -2.222925    0.352058
      5          6           0       -5.416075   -2.558718   -0.524695
      6          1           0       -4.886600   -3.265604    0.117109
      7          6           0       -4.487623   -1.459290   -1.098028
      8          6           0       -6.180725   -3.283190   -1.646731
      9          1           0       -5.441299   -3.871004   -2.206450
     10          1           0       -6.566981   -2.528694   -2.345957
     11          8           0       -4.935777   -0.307244   -1.130233
     12          6           0       -7.296653   -4.135085   -1.120237
     13          6           0       -7.526144   -4.718946    0.111423
     14          1           0       -6.889536   -4.701742    0.988410
     15          7           0       -8.390843   -4.500070   -1.882379
     16          1           0       -8.549045   -4.266425   -2.853647
     17          6           0       -9.197954   -5.276211   -1.095577
     18          1           0      -10.124921   -5.698873   -1.459131
     19          7           0       -8.707825   -5.420067    0.114749
     20          7           0       -3.312834   -1.875746   -1.551534
     21          1           0       -3.037407   -2.855300   -1.528605
     22          6           0       -2.243806   -0.988069   -1.985039
     23          1           0       -2.695645   -0.097873   -2.431678
     24          6           0       -1.418257   -1.815258   -2.989614
     25          6           0       -1.349010   -0.579056   -0.769063
     26          1           0       -0.646939   -1.401962   -0.582010
     27          8           0       -1.437214   -3.040402   -2.912029
     28          6           0       -0.573006    0.706331   -1.034434
     29          1           0        0.073104    0.610079   -1.908646
     30          1           0        0.088056    0.928669   -0.189231
     31          1           0       -1.267784    1.542531   -1.176066
     32          8           0       -2.233634   -0.422496    0.343283
     33          1           0       -1.715249   -0.025572    1.061284
     34          7           0       -0.702313   -1.124990   -3.916231
     35          1           0       -0.651220   -0.118586   -3.802079
     36          6           0        0.487231   -1.735543   -4.511697
     37          1           0        0.237197   -2.785910   -4.686860
     38          6           0        1.593432   -1.714356   -3.422436
     39          6           0        0.782721   -1.027525   -5.849680
     40          1           0        1.052918    0.014710   -5.647932
     41          1           0       -0.179235   -1.005663   -6.377635
     42          8           0        1.282246   -1.537297   -2.237132
     43          6           0        1.825014   -1.638763   -6.813655
     44          1           0        2.835928   -1.384384   -6.457933
     45          6           0        1.710509   -3.164963   -6.935824
     46          1           0        0.697324   -3.452588   -7.243495
     47          1           0        1.932564   -3.682749   -5.994843
     48          1           0        2.406686   -3.544794   -7.690913
     49          6           0        1.683567   -0.967048   -8.189279
     50          1           0        0.720777   -1.231205   -8.645710
     51          1           0        2.475878   -1.300856   -8.867897
     52          1           0        1.735987    0.123765   -8.110214
     53          7           0        2.872377   -1.914141   -3.793684
     54          1           0        3.108299   -1.973879   -4.773405
     55          6           0        3.981072   -1.957225   -2.824779
     56          1           0        3.600780   -2.441175   -1.920591
     57          6           0        4.407394   -0.524047   -2.427251
     58          6           0        5.151877   -2.749585   -3.388395
     59          1           0        5.913678   -2.853132   -2.613635
     60          1           0        5.602502   -2.237865   -4.244806
     61          1           0        4.819752   -3.747695   -3.689822
     62          8           0        5.544667   -0.088168   -2.643878
     63          7           0        3.431480    0.200553   -1.838245
     64          1           0        2.547236   -0.270683   -1.647400
     65          6           0        3.618966    1.542599   -1.292553
     66          1           0        4.627858    1.853640   -1.571812
     67          6           0        3.508988    1.305328    0.224988
     68          6           0        2.569713    2.539585   -1.804456
     69          1           0        1.646113    2.381529   -1.241146
     70          1           0        2.916749    3.546810   -1.533874
     71          8           0        2.411200    1.150799    0.765809
     72          6           0        2.282985    2.470510   -3.290920
     73          6           0        3.273307    2.167366   -4.239651
     74          1           0        4.279646    1.914208   -3.918057
     75          6           0        0.996313    2.758488   -3.761874
     76          1           0        0.209074    2.998341   -3.050749
     77          6           0        2.995639    2.172646   -5.603511
     78          1           0        3.765631    1.945899   -6.334134
     79          6           0        0.702253    2.775077   -5.127977
     80          1           0       -0.301892    3.019218   -5.470163
     81          8           0        1.502077    2.483819   -7.407071
     82          1           0        0.595421    2.768904   -7.600681
     83          6           0        1.710287    2.492768   -6.054801
     84          7           0        4.683811    1.085117    0.861450
     85          1           0        5.540035    1.217199    0.335063
     86          6           0        4.759028    0.152866    1.999066
     87          1           0        3.871061   -0.484435    1.926440
     88          6           0        4.714058    0.907577    3.345052
     89          6           0        6.024552   -0.719527    1.873490
     90          1           0        5.933265   -1.573852    2.546829
     91          1           0        6.904503   -0.139893    2.159255
     92          8           0        5.681103    0.961838    4.097581
     93          6           0        6.114286   -1.194000    0.436655
     94          8           0        5.455160   -2.096135   -0.042334
     95          8           0        6.923185   -0.393496   -0.290902
     96          7           0        3.513219    1.482094    3.595828
     97          1           0        2.788132    1.480154    2.880402
     98          6           0        3.303225    2.318738    4.763133
     99          1           0        3.758988    1.835445    5.630318
    100          6           0        1.815735    2.492091    5.008991
    101          6           0        3.952567    3.729548    4.577835
    102          1           0        3.778725    4.033292    3.537705
    103          1           0        5.030682    3.580533    4.688446
    104          8           0        1.558577    2.695681    6.298166
    105          6           0        3.445214    4.833235    5.532166
    106          1           0        3.229224    4.393960    6.510793
    107          1           0        4.253008    5.555977    5.693714
    108          6           0        2.200345    5.595136    4.994711
    109          1           0        2.541365    6.512846    4.501041
    110          1           0        1.707145    5.009167    4.209474
    111          6           0        1.136114    5.980632    6.040603
    112          1           0        0.654397    6.924765    5.747749
    113          1           0        1.603907    6.150027    7.016911
    114          7           0        0.118663    4.910016    6.213941
    115          1           0       -0.548603    5.171121    6.938713
    116          1           0        0.812937    3.394424    6.369494
    117          1           0       -0.411009    4.801866    5.348568
    118          8           0        0.992905    2.563911    4.108335
    119          1           0        6.733060   -0.541718   -1.248510
 ---------------------------------------------------------------------

 SCF Done:  E(RB3LYP) =  -2933.85916100     A.U. after    3 cycles

 Alpha  occ. eigenvalues --  -19.25530 -19.25354 -19.24731 -19.23349 -19.21571
 Alpha  occ. eigenvalues --  -19.20831 -19.20770 -19.19887 -19.19796 -19.19629
 Alpha  occ. eigenvalues --  -19.17727 -19.16188 -14.59526 -14.50686 -14.48691
 Alpha  occ. eigenvalues --  -14.45412 -14.45161 -14.43340 -14.43190 -14.42121
 Alpha  occ. eigenvalues --  -14.40429 -14.40029 -10.42679 -10.40662 -10.38759
 Alpha  occ. eigenvalues --  -10.38010 -10.37809 -10.36524 -10.36425 -10.35542
 Alpha  occ. eigenvalues --  -10.35395 -10.34995 -10.34694 -10.33816 -10.33392
 Alpha  occ. eigenvalues --  -10.33047 -10.32290 -10.32275 -10.31856 -10.30973
 Alpha  occ. eigenvalues --  -10.30808 -10.30217 -10.27533 -10.27517 -10.27357
 Alpha  occ. eigenvalues --  -10.26970 -10.26689 -10.26618 -10.26592 -10.26317
 Alpha  occ. eigenvalues --  -10.26075 -10.25783 -10.25737 -10.25556 -10.24958
 Alpha  occ. eigenvalues --  -10.24562 -10.23925 -10.23687 -10.23359 -10.22977
 Alpha  occ. eigenvalues --   -1.18330  -1.15884  -1.14109  -1.13483  -1.13285
 Alpha  occ. eigenvalues --   -1.12990  -1.12727  -1.12620  -1.11621  -1.10865
 Alpha  occ. eigenvalues --   -1.10793  -1.08009  -1.07058  -1.05275  -1.04460
 Alpha  occ. eigenvalues --   -1.02093  -1.01290  -1.00398  -0.99637  -0.98470
 Alpha  occ. eigenvalues --   -0.96790  -0.95872  -0.94455  -0.92659  -0.89699
 Alpha  occ. eigenvalues --   -0.88243  -0.86838  -0.85926  -0.85214  -0.84519
 Alpha  occ. eigenvalues --   -0.84343  -0.82315  -0.82071  -0.80971  -0.80448
 Alpha  occ. eigenvalues --   -0.80095  -0.79065  -0.75815  -0.75779  -0.74302
 Alpha  occ. eigenvalues --   -0.74236  -0.73721  -0.73253  -0.73071  -0.72783
 Alpha  occ. eigenvalues --   -0.72005  -0.71238  -0.70025  -0.69909  -0.69348
 Alpha  occ. eigenvalues --   -0.68593  -0.67723  -0.67693  -0.66713  -0.66617
 Alpha  occ. eigenvalues --   -0.66444  -0.66067  -0.65708  -0.64638  -0.64453
 Alpha  occ. eigenvalues --   -0.64093  -0.63390  -0.63181  -0.61860  -0.61586
 Alpha  occ. eigenvalues --   -0.61334  -0.60324  -0.59390  -0.58657  -0.58323
 Alpha  occ. eigenvalues --   -0.57878  -0.57330  -0.57078  -0.56706  -0.56547
 Alpha  occ. eigenvalues --   -0.56499  -0.56175  -0.55799  -0.55766  -0.55533
 Alpha  occ. eigenvalues --   -0.55006  -0.54885  -0.54057  -0.53781  -0.53666
 Alpha  occ. eigenvalues --   -0.53522  -0.53431  -0.52984  -0.52856  -0.52326
 Alpha  occ. eigenvalues --   -0.52191  -0.51793  -0.51503  -0.51366  -0.51299
 Alpha  occ. eigenvalues --   -0.50936  -0.50724  -0.50512  -0.50254  -0.50217
 Alpha  occ. eigenvalues --   -0.50008  -0.49637  -0.49528  -0.49450  -0.49406
 Alpha  occ. eigenvalues --   -0.49238  -0.48630  -0.48220  -0.48117  -0.47270
 Alpha  occ. eigenvalues --   -0.46806  -0.46681  -0.46525  -0.46473  -0.46357
 Alpha  occ. eigenvalues --   -0.46065  -0.45968  -0.45734  -0.45526  -0.45413
 Alpha  occ. eigenvalues --   -0.45112  -0.44730  -0.44424  -0.44140  -0.43880
 Alpha  occ. eigenvalues --   -0.43863  -0.43552  -0.43000  -0.42800  -0.42730
 Alpha  occ. eigenvalues --   -0.42388  -0.41659  -0.41644  -0.41260  -0.40816
 Alpha  occ. eigenvalues --   -0.40690  -0.40576  -0.40353  -0.40200  -0.40069
 Alpha  occ. eigenvalues --   -0.39672  -0.39369  -0.38603  -0.38282  -0.38171
 Alpha  occ. eigenvalues --   -0.37801  -0.37708  -0.37401  -0.36476  -0.36234
 Alpha  occ. eigenvalues --   -0.35413  -0.35168  -0.35029  -0.34481  -0.34361
 Alpha  occ. eigenvalues --   -0.34213  -0.34122  -0.33273  -0.32802  -0.32557
 Alpha  occ. eigenvalues --   -0.32356  -0.31815  -0.31362  -0.29465  -0.29255
 Alpha  occ. eigenvalues --   -0.29059
 Alpha virt. eigenvalues --   -0.11593  -0.09933  -0.09040  -0.08277  -0.07902
 Alpha virt. eigenvalues --   -0.07487  -0.06763  -0.06309  -0.06148  -0.05453
 Alpha virt. eigenvalues --   -0.03995  -0.03765  -0.03453  -0.03343  -0.02946

 Mulliken charges:
               1
     1  N   -0.738463
     2  H    0.419894
     3  H    0.425276
     4  H    0.404042
     5  C   -0.135509
     6  H    0.221356
     7  C    0.691545
     8  C   -0.357303
     9  H    0.219535
    10  H    0.187520
    11  O   -0.540500
    12  C    0.291058
    13  C   -0.095729
    14  H    0.144304
    15  N   -0.604657
    16  H    0.352826
    17  C    0.225464
    18  H    0.195301
    19  N   -0.396789
    20  N   -0.596224
    21  H    0.364607
    22  C   -0.097400
    23  H    0.184510
    24  C    0.646601
    25  C    0.165248
    26  H    0.171752
    27  O   -0.530549
    28  C   -0.524364
    29  H    0.157088
    30  H    0.206505
    31  H    0.152740
    32  O   -0.653731
    33  H    0.413255
    34  N   -0.596041
    35  H    0.339194
    36  C   -0.096138
    37  H    0.214325
    38  C    0.645930
    39  C   -0.297977
    40  H    0.169907
    41  H    0.155586
    42  O   -0.553023
    43  C   -0.102283
    44  H    0.130202
    45  C   -0.458439
    46  H    0.153780
    47  H    0.142529
    48  H    0.164593
    49  C   -0.472877
    50  H    0.142847
    51  H    0.155684
    52  H    0.179657
    53  N   -0.613113
    54  H    0.359742
    55  C   -0.062840
    56  H    0.216365
    57  C    0.649097
    58  C   -0.476136
    59  H    0.194643
    60  H    0.163347
    61  H    0.158096
    62  O   -0.575963
    63  N   -0.614905
    64  H    0.395141
    65  C   -0.063573
    66  H    0.184441
    67  C    0.625493
    68  C   -0.383546
    69  H    0.183488
    70  H    0.175012
    71  O   -0.536401
    72  C    0.172245
    73  C   -0.192135
    74  H    0.164300
    75  C   -0.214405
    76  H    0.134272
    77  C   -0.177275
    78  H    0.156791
    79  C   -0.204881
    80  H    0.125595
    81  O   -0.638660
    82  H    0.413503
    83  C    0.354838
    84  N   -0.608067
    85  H    0.362740
    86  C   -0.084232
    87  H    0.192670
    88  C    0.640313
    89  C   -0.347857
    90  H    0.195895
    91  H    0.204861
    92  O   -0.525911
    93  C    0.564566
    94  O   -0.478107
    95  O   -0.587667
    96  N   -0.636328
    97  H    0.372370
    98  C   -0.000605
    99  H    0.187891
   100  C    0.567562
   101  C   -0.283877
   102  H    0.140674
   103  H    0.178226
   104  O   -0.601021
   105  C   -0.286001
   106  H    0.169834
   107  H    0.145723
   108  C   -0.290145
   109  H    0.147026
   110  H    0.159887
   111  C   -0.141538
   112  H    0.141474
   113  H    0.164619
   114  N   -0.773097
   115  H    0.327601
   116  H    0.452438
   117  H    0.333057
   118  O   -0.512056
   119  H    0.447846
 Sum of Mulliken charges =   1.00000

 Dipole moment (field-independent basis, Debye):
    X=            -21.4621    Y=             -2.1332    Z=             -9.0472  Tot=             23.3886
 Quadrupole moment (field-independent basis, Debye-Ang):
   XX=           -199.5909   YY=           -296.1004   ZZ=           -271.0045
   XY=             48.8262   XZ=              6.4028   YZ=             47.4475

 Normal termination of Gaussian 16 at Sun Jun 19 13:58:40 2022.
