 Gaussian 16, Revision C.01,
 Gaussian 16:  ES64L-G16RevC.01  3-Jul-2019

 ----------------------------------------------------------------------
 # B3LYP/6-31G* empiricaldispersion=gd3 guess=read geom=check nosymm in
 tegral(ultrafinegrid)
 ----------------------------------------------------------------------

 ------------------------------------------------------
 Candidate Structure: Conf:472 Charge calc in gas phase
 ------------------------------------------------------
 Structure from the checkpoint file:  "conf-472.chk"
 Charge =  1 Multiplicity = 1

                          Input orientation:
 ---------------------------------------------------------------------
 Center     Atomic      Atomic             Coordinates (Angstroms)
 Number     Number       Type             X           Y           Z
 ---------------------------------------------------------------------
      1          7           0       -3.298362   -4.492142   -7.251932
      2          1           0       -3.712564   -5.219603   -7.841043
      3          1           0       -4.017421   -3.744092   -7.091687
      4          1           0       -2.447013   -4.118197   -7.716018
      5          6           0       -2.959532   -4.966500   -5.864277
      6          1           0       -2.826696   -6.050056   -5.888329
      7          6           0       -4.147901   -4.498046   -4.999116
      8          6           0       -1.663583   -4.241174   -5.372715
      9          1           0       -1.357409   -4.712428   -4.432916
     10          1           0       -1.920201   -3.204529   -5.127858
     11          8           0       -4.878209   -3.612824   -5.466440
     12          6           0       -0.579001   -4.231857   -6.394006
     13          6           0       -0.285409   -3.300997   -7.375797
     14          1           0       -0.714471   -2.312249   -7.493442
     15          7           0        0.290572   -5.281468   -6.638298
     16          1           0        0.418735   -6.102809   -6.062047
     17          6           0        1.067408   -4.922642   -7.708647
     18          1           0        1.853086   -5.561101   -8.090282
     19          7           0        0.735604   -3.743573   -8.182952
     20          7           0       -4.213012   -4.980528   -3.759107
     21          1           0       -3.633335   -5.762901   -3.481760
     22          6           0       -4.994633   -4.323513   -2.690452
     23          1           0       -5.965109   -4.048645   -3.113091
     24          6           0       -4.147072   -3.091135   -2.295276
     25          6           0       -5.182292   -5.287110   -1.517535
     26          1           0       -4.199509   -5.427822   -1.043072
     27          8           0       -3.261964   -3.189150   -1.445056
     28          6           0       -6.156193   -4.715109   -0.491221
     29          1           0       -5.780331   -3.772266   -0.081342
     30          1           0       -6.275008   -5.413534    0.344548
     31          1           0       -7.139876   -4.548906   -0.943095
     32          8           0       -5.640097   -6.507754   -2.100305
     33          1           0       -5.834979   -7.127582   -1.379982
     34          7           0       -4.350380   -1.991402   -3.051373
     35          1           0       -5.077982   -2.021655   -3.754607
     36          6           0       -3.322894   -0.946801   -3.204099
     37          1           0       -2.367331   -1.428458   -2.969049
     38          6           0       -3.471797    0.190977   -2.170606
     39          6           0       -3.323847   -0.452871   -4.652296
     40          1           0       -4.256004    0.095623   -4.839260
     41          1           0       -3.346463   -1.344067   -5.300144
     42          8           0       -3.631823    1.358085   -2.500772
     43          6           0       -2.130676    0.430716   -5.064066
     44          1           0       -2.249468    1.389326   -4.552977
     45          6           0       -0.771768   -0.146781   -4.645295
     46          1           0       -0.631706   -1.169445   -5.031118
     47          1           0       -0.647394   -0.159689   -3.557747
     48          1           0        0.035760    0.469949   -5.051067
     49          6           0       -2.183879    0.670641   -6.578944
     50          1           0       -2.050504   -0.272687   -7.131778
     51          1           0       -1.389643    1.355924   -6.886885
     52          1           0       -3.147058    1.095849   -6.888932
     53          7           0       -3.373110   -0.239165   -0.874806
     54          1           0       -3.045065   -1.197787   -0.778431
     55          6           0       -2.831817    0.671867    0.119410
     56          1           0       -3.308389    1.645213   -0.029881
     57          6           0       -1.310453    0.832505   -0.154998
     58          6           0       -3.117140    0.148066    1.532313
     59          1           0       -2.736189    0.826468    2.301388
     60          1           0       -2.641126   -0.827680    1.686165
     61          1           0       -4.195338    0.034600    1.677796
     62          8           0       -0.745310    0.190166   -1.037308
     63          7           0       -0.684583    1.731466    0.640529
     64          1           0       -1.151915    2.123958    1.450271
     65          6           0        0.743962    1.976497    0.604927
     66          1           0        1.210612    1.149156    0.062461
     67          6           0        1.227938    2.041004    2.061388
     68          6           0        1.080489    3.316246   -0.110275
     69          1           0        0.610888    4.123467    0.465591
     70          1           0        2.164288    3.471146   -0.049701
     71          8           0        0.458961    2.362197    2.969558
     72          6           0        0.622086    3.350425   -1.547728
     73          6           0        1.503472    3.045514   -2.593411
     74          1           0        2.540913    2.808960   -2.367349
     75          6           0       -0.705758    3.650539   -1.872826
     76          1           0       -1.412647    3.884261   -1.082375
     77          6           0        1.084243    3.049945   -3.920855
     78          1           0        1.771469    2.831611   -4.732257
     79          6           0       -1.146867    3.645114   -3.194137
     80          1           0       -2.189605    3.855532   -3.420092
     81          8           0       -0.612609    3.343234   -5.545223
     82          1           0       -1.541204    3.613909   -5.614808
     83          6           0       -0.245678    3.354731   -4.221346
     84          7           0        2.539608    1.787592    2.248347
     85          1           0        3.137362    1.444634    1.502087
     86          6           0        3.176343    1.842551    3.548636
     87          1           0        2.877976    2.762944    4.058565
     88          6           0        4.696614    1.808539    3.303501
     89          6           0        2.748529    0.627372    4.431588
     90          1           0        2.836665   -0.289259    3.845279
     91          1           0        1.704907    0.783875    4.719245
     92          8           0        5.156089    1.280015    2.292124
     93          6           0        3.642984    0.489255    5.645404
     94          8           0        4.423554   -0.418528    5.823721
     95          8           0        3.545681    1.565024    6.464364
     96          7           0        5.439187    2.338598    4.302588
     97          1           0        4.961272    2.681456    5.128159
     98          6           0        6.830920    1.968747    4.534908
     99          1           0        7.045341    1.067656    3.957052
    100          6           0        7.052695    1.711326    6.035564
    101          6           0        7.808800    3.097322    4.108116
    102          1           0        7.456839    3.469670    3.141039
    103          1           0        8.795963    2.653412    3.940269
    104          8           0        8.141219    1.208710    6.377216
    105          6           0        7.927911    4.264942    5.122953
    106          1           0        8.039548    5.204847    4.572754
    107          1           0        6.986084    4.356921    5.677825
    108          6           0        9.127801    4.132284    6.108310
    109          1           0        9.611513    3.158125    5.983917
    110          1           0        9.885818    4.882414    5.854741
    111          6           0        8.832409    4.330126    7.601426
    112          1           0        8.171318    5.184145    7.777351
    113          1           0        9.764366    4.500309    8.148171
    114          7           0        8.178431    3.127252    8.229857
    115          1           0        8.184657    3.164350    9.250267
    116          1           0        8.602756    2.237737    7.884773
    117          1           0        7.179796    2.940929    7.864295
    118          8           0        6.184951    2.233029    6.838819
    119          1           0        4.382556    1.593774    6.989542
 ---------------------------------------------------------------------

 SCF Done:  E(RB3LYP) =  -2933.84298551     A.U. after    1 cycles

 Alpha  occ. eigenvalues --  -19.27905 -19.24746 -19.22701 -19.22041 -19.21550
 Alpha  occ. eigenvalues --  -19.18016 -19.16843 -19.16790 -19.16713 -19.16152
 Alpha  occ. eigenvalues --  -19.16097 -19.15009 -14.60401 -14.51597 -14.51338
 Alpha  occ. eigenvalues --  -14.48371 -14.46009 -14.42864 -14.41029 -14.40984
 Alpha  occ. eigenvalues --  -14.40616 -14.39489 -10.44789 -10.42067 -10.39159
 Alpha  occ. eigenvalues --  -10.35951 -10.35909 -10.35379 -10.35141 -10.34961
 Alpha  occ. eigenvalues --  -10.34743 -10.34393 -10.33820 -10.33809 -10.33113
 Alpha  occ. eigenvalues --  -10.33019 -10.32429 -10.31342 -10.30873 -10.29190
 Alpha  occ. eigenvalues --  -10.28863 -10.28605 -10.28446 -10.27012 -10.26332
 Alpha  occ. eigenvalues --  -10.26242 -10.25332 -10.24902 -10.24454 -10.24260
 Alpha  occ. eigenvalues --  -10.23961 -10.23829 -10.23779 -10.23366 -10.23306
 Alpha  occ. eigenvalues --  -10.23216 -10.23110 -10.22987 -10.22829 -10.22791
 Alpha  occ. eigenvalues --   -1.20309  -1.14921  -1.13980  -1.13487  -1.12785
 Alpha  occ. eigenvalues --   -1.12272  -1.10492  -1.09867  -1.09153  -1.08997
 Alpha  occ. eigenvalues --   -1.08243  -1.07657  -1.07331  -1.04046  -1.03484
 Alpha  occ. eigenvalues --   -1.02313  -0.99770  -0.99284  -0.97979  -0.97774
 Alpha  occ. eigenvalues --   -0.97526  -0.96350  -0.95138  -0.90123  -0.89636
 Alpha  occ. eigenvalues --   -0.88101  -0.87171  -0.85850  -0.84837  -0.83501
 Alpha  occ. eigenvalues --   -0.82616  -0.81781  -0.80987  -0.80672  -0.79700
 Alpha  occ. eigenvalues --   -0.79006  -0.77665  -0.75843  -0.75027  -0.74492
 Alpha  occ. eigenvalues --   -0.74352  -0.74153  -0.73527  -0.72976  -0.72925
 Alpha  occ. eigenvalues --   -0.71520  -0.71136  -0.70842  -0.69354  -0.68859
 Alpha  occ. eigenvalues --   -0.67998  -0.67219  -0.66461  -0.65577  -0.65367
 Alpha  occ. eigenvalues --   -0.64600  -0.64473  -0.63992  -0.63637  -0.63426
 Alpha  occ. eigenvalues --   -0.63266  -0.63061  -0.62916  -0.62160  -0.61727
 Alpha  occ. eigenvalues --   -0.61260  -0.60796  -0.59985  -0.59336  -0.58875
 Alpha  occ. eigenvalues --   -0.58703  -0.57921  -0.57422  -0.57331  -0.56817
 Alpha  occ. eigenvalues --   -0.56438  -0.55566  -0.54650  -0.54396  -0.53872
 Alpha  occ. eigenvalues --   -0.53824  -0.53787  -0.53287  -0.53075  -0.52935
 Alpha  occ. eigenvalues --   -0.52566  -0.52486  -0.52310  -0.52202  -0.52096
 Alpha  occ. eigenvalues --   -0.51923  -0.51279  -0.51133  -0.50662  -0.50446
 Alpha  occ. eigenvalues --   -0.50308  -0.50137  -0.49852  -0.49668  -0.49282
 Alpha  occ. eigenvalues --   -0.48719  -0.48627  -0.48275  -0.48184  -0.47628
 Alpha  occ. eigenvalues --   -0.47568  -0.47281  -0.46931  -0.46734  -0.46630
 Alpha  occ. eigenvalues --   -0.46529  -0.46407  -0.46098  -0.45655  -0.45505
 Alpha  occ. eigenvalues --   -0.45238  -0.45009  -0.44690  -0.44393  -0.44184
 Alpha  occ. eigenvalues --   -0.44097  -0.43703  -0.43612  -0.43206  -0.42832
 Alpha  occ. eigenvalues --   -0.42656  -0.42543  -0.42241  -0.42168  -0.42013
 Alpha  occ. eigenvalues --   -0.41428  -0.41270  -0.41036  -0.40620  -0.40497
 Alpha  occ. eigenvalues --   -0.40333  -0.40233  -0.39478  -0.39291  -0.38956
 Alpha  occ. eigenvalues --   -0.38815  -0.38653  -0.38504  -0.38065  -0.37962
 Alpha  occ. eigenvalues --   -0.37506  -0.37291  -0.36946  -0.36245  -0.35512
 Alpha  occ. eigenvalues --   -0.35144  -0.34765  -0.32484  -0.32006  -0.31628
 Alpha  occ. eigenvalues --   -0.31398  -0.31222  -0.30862  -0.30392  -0.30142
 Alpha  occ. eigenvalues --   -0.29903  -0.29618  -0.29368  -0.29145  -0.28029
 Alpha  occ. eigenvalues --   -0.26044
 Alpha virt. eigenvalues --   -0.14119  -0.11159  -0.09778  -0.08821  -0.07176
 Alpha virt. eigenvalues --   -0.06082  -0.04979  -0.04838  -0.04415  -0.04189
 Alpha virt. eigenvalues --   -0.04060  -0.02977  -0.02766  -0.02181  -0.02169

 Mulliken charges:
               1
     1  N   -0.750225
     2  H    0.417796
     3  H    0.431764
     4  H    0.402916
     5  C   -0.112818
     6  H    0.208369
     7  C    0.662654
     8  C   -0.404543
     9  H    0.206246
    10  H    0.237410
    11  O   -0.539623
    12  C    0.288745
    13  C   -0.103552
    14  H    0.190192
    15  N   -0.604515
    16  H    0.351202
    17  C    0.224415
    18  H    0.198607
    19  N   -0.387347
    20  N   -0.580871
    21  H    0.361159
    22  C   -0.061004
    23  H    0.195075
    24  C    0.620930
    25  C    0.113998
    26  H    0.158587
    27  O   -0.532217
    28  C   -0.482493
    29  H    0.183127
    30  H    0.165579
    31  H    0.169031
    32  O   -0.643718
    33  H    0.411134
    34  N   -0.594798
    35  H    0.357821
    36  C   -0.091494
    37  H    0.194910
    38  C    0.649586
    39  C   -0.285168
    40  H    0.158284
    41  H    0.088668
    42  O   -0.517474
    43  C   -0.075324
    44  H    0.175087
    45  C   -0.492260
    46  H    0.094937
    47  H    0.206344
    48  H    0.170639
    49  C   -0.466947
    50  H    0.100970
    51  H    0.183333
    52  H    0.140195
    53  N   -0.593386
    54  H    0.359293
    55  C   -0.082450
    56  H    0.191442
    57  C    0.635911
    58  C   -0.464888
    59  H    0.169576
    60  H    0.159836
    61  H    0.169820
    62  O   -0.537684
    63  N   -0.606052
    64  H    0.350118
    65  C   -0.058200
    66  H    0.180197
    67  C    0.629959
    68  C   -0.362570
    69  H    0.160432
    70  H    0.156305
    71  O   -0.546741
    72  C    0.186617
    73  C   -0.186915
    74  H    0.127995
    75  C   -0.181595
    76  H    0.128701
    77  C   -0.162561
    78  H    0.139135
    79  C   -0.180076
    80  H    0.136765
    81  O   -0.653952
    82  H    0.410312
    83  C    0.352480
    84  N   -0.621866
    85  H    0.353473
    86  C   -0.033022
    87  H    0.186503
    88  C    0.587361
    89  C   -0.326736
    90  H    0.174607
    91  H    0.200258
    92  O   -0.539352
    93  C    0.555684
    94  O   -0.453921
    95  O   -0.598582
    96  N   -0.604984
    97  H    0.358834
    98  C   -0.048156
    99  H    0.192841
   100  C    0.629456
   101  C   -0.263471
   102  H    0.160891
   103  H    0.158955
   104  O   -0.570590
   105  C   -0.298757
   106  H    0.151299
   107  H    0.151989
   108  C   -0.289824
   109  H    0.189968
   110  H    0.162723
   111  C   -0.177614
   112  H    0.188245
   113  H    0.181725
   114  N   -0.763685
   115  H    0.377376
   116  H    0.408133
   117  H    0.425876
   118  O   -0.667854
   119  H    0.441073
 Sum of Mulliken charges =   1.00000

 Dipole moment (field-independent basis, Debye):
    X=             -6.1183    Y=            -16.6056    Z=            -14.4662  Tot=             22.8572
 Quadrupole moment (field-independent basis, Debye-Ang):
   XX=           -202.0293   YY=           -171.4972   ZZ=           -105.3412
   XY=            137.9084   XZ=            159.5255   YZ=            198.3876

 Normal termination of Gaussian 16 at Sun Jun 19 13:57:33 2022.
