 Gaussian 16, Revision C.01,
 Gaussian 16:  ES64L-G16RevC.01  3-Jul-2019

 ----------------------------------------------------------------------
 # B3LYP/6-31G* empiricaldispersion=gd3 guess=read geom=check nosymm in
 tegral(ultrafinegrid)
 ----------------------------------------------------------------------

 ------------------------------------------------------
 Candidate Structure: Conf:962 Charge calc in gas phase
 ------------------------------------------------------
 Structure from the checkpoint file:  "conf-962.chk"
 Charge =  1 Multiplicity = 1

                          Input orientation:
 ---------------------------------------------------------------------
 Center     Atomic      Atomic             Coordinates (Angstroms)
 Number     Number       Type             X           Y           Z
 ---------------------------------------------------------------------
      1          7           0       -3.621005   -7.544759   -2.224175
      2          1           0       -3.664013   -8.042782   -1.329683
      3          1           0       -4.586436   -7.141688   -2.426938
      4          1           0       -3.322067   -8.198398   -2.953815
      5          6           0       -2.791294   -6.278914   -2.162360
      6          1           0       -2.049974   -6.381068   -1.367220
      7          6           0       -3.863331   -5.204194   -1.849666
      8          6           0       -2.125152   -6.039319   -3.545518
      9          1           0       -2.906643   -6.112652   -4.311816
     10          1           0       -1.408140   -6.853255   -3.727557
     11          8           0       -5.028554   -5.471186   -2.177026
     12          6           0       -1.487126   -4.698292   -3.682630
     13          6           0       -1.901822   -3.570471   -4.353551
     14          1           0       -2.785155   -3.457144   -4.968872
     15          7           0       -0.317575   -4.311606   -3.036961
     16          1           0        0.320750   -4.906210   -2.525948
     17          6           0       -0.085607   -3.004432   -3.369210
     18          1           0        0.763793   -2.448189   -2.996788
     19          7           0       -1.026581   -2.531524   -4.156330
     20          7           0       -3.416999   -4.086886   -1.297650
     21          1           0       -2.417450   -3.929133   -1.181379
     22          6           0       -4.199576   -2.863108   -1.130377
     23          1           0       -5.129146   -2.968054   -1.695427
     24          6           0       -3.276158   -1.751803   -1.644503
     25          6           0       -4.525423   -2.631742    0.359920
     26          1           0       -3.564482   -2.565422    0.895060
     27          8           0       -2.078106   -1.815187   -1.334058
     28          6           0       -5.315555   -1.341906    0.577135
     29          1           0       -4.729616   -0.459527    0.300525
     30          1           0       -5.576506   -1.239840    1.636485
     31          1           0       -6.247686   -1.356629    0.000499
     32          8           0       -5.250536   -3.789598    0.757695
     33          1           0       -5.530031   -3.665402    1.678166
     34          7           0       -3.817760   -0.768372   -2.374217
     35          1           0       -4.818264   -0.754776   -2.526221
     36          6           0       -3.024555    0.351879   -2.910833
     37          1           0       -2.041500   -0.073363   -3.127396
     38          6           0       -2.846306    1.462346   -1.836233
     39          6           0       -3.652356    0.915075   -4.186348
     40          1           0       -4.468266    1.588351   -3.902332
     41          1           0       -4.079456    0.089940   -4.772622
     42          8           0       -3.193231    2.620791   -2.032465
     43          6           0       -2.614909    1.669081   -5.050765
     44          1           0       -1.918579    2.173503   -4.368274
     45          6           0       -1.818329    0.694041   -5.931197
     46          1           0       -2.456998    0.299880   -6.733692
     47          1           0       -1.434194   -0.163236   -5.367572
     48          1           0       -0.959949    1.193721   -6.390590
     49          6           0       -3.296757    2.750059   -5.896968
     50          1           0       -4.055870    2.310290   -6.557692
     51          1           0       -2.567979    3.269136   -6.529854
     52          1           0       -3.787106    3.494223   -5.259780
     53          7           0       -2.277072    1.028841   -0.683329
     54          1           0       -1.944281    0.072327   -0.609898
     55          6           0       -1.916428    1.931149    0.406808
     56          1           0       -1.716171    2.913335   -0.031894
     57          6           0       -0.655176    1.314981    1.027483
     58          6           0       -3.037145    2.045817    1.445879
     59          1           0       -2.763684    2.750874    2.238789
     60          1           0       -3.219766    1.066306    1.898984
     61          1           0       -3.950423    2.402710    0.960702
     62          8           0       -0.676128    0.152777    1.441661
     63          7           0        0.437887    2.101834    1.045908
     64          1           0        0.437314    3.018587    0.608371
     65          6           0        1.755505    1.629322    1.423295
     66          1           0        1.735961    1.283756    2.464805
     67          6           0        2.690217    2.846774    1.315577
     68          6           0        2.244174    0.437291    0.539813
     69          1           0        3.291285    0.232295    0.793459
     70          1           0        1.656696   -0.433424    0.838231
     71          8           0        2.326219    3.897956    0.785953
     72          6           0        2.085349    0.682568   -0.942887
     73          6           0        1.034353    0.089501   -1.658610
     74          1           0        0.344642   -0.575545   -1.144846
     75          6           0        2.947078    1.541918   -1.636087
     76          1           0        3.777454    2.008367   -1.112810
     77          6           0        0.845365    0.344462   -3.015889
     78          1           0        0.045096   -0.126541   -3.575480
     79          6           0        2.763967    1.817012   -2.990335
     80          1           0        3.442948    2.493112   -3.506256
     81          8           0        1.462894    1.448707   -5.010842
     82          1           0        2.102482    2.094847   -5.348576
     83          6           0        1.705297    1.221951   -3.684446
     84          7           0        3.932706    2.665798    1.809720
     85          1           0        4.220045    1.812458    2.280411
     86          6           0        4.964128    3.682169    1.730636
     87          1           0        4.974705    4.115095    0.725406
     88          6           0        6.291231    2.970458    2.051582
     89          6           0        4.697138    4.811104    2.754616
     90          1           0        4.862695    4.454163    3.776316
     91          1           0        3.644109    5.102255    2.672058
     92          8           0        6.296736    1.903843    2.663882
     93          6           0        5.519829    6.060582    2.543140
     94          8           0        6.294485    6.269331    1.625276
     95          8           0        5.269559    6.974677    3.495317
     96          7           0        7.408832    3.636038    1.677833
     97          1           0        7.261189    4.588094    1.351013
     98          6           0        8.669555    3.372059    2.362099
     99          1           0        9.002691    2.352265    2.158435
    100          6           0        8.541137    3.506760    3.877547
    101          6           0        9.718453    4.408305    1.867785
    102          1           0        9.220488    5.385256    1.842351
    103          1           0        9.951077    4.156755    0.827447
    104          8           0        9.208744    2.853397    4.652187
    105          6           0       11.019266    4.509965    2.708919
    106          1           0       11.038262    3.726068    3.471820
    107          1           0       11.880835    4.305811    2.063711
    108          6           0       11.260903    5.892209    3.362313
    109          1           0       12.199328    5.847499    3.931523
    110          1           0       11.419996    6.629191    2.562570
    111          6           0       10.152440    6.457323    4.267171
    112          1           0        9.227938    6.556310    3.684925
    113          1           0       10.437915    7.473332    4.562474
    114          7           0        9.836716    5.674729    5.490798
    115          1           0       10.114855    6.176313    6.329272
    116          1           0       10.328832    4.783281    5.503701
    117          1           0        8.203450    4.931925    5.063132
    118          8           0        7.763923    4.546733    4.242381
    119          1           0        5.819636    7.755171    3.292478
 ---------------------------------------------------------------------

 SCF Done:  E(RB3LYP) =  -2933.84864532     A.U. after    2 cycles

 Alpha  occ. eigenvalues --  -19.26858 -19.25679 -19.23915 -19.23305 -19.22204
 Alpha  occ. eigenvalues --  -19.21724 -19.20548 -19.18092 -19.17697 -19.17630
 Alpha  occ. eigenvalues --  -19.17322 -19.17094 -14.61130 -14.50048 -14.49781
 Alpha  occ. eigenvalues --  -14.46619 -14.42066 -14.41564 -14.41289 -14.41219
 Alpha  occ. eigenvalues --  -14.40722 -14.37900 -10.43693 -10.41759 -10.39265
 Alpha  occ. eigenvalues --  -10.38750 -10.36024 -10.35459 -10.35083 -10.34507
 Alpha  occ. eigenvalues --  -10.34463 -10.34381 -10.34257 -10.34036 -10.33993
 Alpha  occ. eigenvalues --  -10.33500 -10.30587 -10.30380 -10.30159 -10.29881
 Alpha  occ. eigenvalues --  -10.29661 -10.28792 -10.28295 -10.26771 -10.26208
 Alpha  occ. eigenvalues --  -10.26160 -10.24941 -10.24555 -10.24487 -10.24481
 Alpha  occ. eigenvalues --  -10.24397 -10.24366 -10.24286 -10.23806 -10.23540
 Alpha  occ. eigenvalues --  -10.23499 -10.23448 -10.23254 -10.21294 -10.21045
 Alpha  occ. eigenvalues --   -1.19603  -1.16896  -1.14840  -1.14186  -1.13333
 Alpha  occ. eigenvalues --   -1.11865  -1.11548  -1.11266  -1.10394  -1.09501
 Alpha  occ. eigenvalues --   -1.09260  -1.08652  -1.07798  -1.06383  -1.04681
 Alpha  occ. eigenvalues --   -1.02533  -0.98865  -0.98227  -0.98022  -0.97860
 Alpha  occ. eigenvalues --   -0.97732  -0.94783  -0.93701  -0.90726  -0.89462
 Alpha  occ. eigenvalues --   -0.86687  -0.86206  -0.85977  -0.84842  -0.83838
 Alpha  occ. eigenvalues --   -0.82644  -0.81853  -0.80585  -0.80177  -0.79971
 Alpha  occ. eigenvalues --   -0.79414  -0.78823  -0.75684  -0.74839  -0.74186
 Alpha  occ. eigenvalues --   -0.73547  -0.72827  -0.72729  -0.72200  -0.71922
 Alpha  occ. eigenvalues --   -0.71854  -0.71191  -0.69760  -0.69246  -0.68941
 Alpha  occ. eigenvalues --   -0.68736  -0.67698  -0.67093  -0.66823  -0.65765
 Alpha  occ. eigenvalues --   -0.65034  -0.64370  -0.63886  -0.63778  -0.63645
 Alpha  occ. eigenvalues --   -0.62996  -0.62602  -0.62284  -0.61747  -0.61218
 Alpha  occ. eigenvalues --   -0.60487  -0.60059  -0.59739  -0.59237  -0.58528
 Alpha  occ. eigenvalues --   -0.57558  -0.56857  -0.56494  -0.56321  -0.56150
 Alpha  occ. eigenvalues --   -0.55815  -0.55322  -0.54906  -0.54888  -0.54311
 Alpha  occ. eigenvalues --   -0.54026  -0.53734  -0.53189  -0.53134  -0.52901
 Alpha  occ. eigenvalues --   -0.52654  -0.52410  -0.52145  -0.51974  -0.51678
 Alpha  occ. eigenvalues --   -0.51574  -0.51480  -0.50829  -0.50530  -0.50390
 Alpha  occ. eigenvalues --   -0.50329  -0.49852  -0.49617  -0.49540  -0.49454
 Alpha  occ. eigenvalues --   -0.49348  -0.48955  -0.48455  -0.48257  -0.48057
 Alpha  occ. eigenvalues --   -0.47869  -0.47533  -0.47475  -0.47404  -0.47234
 Alpha  occ. eigenvalues --   -0.46588  -0.46490  -0.46470  -0.46153  -0.45808
 Alpha  occ. eigenvalues --   -0.45175  -0.44738  -0.44610  -0.44136  -0.43945
 Alpha  occ. eigenvalues --   -0.43646  -0.43280  -0.43198  -0.42961  -0.42814
 Alpha  occ. eigenvalues --   -0.42708  -0.42496  -0.42403  -0.42177  -0.42011
 Alpha  occ. eigenvalues --   -0.41627  -0.41561  -0.41220  -0.40653  -0.40390
 Alpha  occ. eigenvalues --   -0.39536  -0.39444  -0.38920  -0.38790  -0.38565
 Alpha  occ. eigenvalues --   -0.38255  -0.38179  -0.38158  -0.38016  -0.37432
 Alpha  occ. eigenvalues --   -0.37211  -0.37033  -0.36823  -0.36256  -0.35899
 Alpha  occ. eigenvalues --   -0.35541  -0.34977  -0.34436  -0.33272  -0.33239
 Alpha  occ. eigenvalues --   -0.32389  -0.32268  -0.31862  -0.31252  -0.30944
 Alpha  occ. eigenvalues --   -0.30737  -0.30501  -0.30369  -0.29851  -0.29386
 Alpha  occ. eigenvalues --   -0.27183
 Alpha virt. eigenvalues --   -0.12886  -0.11701  -0.09625  -0.08338  -0.06759
 Alpha virt. eigenvalues --   -0.06272  -0.05693  -0.05295  -0.04876  -0.04518
 Alpha virt. eigenvalues --   -0.04331  -0.03750  -0.03530  -0.03072  -0.02463

 Mulliken charges:
               1
     1  N   -0.752760
     2  H    0.421436
     3  H    0.433994
     4  H    0.414590
     5  C   -0.118105
     6  H    0.208496
     7  C    0.671284
     8  C   -0.384795
     9  H    0.201194
    10  H    0.184682
    11  O   -0.536201
    12  C    0.295935
    13  C   -0.049573
    14  H    0.156951
    15  N   -0.628773
    16  H    0.342177
    17  C    0.256954
    18  H    0.200178
    19  N   -0.419607
    20  N   -0.574941
    21  H    0.372961
    22  C   -0.080401
    23  H    0.191032
    24  C    0.651505
    25  C    0.153393
    26  H    0.153307
    27  O   -0.566633
    28  C   -0.498510
    29  H    0.184352
    30  H    0.166722
    31  H    0.160585
    32  O   -0.632984
    33  H    0.406861
    34  N   -0.604250
    35  H    0.345475
    36  C   -0.087063
    37  H    0.216976
    38  C    0.627520
    39  C   -0.281583
    40  H    0.162383
    41  H    0.124383
    42  O   -0.516993
    43  C   -0.072620
    44  H    0.150780
    45  C   -0.475210
    46  H    0.126098
    47  H    0.171914
    48  H    0.158917
    49  C   -0.451166
    50  H    0.134095
    51  H    0.145994
    52  H    0.159937
    53  N   -0.650735
    54  H    0.390404
    55  C   -0.015645
    56  H    0.175662
    57  C    0.616529
    58  C   -0.449285
    59  H    0.159189
    60  H    0.157164
    61  H    0.169066
    62  O   -0.561061
    63  N   -0.621546
    64  H    0.363810
    65  C   -0.019318
    66  H    0.176843
    67  C    0.625179
    68  C   -0.388823
    69  H    0.156246
    70  H    0.183341
    71  O   -0.545639
    72  C    0.167759
    73  C   -0.238820
    74  H    0.153139
    75  C   -0.179095
    76  H    0.139427
    77  C   -0.196690
    78  H    0.181286
    79  C   -0.189953
    80  H    0.129691
    81  O   -0.640612
    82  H    0.412440
    83  C    0.347373
    84  N   -0.635967
    85  H    0.359793
    86  C   -0.040394
    87  H    0.190531
    88  C    0.610908
    89  C   -0.369731
    90  H    0.209481
    91  H    0.219983
    92  O   -0.532473
    93  C    0.623235
    94  O   -0.495287
    95  O   -0.554344
    96  N   -0.632571
    97  H    0.380206
    98  C   -0.013340
    99  H    0.186757
   100  C    0.609648
   101  C   -0.318269
   102  H    0.162155
   103  H    0.165799
   104  O   -0.475371
   105  C   -0.294642
   106  H    0.176375
   107  H    0.150719
   108  C   -0.282374
   109  H    0.142990
   110  H    0.145168
   111  C   -0.137414
   112  H    0.150964
   113  H    0.146856
   114  N   -0.787900
   115  H    0.323526
   116  H    0.344071
   117  H    0.443670
   118  O   -0.619523
   119  H    0.418550
 Sum of Mulliken charges =   1.00000

 Dipole moment (field-independent basis, Debye):
    X=             -4.3377    Y=            -20.9939    Z=             -5.8867  Tot=             22.2308
 Quadrupole moment (field-independent basis, Debye-Ang):
   XX=           -214.4537   YY=            -90.8063   ZZ=           -310.5485
   XY=            155.7410   XZ=             35.5386   YZ=             91.2280

 Normal termination of Gaussian 16 at Sun Jun 19 13:58:21 2022.
