 Gaussian 16, Revision C.01,
 Gaussian 16:  ES64L-G16RevC.01  3-Jul-2019

 ----------------------------------------------------------------------
 # B3LYP/6-31G* empiricaldispersion=gd3 guess=read geom=check nosymm in
 tegral(ultrafinegrid)
 ----------------------------------------------------------------------

 ------------------------------------------------------
 Candidate Structure: Conf:746 Charge calc in gas phase
 ------------------------------------------------------
 Structure from the checkpoint file:  "conf-746.chk"
 Charge =  1 Multiplicity = 1

                          Input orientation:
 ---------------------------------------------------------------------
 Center     Atomic      Atomic             Coordinates (Angstroms)
 Number     Number       Type             X           Y           Z
 ---------------------------------------------------------------------
      1          7           0       -0.737530   -2.564817    3.695710
      2          1           0        0.963479   -3.242667    3.625468
      3          1           0       -0.737722   -1.722838    4.271304
      4          1           0       -1.588821   -3.065641    3.952193
      5          6           0       -0.794601   -2.201655    2.274307
      6          1           0        0.175271   -1.763739    2.017072
      7          6           0       -1.893691   -1.211054    1.891613
      8          6           0       -0.993164   -3.500724    1.443426
      9          1           0       -1.995919   -3.894015    1.647232
     10          1           0       -0.271762   -4.237115    1.819304
     11          8           0       -2.990801   -1.181272    2.454905
     12          6           0       -0.831430   -3.322984   -0.029589
     13          6           0       -1.662531   -3.540597   -1.103833
     14          1           0       -2.676040   -3.919281   -1.089164
     15          7           0        0.354893   -2.881222   -0.589371
     16          1           0        1.108151   -2.427058   -0.086337
     17          6           0        0.181750   -2.833334   -1.940920
     18          1           0        0.975641   -2.508495   -2.596555
     19          7           0       -1.022026   -3.239259   -2.292292
     20          7           0       -1.565490   -0.439304    0.830390
     21          1           0       -0.629192   -0.515900    0.437852
     22          6           0       -2.536424    0.095137   -0.123023
     23          1           0       -3.427434   -0.545153   -0.124090
     24          6           0       -1.815875    0.012606   -1.474028
     25          6           0       -2.990702    1.522085    0.272782
     26          1           0       -2.066939    2.095524    0.472514
     27          8           0       -0.576782    0.041509   -1.484435
     28          6           0       -3.788704    2.229665   -0.817812
     29          1           0       -3.179224    2.427899   -1.705445
     30          1           0       -4.160387    3.179450   -0.423384
     31          1           0       -4.662773    1.630906   -1.102753
     32          8           0       -3.798816    1.460257    1.433035
     33          1           0       -3.612461    0.636477    1.926979
     34          7           0       -2.537674   -0.111094   -2.593725
     35          1           0       -3.545205   -0.149582   -2.529756
     36          6           0       -1.914077   -0.385093   -3.893293
     37          1           0       -1.563664   -1.421834   -3.865598
     38          6           0       -0.720805    0.569357   -4.108731
     39          6           0       -2.933590   -0.196318   -5.025114
     40          1           0       -2.402212   -0.357348   -5.972571
     41          1           0       -3.257506    0.851940   -5.019518
     42          8           0       -0.836286    1.781185   -3.976928
     43          6           0       -4.151619   -1.142140   -4.981276
     44          1           0       -4.703508   -0.972555   -4.041380
     45          6           0       -5.109374   -0.796668   -6.130966
     46          1           0       -4.622397   -0.959730   -7.100660
     47          1           0       -5.429401    0.250907   -6.088083
     48          1           0       -6.004798   -1.426781   -6.097897
     49          6           0       -3.742223   -2.621919   -5.029652
     50          1           0       -3.186243   -2.833551   -5.952442
     51          1           0       -4.628877   -3.265604   -5.024853
     52          1           0       -3.109152   -2.915877   -4.185150
     53          7           0        0.431910   -0.070331   -4.477596
     54          1           0        0.436021   -1.075650   -4.370790
     55          6           0        1.752320    0.534860   -4.677123
     56          1           0        2.358094   -0.235980   -5.160387
     57          6           0        2.514343    0.835126   -3.371192
     58          6           0        1.731354    1.780944   -5.574351
     59          1           0        2.759473    2.114733   -5.741979
     60          1           0        1.154021    2.582105   -5.112577
     61          1           0        1.276697    1.533271   -6.538230
     62          8           0        3.751525    0.814194   -3.350823
     63          7           0        1.766944    1.155063   -2.288942
     64          1           0        0.769888    0.953767   -2.279218
     65          6           0        2.386349    1.386870   -0.993535
     66          1           0        3.343718    1.874125   -1.200709
     67          6           0        2.649913    0.009785   -0.354575
     68          6           0        1.517706    2.280419   -0.110803
     69          1           0        1.094074    3.064968   -0.748688
     70          1           0        0.672173    1.693065    0.264327
     71          8           0        1.856630   -0.523905    0.442516
     72          6           0        2.255921    2.935753    1.042369
     73          6           0        3.594301    2.661231    1.356865
     74          1           0        4.153522    1.915213    0.802759
     75          6           0        1.588851    3.904923    1.809140
     76          1           0        0.550095    4.135893    1.587330
     77          6           0        4.260932    3.354138    2.370356
     78          1           0        5.312189    3.175008    2.572073
     79          6           0        2.229344    4.586192    2.843199
     80          1           0        1.695377    5.333541    3.425788
     81          8           0        4.257478    4.931610    4.164627
     82          1           0        4.017517    5.872373    4.206127
     83          6           0        3.572406    4.311714    3.103048
     84          7           0        3.785553   -0.575785   -0.783259
     85          1           0        4.228934   -0.107601   -1.576334
     86          6           0        4.065215   -2.009144   -0.615743
     87          1           0        3.116699   -2.549533   -0.708800
     88          6           0        4.659007   -2.330356    0.782275
     89          6           0        4.990691   -2.470140   -1.734756
     90          1           0        5.296060   -3.506398   -1.555820
     91          1           0        5.921046   -1.893456   -1.746219
     92          8           0        5.773129   -2.817522    0.923627
     93          6           0        4.321622   -2.385928   -3.094313
     94          8           0        3.129644   -2.235823   -3.289628
     95          8           0        5.218319   -2.516763   -4.082456
     96          7           0        3.807465   -2.054943    1.806206
     97          1           0        2.899845   -1.661604    1.575291
     98          6           0        4.098401   -2.394005    3.187005
     99          1           0        4.809577   -3.228455    3.172641
    100          6           0        2.832662   -2.854135    3.932521
    101          6           0        4.746007   -1.227172    3.965288
    102          1           0        5.639365   -0.912658    3.414126
    103          1           0        5.065866   -1.609340    4.940240
    104          8           0        2.752994   -2.831901    5.144539
    105          6           0        3.784535   -0.049912    4.174642
    106          1           0        3.456149    0.358567    3.210162
    107          1           0        2.892412   -0.426269    4.688896
    108          6           0        4.388869    1.079919    5.023209
    109          1           0        4.954389    0.654309    5.863631
    110          1           0        5.086357    1.677450    4.424944
    111          6           0        3.272639    1.961121    5.570067
    112          1           0        2.673169    1.425374    6.310123
    113          1           0        2.619242    2.335185    4.778848
    114          7           0        3.834026    3.198606    6.262610
    115          1           0        3.134335    3.642858    6.865889
    116          1           0        4.131905    3.913683    5.548669
    117          1           0        4.638733    2.955938    6.850647
    118          8           0        1.835344   -3.212907    3.119636
    119          1           0        4.735439   -2.459777   -4.928736
 ---------------------------------------------------------------------

 SCF Done:  E(RB3LYP) =  -2933.91008057     A.U. after    1 cycles

 Alpha  occ. eigenvalues --  -19.32765 -19.27808 -19.25826 -19.23016 -19.22730
 Alpha  occ. eigenvalues --  -19.21044 -19.20922 -19.20112 -19.19550 -19.19449
 Alpha  occ. eigenvalues --  -19.18988 -19.18257 -14.60569 -14.45926 -14.44871
 Alpha  occ. eigenvalues --  -14.44549 -14.43327 -14.43295 -14.43267 -14.43265
 Alpha  occ. eigenvalues --  -14.42485 -14.37619 -10.40898 -10.39509 -10.39220
 Alpha  occ. eigenvalues --  -10.39015 -10.37741 -10.37130 -10.36805 -10.36505
 Alpha  occ. eigenvalues --  -10.36295 -10.35757 -10.32857 -10.32554 -10.32471
 Alpha  occ. eigenvalues --  -10.31852 -10.31297 -10.31245 -10.31109 -10.31037
 Alpha  occ. eigenvalues --  -10.30868 -10.30726 -10.30714 -10.30519 -10.30506
 Alpha  occ. eigenvalues --  -10.30115 -10.29755 -10.29437 -10.28799 -10.28563
 Alpha  occ. eigenvalues --  -10.28328 -10.27939 -10.27870 -10.25982 -10.25530
 Alpha  occ. eigenvalues --  -10.25368 -10.24043 -10.23703 -10.22847 -10.22520
 Alpha  occ. eigenvalues --   -1.19552  -1.19005  -1.17231  -1.14911  -1.14245
 Alpha  occ. eigenvalues --   -1.13346  -1.11593  -1.11363  -1.11156  -1.10061
 Alpha  occ. eigenvalues --   -1.09978  -1.08462  -1.07303  -1.06936  -1.02714
 Alpha  occ. eigenvalues --   -1.01300  -1.00772  -1.00392  -1.00130  -0.99190
 Alpha  occ. eigenvalues --   -0.98731  -0.97227  -0.93483  -0.93028  -0.89550
 Alpha  occ. eigenvalues --   -0.88357  -0.87999  -0.87171  -0.86669  -0.86229
 Alpha  occ. eigenvalues --   -0.84953  -0.84382  -0.82843  -0.82197  -0.80729
 Alpha  occ. eigenvalues --   -0.79701  -0.78750  -0.77353  -0.76757  -0.75715
 Alpha  occ. eigenvalues --   -0.74181  -0.73691  -0.73479  -0.73224  -0.72760
 Alpha  occ. eigenvalues --   -0.72339  -0.71262  -0.70728  -0.70503  -0.69546
 Alpha  occ. eigenvalues --   -0.69020  -0.67927  -0.67613  -0.66910  -0.66801
 Alpha  occ. eigenvalues --   -0.66761  -0.66177  -0.65820  -0.65346  -0.65102
 Alpha  occ. eigenvalues --   -0.64335  -0.63763  -0.62835  -0.62382  -0.61866
 Alpha  occ. eigenvalues --   -0.61443  -0.61045  -0.60722  -0.60446  -0.59834
 Alpha  occ. eigenvalues --   -0.59257  -0.58725  -0.58421  -0.58295  -0.57854
 Alpha  occ. eigenvalues --   -0.57641  -0.57100  -0.56670  -0.56485  -0.56172
 Alpha  occ. eigenvalues --   -0.56054  -0.55789  -0.54913  -0.54780  -0.54568
 Alpha  occ. eigenvalues --   -0.54376  -0.54272  -0.53877  -0.53706  -0.53373
 Alpha  occ. eigenvalues --   -0.53311  -0.52919  -0.52073  -0.51738  -0.51641
 Alpha  occ. eigenvalues --   -0.51122  -0.50817  -0.50781  -0.50356  -0.50213
 Alpha  occ. eigenvalues --   -0.49962  -0.49708  -0.49478  -0.49449  -0.49158
 Alpha  occ. eigenvalues --   -0.48969  -0.48512  -0.48436  -0.48048  -0.48004
 Alpha  occ. eigenvalues --   -0.47618  -0.47496  -0.47251  -0.46985  -0.46944
 Alpha  occ. eigenvalues --   -0.46814  -0.46600  -0.46433  -0.46288  -0.46134
 Alpha  occ. eigenvalues --   -0.45907  -0.45598  -0.45313  -0.45070  -0.44826
 Alpha  occ. eigenvalues --   -0.44638  -0.44474  -0.44439  -0.44236  -0.44102
 Alpha  occ. eigenvalues --   -0.43975  -0.43846  -0.43628  -0.43391  -0.43240
 Alpha  occ. eigenvalues --   -0.43024  -0.42458  -0.42266  -0.42020  -0.40210
 Alpha  occ. eigenvalues --   -0.39808  -0.38734  -0.38707  -0.38673  -0.38474
 Alpha  occ. eigenvalues --   -0.37782  -0.37445  -0.36995  -0.36721  -0.36316
 Alpha  occ. eigenvalues --   -0.35422  -0.35380  -0.35184  -0.35036  -0.34729
 Alpha  occ. eigenvalues --   -0.34262  -0.33377  -0.33191  -0.33095  -0.33008
 Alpha  occ. eigenvalues --   -0.32763  -0.32453  -0.31899  -0.31438  -0.31250
 Alpha  occ. eigenvalues --   -0.28449
 Alpha virt. eigenvalues --   -0.12496  -0.11899  -0.11352  -0.09056  -0.08017
 Alpha virt. eigenvalues --   -0.07661  -0.06906  -0.06479  -0.06054  -0.05928
 Alpha virt. eigenvalues --   -0.05863  -0.05486  -0.04121  -0.03938  -0.03706

 Mulliken charges:
               1
     1  N   -0.757753
     2  H    0.453596
     3  H    0.324003
     4  H    0.340253
     5  C   -0.101681
     6  H    0.170709
     7  C    0.605045
     8  C   -0.358305
     9  H    0.177347
    10  H    0.185585
    11  O   -0.542070
    12  C    0.312176
    13  C   -0.093810
    14  H    0.141462
    15  N   -0.631355
    16  H    0.369030
    17  C    0.203867
    18  H    0.186333
    19  N   -0.459874
    20  N   -0.628045
    21  H    0.402085
    22  C   -0.111736
    23  H    0.177313
    24  C    0.674226
    25  C    0.201348
    26  H    0.104899
    27  O   -0.593862
    28  C   -0.479215
    29  H    0.168572
    30  H    0.174830
    31  H    0.142924
    32  O   -0.659186
    33  H    0.423892
    34  N   -0.614636
    35  H    0.350821
    36  C   -0.045712
    37  H    0.204315
    38  C    0.620394
    39  C   -0.295224
    40  H    0.153957
    41  H    0.167154
    42  O   -0.534564
    43  C   -0.090205
    44  H    0.110559
    45  C   -0.441899
    46  H    0.149610
    47  H    0.147927
    48  H    0.154184
    49  C   -0.469878
    50  H    0.144323
    51  H    0.151488
    52  H    0.181445
    53  N   -0.626087
    54  H    0.356501
    55  C   -0.035676
    56  H    0.168352
    57  C    0.625230
    58  C   -0.458717
    59  H    0.169310
    60  H    0.197524
    61  H    0.164237
    62  O   -0.568383
    63  N   -0.633182
    64  H    0.431530
    65  C   -0.063148
    66  H    0.180589
    67  C    0.641792
    68  C   -0.385148
    69  H    0.191349
    70  H    0.201304
    71  O   -0.585272
    72  C    0.175719
    73  C   -0.193835
    74  H    0.158734
    75  C   -0.183993
    76  H    0.166738
    77  C   -0.169708
    78  H    0.164747
    79  C   -0.181349
    80  H    0.147167
    81  O   -0.697759
    82  H    0.438862
    83  C    0.292270
    84  N   -0.603416
    85  H    0.386211
    86  C   -0.076064
    87  H    0.188225
    88  C    0.630189
    89  C   -0.397062
    90  H    0.228442
    91  H    0.209171
    92  O   -0.513223
    93  C    0.608192
    94  O   -0.481319
    95  O   -0.546445
    96  N   -0.642227
    97  H    0.384816
    98  C   -0.058755
    99  H    0.214892
   100  C    0.587697
   101  C   -0.256702
   102  H    0.162049
   103  H    0.168441
   104  O   -0.477728
   105  C   -0.298732
   106  H    0.163609
   107  H    0.163761
   108  C   -0.284222
   109  H    0.166500
   110  H    0.162864
   111  C   -0.204977
   112  H    0.215724
   113  H    0.225084
   114  N   -0.771691
   115  H    0.408889
   116  H    0.450994
   117  H    0.409750
   118  O   -0.601637
   119  H    0.422336
 Sum of Mulliken charges =   1.00000

 Dipole moment (field-independent basis, Debye):
    X=             13.4261    Y=             12.1739    Z=             16.3859  Tot=             24.4327
 Quadrupole moment (field-independent basis, Debye-Ang):
   XX=           -298.4877   YY=           -293.1310   ZZ=           -187.2458
   XY=             60.9036   XZ=             84.3624   YZ=             95.7212

 Normal termination of Gaussian 16 at Sun Jun 19 13:58:00 2022.
