 Gaussian 16, Revision C.01,
 Gaussian 16:  ES64L-G16RevC.01  3-Jul-2019

 ----------------------------------------------------------------------
 # B3LYP/6-31G* empiricaldispersion=gd3 guess=read geom=check nosymm in
 tegral(ultrafinegrid)
 ----------------------------------------------------------------------

 ------------------------------------------------------
 Candidate Structure: Conf:796 Charge calc in gas phase
 ------------------------------------------------------
 Structure from the checkpoint file:  "conf-796.chk"
 Charge =  1 Multiplicity = 1

                          Input orientation:
 ---------------------------------------------------------------------
 Center     Atomic      Atomic             Coordinates (Angstroms)
 Number     Number       Type             X           Y           Z
 ---------------------------------------------------------------------
      1          7           0       -0.007569   -3.818312   -5.672527
      2          1           0        0.091420   -4.748323   -6.089633
      3          1           0       -0.991437   -3.460890   -5.852207
      4          1           0        0.682784   -3.190527   -6.095885
      5          6           0        0.051128   -3.824185   -4.155103
      6          1           0        0.462654   -4.780310   -3.825993
      7          6           0       -1.441348   -3.672183   -3.759506
      8          6           0        0.942546   -2.649568   -3.678159
      9          1           0        0.531643   -1.717453   -4.081426
     10          1           0        1.936586   -2.787457   -4.127792
     11          8           0       -2.232585   -3.303804   -4.645071
     12          6           0        1.046191   -2.549312   -2.188977
     13          6           0        1.435560   -3.451398   -1.216350
     14          1           0        1.790018   -4.466970   -1.338882
     15          7           0        0.721206   -1.397138   -1.503176
     16          1           0        0.389752   -0.490097   -1.857476
     17          6           0        0.916431   -1.641734   -0.187931
     18          1           0        0.752956   -0.893551    0.574728
     19          7           0        1.344571   -2.875420    0.026548
     20          7           0       -1.756162   -3.927845   -2.494934
     21          1           0       -1.023702   -4.106642   -1.802652
     22          6           0       -3.022217   -3.509635   -1.864103
     23          1           0       -3.860583   -3.816471   -2.495111
     24          6           0       -2.891587   -1.980007   -1.756340
     25          6           0       -3.075036   -4.189933   -0.470466
     26          1           0       -3.819514   -3.648730    0.129804
     27          8           0       -2.194780   -1.507906   -0.847471
     28          6           0       -3.451748   -5.661199   -0.566399
     29          1           0       -4.457501   -5.783146   -0.981522
     30          1           0       -3.425205   -6.107731    0.430590
     31          1           0       -2.740649   -6.201341   -1.200848
     32          8           0       -1.788485   -4.118038    0.133814
     33          1           0       -1.599471   -3.176539    0.306979
     34          7           0       -3.420866   -1.252855   -2.763954
     35          1           0       -3.937978   -1.781771   -3.455168
     36          6           0       -2.774706   -0.034791   -3.316833
     37          1           0       -1.698200   -0.195444   -3.197545
     38          6           0       -2.976184    1.298284   -2.553430
     39          6           0       -3.122968    0.091353   -4.806222
     40          1           0       -4.103393    0.571458   -4.898754
     41          1           0       -3.203270   -0.918820   -5.232504
     42          8           0       -3.133531    2.344521   -3.165971
     43          6           0       -2.093965    0.878507   -5.642041
     44          1           0       -1.995334    1.871263   -5.198654
     45          6           0       -0.703188    0.226954   -5.633093
     46          1           0       -0.769513   -0.830715   -5.939917
     47          1           0       -0.232257    0.288630   -4.645165
     48          1           0       -0.039283    0.745573   -6.330167
     49          6           0       -2.602129    1.037590   -7.080312
     50          1           0       -2.703282    0.063284   -7.578404
     51          1           0       -1.905452    1.645605   -7.667334
     52          1           0       -3.583109    1.525533   -7.103912
     53          7           0       -2.797855    1.234023   -1.193897
     54          1           0       -2.566469    0.300883   -0.856404
     55          6           0       -1.969462    2.263469   -0.578704
     56          1           0       -2.174411    3.200118   -1.108136
     57          6           0       -0.492034    1.902010   -0.892885
     58          6           0       -2.291117    2.423827    0.909566
     59          1           0       -1.763605    3.275495    1.351859
     60          1           0       -2.026692    1.523769    1.476012
     61          1           0       -3.362701    2.602105    1.027435
     62          8           0       -0.220950    1.185594   -1.872785
     63          7           0        0.454706    2.420449   -0.095255
     64          1           0        0.220030    2.830885    0.802432
     65          6           0        1.880338    2.241838   -0.318060
     66          1           0        2.019304    1.330704   -0.907510
     67          6           0        2.529412    2.050426    1.064015
     68          6           0        2.481597    3.437826   -1.110832
     69          1           0        2.332529    4.349127   -0.519863
     70          1           0        3.563513    3.284722   -1.198777
     71          8           0        1.908045    2.303784    2.098915
     72          6           0        1.839819    3.555518   -2.472538
     73          6           0        2.337813    2.826378   -3.560388
     74          1           0        3.260874    2.261069   -3.447570
     75          6           0        0.659470    4.284796   -2.654372
     76          1           0        0.256158    4.865987   -1.829133
     77          6           0        1.675256    2.807148   -4.783422
     78          1           0        2.070614    2.258165   -5.632376
     79          6           0       -0.030084    4.259026   -3.865722
     80          1           0       -0.961988    4.808346   -3.977473
     81          8           0       -0.147718    3.437169   -6.150886
     82          1           0       -0.952428    3.978789   -6.131582
     83          6           0        0.478258    3.514964   -4.933583
     84          7           0        3.787668    1.580141    1.028393
     85          1           0        4.244355    1.336039    0.154733
     86          6           0        4.515048    1.127399    2.200535
     87          1           0        4.561540    1.943859    2.931272
     88          6           0        5.951613    0.824296    1.720977
     89          6           0        3.809784   -0.067298    2.876591
     90          1           0        2.865002    0.276848    3.305829
     91          1           0        4.401989   -0.467282    3.708012
     92          8           0        6.288500    0.997127    0.548718
     93          6           0        3.517943   -1.190975    1.897279
     94          8           0        4.024737   -1.293675    0.796334
     95          8           0        2.596118   -2.037346    2.380997
     96          7           0        6.794484    0.390697    2.677794
     97          1           0        6.511960    0.245425    3.640909
     98          6           0        8.173601    0.036892    2.384332
     99          1           0        8.182933   -0.459994    1.413795
    100          6           0        8.625861   -0.947382    3.473357
    101          6           0        9.055839    1.314115    2.352379
    102          1           0        8.943940    1.789031    3.334669
    103          1           0        8.600519    1.987324    1.616146
    104          8           0        9.652737   -1.729417    3.164027
    105          6           0       10.554461    1.141365    2.047765
    106          1           0       11.067426    2.043968    2.401316
    107          1           0       10.967013    0.320157    2.643422
    108          6           0       10.927207    0.965444    0.564644
    109          1           0       10.648067    1.870550    0.009417
    110          1           0       12.021635    0.888768    0.491151
    111          6           0       10.300221   -0.228074   -0.161868
    112          1           0       10.704364   -0.278006   -1.183774
    113          1           0        9.218411   -0.087532   -0.257343
    114          7           0       10.530723   -1.491670    0.578388
    115          1           0       10.156644   -2.279898    0.050347
    116          1           0        9.939692   -1.612613    2.198341
    117          1           0       11.534679   -1.659865    0.659207
    118          8           0        8.079875   -0.973488    4.559534
    119          1           0        2.338349   -2.662016    1.653736
 ---------------------------------------------------------------------

 SCF Done:  E(RB3LYP) =  -2933.88259572     A.U. after    3 cycles

 Alpha  occ. eigenvalues --  -19.28617 -19.24955 -19.24510 -19.24401 -19.23989
 Alpha  occ. eigenvalues --  -19.21786 -19.21146 -19.19710 -19.19378 -19.19231
 Alpha  occ. eigenvalues --  -19.18113 -19.17517 -14.61469 -14.50937 -14.48265
 Alpha  occ. eigenvalues --  -14.47684 -14.44952 -14.42931 -14.42056 -14.42042
 Alpha  occ. eigenvalues --  -14.41804 -14.41444 -10.45144 -10.42390 -10.41004
 Alpha  occ. eigenvalues --  -10.37983 -10.37752 -10.36581 -10.36297 -10.35939
 Alpha  occ. eigenvalues --  -10.35832 -10.35822 -10.35408 -10.34787 -10.33819
 Alpha  occ. eigenvalues --  -10.33491 -10.32681 -10.31730 -10.31569 -10.31415
 Alpha  occ. eigenvalues --  -10.30878 -10.30846 -10.29043 -10.28172 -10.27177
 Alpha  occ. eigenvalues --  -10.27091 -10.27087 -10.26617 -10.26568 -10.26454
 Alpha  occ. eigenvalues --  -10.26295 -10.25975 -10.25923 -10.25838 -10.25654
 Alpha  occ. eigenvalues --  -10.25500 -10.24719 -10.24675 -10.24522 -10.24079
 Alpha  occ. eigenvalues --   -1.20888  -1.16324  -1.15421  -1.15265  -1.13347
 Alpha  occ. eigenvalues --   -1.13044  -1.12786  -1.12195  -1.11632  -1.11326
 Alpha  occ. eigenvalues --   -1.11015  -1.09921  -1.07360  -1.06637  -1.05346
 Alpha  occ. eigenvalues --   -1.03929  -1.01456  -0.99862  -0.99657  -0.98746
 Alpha  occ. eigenvalues --   -0.97402  -0.96968  -0.95035  -0.92276  -0.90239
 Alpha  occ. eigenvalues --   -0.89075  -0.87612  -0.86243  -0.86195  -0.85143
 Alpha  occ. eigenvalues --   -0.84559  -0.83321  -0.81923  -0.81618  -0.80913
 Alpha  occ. eigenvalues --   -0.80448  -0.80243  -0.76805  -0.76699  -0.75482
 Alpha  occ. eigenvalues --   -0.74956  -0.74800  -0.74435  -0.74137  -0.73563
 Alpha  occ. eigenvalues --   -0.71545  -0.70912  -0.70799  -0.69977  -0.69477
 Alpha  occ. eigenvalues --   -0.69361  -0.69015  -0.67780  -0.67227  -0.66767
 Alpha  occ. eigenvalues --   -0.66067  -0.65919  -0.65557  -0.64859  -0.64687
 Alpha  occ. eigenvalues --   -0.64188  -0.63962  -0.63592  -0.63189  -0.62984
 Alpha  occ. eigenvalues --   -0.62943  -0.62475  -0.61243  -0.61183  -0.60209
 Alpha  occ. eigenvalues --   -0.59528  -0.58467  -0.58060  -0.57812  -0.57421
 Alpha  occ. eigenvalues --   -0.56756  -0.56234  -0.56129  -0.55480  -0.55203
 Alpha  occ. eigenvalues --   -0.54896  -0.54785  -0.54503  -0.54289  -0.54024
 Alpha  occ. eigenvalues --   -0.53977  -0.53748  -0.53450  -0.53390  -0.53078
 Alpha  occ. eigenvalues --   -0.53009  -0.52384  -0.51950  -0.51608  -0.51541
 Alpha  occ. eigenvalues --   -0.51369  -0.51281  -0.51100  -0.51031  -0.50737
 Alpha  occ. eigenvalues --   -0.50528  -0.50321  -0.50270  -0.50109  -0.49826
 Alpha  occ. eigenvalues --   -0.49144  -0.48826  -0.48507  -0.48216  -0.48095
 Alpha  occ. eigenvalues --   -0.47944  -0.47744  -0.47487  -0.47346  -0.47092
 Alpha  occ. eigenvalues --   -0.46952  -0.46735  -0.46481  -0.46420  -0.46016
 Alpha  occ. eigenvalues --   -0.45837  -0.45579  -0.45282  -0.44588  -0.44315
 Alpha  occ. eigenvalues --   -0.44171  -0.44013  -0.43865  -0.43581  -0.43544
 Alpha  occ. eigenvalues --   -0.43317  -0.43271  -0.43102  -0.42518  -0.42256
 Alpha  occ. eigenvalues --   -0.42017  -0.41403  -0.41292  -0.40728  -0.40560
 Alpha  occ. eigenvalues --   -0.40433  -0.39564  -0.39467  -0.39038  -0.38839
 Alpha  occ. eigenvalues --   -0.38254  -0.38015  -0.37846  -0.37653  -0.37023
 Alpha  occ. eigenvalues --   -0.36931  -0.35561  -0.34872  -0.34724  -0.33960
 Alpha  occ. eigenvalues --   -0.33774  -0.33338  -0.33235  -0.32933  -0.32610
 Alpha  occ. eigenvalues --   -0.32190  -0.32019  -0.31838  -0.31541  -0.30772
 Alpha  occ. eigenvalues --   -0.28523
 Alpha virt. eigenvalues --   -0.14531  -0.12484  -0.10790  -0.09122  -0.07939
 Alpha virt. eigenvalues --   -0.07208  -0.06904  -0.06574  -0.06512  -0.05428
 Alpha virt. eigenvalues --   -0.05161  -0.04270  -0.04113  -0.03789  -0.03649

 Mulliken charges:
               1
     1  N   -0.763591
     2  H    0.420462
     3  H    0.441660
     4  H    0.420784
     5  C   -0.111547
     6  H    0.225567
     7  C    0.658476
     8  C   -0.395523
     9  H    0.203681
    10  H    0.196584
    11  O   -0.549970
    12  C    0.291912
    13  C   -0.066382
    14  H    0.152354
    15  N   -0.620469
    16  H    0.422056
    17  C    0.229485
    18  H    0.191576
    19  N   -0.464192
    20  N   -0.595450
    21  H    0.392474
    22  C   -0.087639
    23  H    0.185419
    24  C    0.625010
    25  C    0.108558
    26  H    0.162472
    27  O   -0.554092
    28  C   -0.452251
    29  H    0.158761
    30  H    0.192841
    31  H    0.150590
    32  O   -0.634792
    33  H    0.433083
    34  N   -0.590069
    35  H    0.356390
    36  C   -0.071856
    37  H    0.180163
    38  C    0.627254
    39  C   -0.303248
    40  H    0.172163
    41  H    0.131424
    42  O   -0.499572
    43  C   -0.072652
    44  H    0.174817
    45  C   -0.471835
    46  H    0.064337
    47  H    0.169930
    48  H    0.179628
    49  C   -0.457734
    50  H    0.125883
    51  H    0.160836
    52  H    0.157325
    53  N   -0.596385
    54  H    0.370095
    55  C   -0.084093
    56  H    0.210821
    57  C    0.639422
    58  C   -0.474689
    59  H    0.163354
    60  H    0.163648
    61  H    0.189443
    62  O   -0.578005
    63  N   -0.602697
    64  H    0.365479
    65  C   -0.068251
    66  H    0.173114
    67  C    0.625320
    68  C   -0.361196
    69  H    0.165305
    70  H    0.168217
    71  O   -0.545483
    72  C    0.184081
    73  C   -0.185875
    74  H    0.125759
    75  C   -0.199703
    76  H    0.131872
    77  C   -0.163140
    78  H    0.132747
    79  C   -0.172151
    80  H    0.142271
    81  O   -0.654152
    82  H    0.418450
    83  C    0.359598
    84  N   -0.608822
    85  H    0.364119
    86  C   -0.041488
    87  H    0.193646
    88  C    0.648056
    89  C   -0.387547
    90  H    0.214604
    91  H    0.193998
    92  O   -0.553681
    93  C    0.592063
    94  O   -0.483431
    95  O   -0.596382
    96  N   -0.626865
    97  H    0.354881
    98  C   -0.066259
    99  H    0.172639
   100  C    0.603485
   101  C   -0.267763
   102  H    0.155403
   103  H    0.166610
   104  O   -0.611141
   105  C   -0.284567
   106  H    0.153614
   107  H    0.154312
   108  C   -0.270830
   109  H    0.152687
   110  H    0.142125
   111  C   -0.155837
   112  H    0.143057
   113  H    0.179880
   114  N   -0.775633
   115  H    0.331330
   116  H    0.477153
   117  H    0.331782
   118  O   -0.480549
   119  H    0.441084
 Sum of Mulliken charges =   1.00000

 Dipole moment (field-independent basis, Debye):
    X=              3.4518    Y=            -12.3612    Z=            -22.4308  Tot=             25.8429
 Quadrupole moment (field-independent basis, Debye-Ang):
   XX=           -241.8290   YY=           -270.8526   ZZ=           -263.8047
   XY=             13.3015   XZ=            -25.9617   YZ=             90.3003

 Normal termination of Gaussian 16 at Sun Jun 19 13:59:03 2022.
