 Gaussian 16, Revision C.01,
 Gaussian 16:  ES64L-G16RevC.01  3-Jul-2019

 ----------------------------------------------------------------------
 # B3LYP/6-31G* empiricaldispersion=gd3 guess=read geom=check nosymm in
 tegral(ultrafinegrid)
 ----------------------------------------------------------------------

 ------------------------------------------------------
 Candidate Structure: Conf:879 Charge calc in gas phase
 ------------------------------------------------------
 Structure from the checkpoint file:  "conf-879.chk"
 Charge =  1 Multiplicity = 1

                          Input orientation:
 ---------------------------------------------------------------------
 Center     Atomic      Atomic             Coordinates (Angstroms)
 Number     Number       Type             X           Y           Z
 ---------------------------------------------------------------------
      1          7           0       -3.707488   -2.599601   -9.723959
      2          1           0       -3.597698   -2.434723  -10.726382
      3          1           0       -2.807274   -2.438653   -9.200269
      4          1           0       -4.001331   -3.584768   -9.545635
      5          6           0       -4.686695   -1.680538   -9.038582
      6          1           0       -4.932758   -0.862199   -9.720615
      7          6           0       -3.888225   -1.148376   -7.820838
      8          6           0       -5.958297   -2.483612   -8.635972
      9          1           0       -6.549720   -2.680163   -9.536487
     10          1           0       -6.571157   -1.850305   -7.986397
     11          8           0       -2.713330   -1.513661   -7.680517
     12          6           0       -5.597097   -3.780620   -7.993722
     13          6           0       -5.506272   -5.053868   -8.537288
     14          1           0       -5.858306   -5.384799   -9.508036
     15          7           0       -5.078832   -3.897117   -6.720779
     16          1           0       -4.935699   -3.150422   -6.024706
     17          6           0       -4.728857   -5.204230   -6.555851
     18          1           0       -4.301403   -5.566717   -5.630989
     19          7           0       -4.970236   -5.932545   -7.628948
     20          7           0       -4.547999   -0.363849   -6.972346
     21          1           0       -5.445415    0.048560   -7.205324
     22          6           0       -3.948805    0.106380   -5.725365
     23          1           0       -3.093673    0.752513   -5.952582
     24          6           0       -3.521457   -1.107761   -4.879897
     25          6           0       -5.016078    0.900598   -4.943263
     26          1           0       -5.735767    0.172200   -4.539390
     27          8           0       -4.266470   -2.094704   -4.778234
     28          6           0       -4.398342    1.716202   -3.813472
     29          1           0       -3.863153    1.079332   -3.100840
     30          1           0       -5.182582    2.251064   -3.265898
     31          1           0       -3.701503    2.454837   -4.225104
     32          8           0       -5.661466    1.723431   -5.925122
     33          1           0       -6.349803    2.241557   -5.479691
     34          7           0       -2.356809   -0.963290   -4.254453
     35          1           0       -1.801162   -0.133138   -4.450611
     36          6           0       -1.800543   -1.921962   -3.317908
     37          1           0       -2.478512   -2.779497   -3.300599
     38          6           0       -1.786126   -1.259448   -1.918343
     39          6           0       -0.383383   -2.352811   -3.773494
     40          1           0       -0.076293   -3.231004   -3.191175
     41          1           0        0.329555   -1.562415   -3.513041
     42          8           0       -2.274199   -0.150288   -1.732407
     43          6           0       -0.268608   -2.697001   -5.269908
     44          1           0       -0.563279   -1.809278   -5.847000
     45          6           0        1.192639   -3.023441   -5.609223
     46          1           0        1.531359   -3.915993   -5.068918
     47          1           0        1.860368   -2.198749   -5.331960
     48          1           0        1.315430   -3.217662   -6.681194
     49          6           0       -1.204390   -3.842282   -5.681845
     50          1           0       -0.977807   -4.753484   -5.112852
     51          1           0       -1.082216   -4.078186   -6.745514
     52          1           0       -2.256297   -3.588710   -5.519733
     53          7           0       -1.195848   -1.996203   -0.929588
     54          1           0       -0.610952   -2.758316   -1.252606
     55          6           0       -0.610439   -1.309784    0.219895
     56          1           0       -1.240501   -0.442456    0.429901
     57          6           0        0.804758   -0.839545   -0.191235
     58          6           0       -0.545439   -2.236237    1.438993
     59          1           0       -0.107317   -1.716212    2.296834
     60          1           0        0.077392   -3.112621    1.225036
     61          1           0       -1.548393   -2.578122    1.709789
     62          8           0        1.396307   -1.371146   -1.130062
     63          7           0        1.325429    0.163795    0.550663
     64          1           0        0.863754    0.502099    1.388085
     65          6           0        2.657316    0.688809    0.324756
     66          1           0        3.237391   -0.085527   -0.185982
     67          6           0        3.258727    1.039103    1.689508
     68          6           0        2.637937    1.981069   -0.551988
     69          1           0        2.211582    2.789794    0.050684
     70          1           0        3.673501    2.270321   -0.761069
     71          8           0        2.538721    1.271387    2.655945
     72          6           0        1.850363    1.798459   -1.826104
     73          6           0        0.487571    2.119173   -1.865487
     74          1           0        0.013043    2.543289   -0.985300
     75          6           0        2.429790    1.239743   -2.970747
     76          1           0        3.482919    0.971134   -2.964332
     77          6           0       -0.282831    1.887643   -3.001730
     78          1           0       -1.343006    2.112738   -3.013720
     79          6           0        1.675834    1.001211   -4.119985
     80          1           0        2.139521    0.559832   -5.000361
     81          8           0       -0.503600    1.070509   -5.217967
     82          1           0        0.019499    0.649286   -5.918582
     83          6           0        0.318521    1.324036   -4.123774
     84          7           0        4.617093    1.095135    1.716867
     85          1           0        5.135125    1.001597    0.849385
     86          6           0        5.312915    1.839281    2.751028
     87          1           0        4.667955    1.822015    3.634813
     88          6           0        5.408944    3.323664    2.283128
     89          6           0        6.659573    1.158323    3.080478
     90          1           0        6.484511    0.080930    3.154314
     91          1           0        7.057817    1.499967    4.039076
     92          8           0        4.512688    3.802372    1.594802
     93          6           0        7.647310    1.448147    1.962483
     94          8           0        7.381175    1.315533    0.783435
     95          8           0        8.789616    1.976442    2.428698
     96          7           0        6.495593    4.045011    2.685732
     97          1           0        7.287795    3.582662    3.112911
     98          6           0        6.772544    5.349236    2.109082
     99          1           0        5.933615    5.555556    1.447048
    100          6           0        8.033249    5.336217    1.231995
    101          6           0        6.856040    6.447640    3.195985
    102          1           0        7.438725    7.297573    2.824406
    103          1           0        7.418758    6.035862    4.042425
    104          8           0        8.146303    6.412592    0.458904
    105          6           0        5.467017    6.922012    3.652773
    106          1           0        4.783781    6.062563    3.673650
    107          1           0        5.533175    7.285351    4.685534
    108          6           0        4.845873    8.050585    2.808895
    109          1           0        3.874048    8.301103    3.252223
    110          1           0        5.460110    8.958861    2.906519
    111          6           0        4.606783    7.778805    1.315032
    112          1           0        3.816826    8.454925    0.957199
    113          1           0        4.241614    6.755673    1.168481
    114          7           0        5.839017    7.951222    0.496541
    115          1           0        6.167595    8.912630    0.600172
    116          1           0        5.595375    7.854107   -0.490269
    117          1           0        7.314761    6.981510    0.532361
    118          8           0        8.872188    4.455936    1.245177
    119          1           0        9.208298    2.496219    1.707938
 ---------------------------------------------------------------------

 SCF Done:  E(RB3LYP) =  -2933.88881069     A.U. after    2 cycles

 Alpha  occ. eigenvalues --  -19.26989 -19.26939 -19.25382 -19.24438 -19.21963
 Alpha  occ. eigenvalues --  -19.21755 -19.19718 -19.19260 -19.18138 -19.17784
 Alpha  occ. eigenvalues --  -19.17565 -19.17556 -14.58724 -14.49681 -14.47518
 Alpha  occ. eigenvalues --  -14.45038 -14.42448 -14.42126 -14.41907 -14.41547
 Alpha  occ. eigenvalues --  -14.41113 -14.40420 -10.43541 -10.40645 -10.38858
 Alpha  occ. eigenvalues --  -10.37938 -10.36346 -10.36073 -10.35074 -10.34639
 Alpha  occ. eigenvalues --  -10.34583 -10.34553 -10.34548 -10.34251 -10.33062
 Alpha  occ. eigenvalues --  -10.32828 -10.31947 -10.31199 -10.30331 -10.30239
 Alpha  occ. eigenvalues --  -10.29709 -10.29300 -10.28664 -10.27938 -10.26650
 Alpha  occ. eigenvalues --  -10.26383 -10.26051 -10.25979 -10.25958 -10.25529
 Alpha  occ. eigenvalues --  -10.25353 -10.25236 -10.25180 -10.25020 -10.24844
 Alpha  occ. eigenvalues --  -10.24684 -10.24667 -10.24507 -10.24281 -10.23989
 Alpha  occ. eigenvalues --   -1.19237  -1.15747  -1.14166  -1.13784  -1.13644
 Alpha  occ. eigenvalues --   -1.13078  -1.12607  -1.11092  -1.10613  -1.10189
 Alpha  occ. eigenvalues --   -1.09523  -1.08884  -1.07111  -1.06081  -1.05594
 Alpha  occ. eigenvalues --   -1.02140  -0.99335  -0.98647  -0.98581  -0.98442
 Alpha  occ. eigenvalues --   -0.96513  -0.96461  -0.93396  -0.91950  -0.89659
 Alpha  occ. eigenvalues --   -0.88063  -0.86638  -0.85664  -0.85544  -0.84586
 Alpha  occ. eigenvalues --   -0.83874  -0.81946  -0.81395  -0.80776  -0.80445
 Alpha  occ. eigenvalues --   -0.79406  -0.78581  -0.75789  -0.75467  -0.74526
 Alpha  occ. eigenvalues --   -0.74260  -0.73861  -0.72907  -0.72348  -0.71598
 Alpha  occ. eigenvalues --   -0.70562  -0.70288  -0.70042  -0.69108  -0.68660
 Alpha  occ. eigenvalues --   -0.68635  -0.67964  -0.66863  -0.66378  -0.65549
 Alpha  occ. eigenvalues --   -0.65253  -0.65011  -0.64690  -0.64457  -0.64409
 Alpha  occ. eigenvalues --   -0.64005  -0.63805  -0.63764  -0.63209  -0.61519
 Alpha  occ. eigenvalues --   -0.61443  -0.60945  -0.60408  -0.59396  -0.58974
 Alpha  occ. eigenvalues --   -0.57905  -0.56742  -0.56604  -0.56455  -0.56263
 Alpha  occ. eigenvalues --   -0.56050  -0.55575  -0.55560  -0.54876  -0.54819
 Alpha  occ. eigenvalues --   -0.54342  -0.54101  -0.53819  -0.53614  -0.53390
 Alpha  occ. eigenvalues --   -0.53142  -0.52825  -0.52568  -0.52341  -0.52162
 Alpha  occ. eigenvalues --   -0.51675  -0.51346  -0.51173  -0.50921  -0.50765
 Alpha  occ. eigenvalues --   -0.50622  -0.50243  -0.50060  -0.50009  -0.49986
 Alpha  occ. eigenvalues --   -0.49724  -0.49656  -0.49539  -0.48931  -0.48754
 Alpha  occ. eigenvalues --   -0.48388  -0.48107  -0.48037  -0.47947  -0.47706
 Alpha  occ. eigenvalues --   -0.47453  -0.47417  -0.47130  -0.46980  -0.46483
 Alpha  occ. eigenvalues --   -0.46030  -0.45827  -0.45673  -0.45499  -0.45426
 Alpha  occ. eigenvalues --   -0.45045  -0.44767  -0.44509  -0.44457  -0.43855
 Alpha  occ. eigenvalues --   -0.43614  -0.43371  -0.43249  -0.42640  -0.42574
 Alpha  occ. eigenvalues --   -0.42506  -0.42150  -0.41525  -0.41418  -0.41165
 Alpha  occ. eigenvalues --   -0.40774  -0.40294  -0.40114  -0.39957  -0.39829
 Alpha  occ. eigenvalues --   -0.39500  -0.39416  -0.39154  -0.39094  -0.38623
 Alpha  occ. eigenvalues --   -0.37680  -0.37500  -0.37239  -0.36185  -0.35580
 Alpha  occ. eigenvalues --   -0.35323  -0.34920  -0.33837  -0.33735  -0.33374
 Alpha  occ. eigenvalues --   -0.33168  -0.32900  -0.32622  -0.32442  -0.31987
 Alpha  occ. eigenvalues --   -0.31472  -0.31187  -0.30969  -0.30891  -0.30271
 Alpha  occ. eigenvalues --   -0.28671
 Alpha virt. eigenvalues --   -0.12688  -0.09753  -0.08286  -0.07426  -0.06884
 Alpha virt. eigenvalues --   -0.06148  -0.05442  -0.05372  -0.05295  -0.04406
 Alpha virt. eigenvalues --   -0.03619  -0.03497  -0.03427  -0.03264  -0.02593

 Mulliken charges:
               1
     1  N   -0.756062
     2  H    0.408788
     3  H    0.430590
     4  H    0.400681
     5  C   -0.114257
     6  H    0.219754
     7  C    0.660482
     8  C   -0.375090
     9  H    0.198923
    10  H    0.201659
    11  O   -0.537018
    12  C    0.257911
    13  C   -0.100970
    14  H    0.156731
    15  N   -0.614457
    16  H    0.413161
    17  C    0.213685
    18  H    0.186506
    19  N   -0.400596
    20  N   -0.612326
    21  H    0.369654
    22  C   -0.041315
    23  H    0.194051
    24  C    0.649057
    25  C    0.104835
    26  H    0.158436
    27  O   -0.586101
    28  C   -0.510963
    29  H    0.221093
    30  H    0.158218
    31  H    0.168548
    32  O   -0.650974
    33  H    0.415689
    34  N   -0.596327
    35  H    0.413847
    36  C   -0.100333
    37  H    0.198678
    38  C    0.629967
    39  C   -0.304495
    40  H    0.146295
    41  H    0.194226
    42  O   -0.515886
    43  C   -0.076806
    44  H    0.114802
    45  C   -0.447891
    46  H    0.155856
    47  H    0.146532
    48  H    0.139611
    49  C   -0.455787
    50  H    0.145523
    51  H    0.130548
    52  H    0.150815
    53  N   -0.571286
    54  H    0.339728
    55  C   -0.089776
    56  H    0.188832
    57  C    0.635209
    58  C   -0.453892
    59  H    0.168883
    60  H    0.160632
    61  H    0.175015
    62  O   -0.543611
    63  N   -0.608611
    64  H    0.350534
    65  C   -0.065310
    66  H    0.183994
    67  C    0.640304
    68  C   -0.363810
    69  H    0.177047
    70  H    0.166173
    71  O   -0.532830
    72  C    0.185255
    73  C   -0.189384
    74  H    0.138754
    75  C   -0.164587
    76  H    0.140713
    77  C   -0.147493
    78  H    0.151580
    79  C   -0.188910
    80  H    0.129666
    81  O   -0.685472
    82  H    0.421286
    83  C    0.321745
    84  N   -0.594990
    85  H    0.357823
    86  C   -0.084963
    87  H    0.215864
    88  C    0.623599
    89  C   -0.382501
    90  H    0.205365
    91  H    0.182821
    92  O   -0.525237
    93  C    0.581159
    94  O   -0.467742
    95  O   -0.568778
    96  N   -0.609414
    97  H    0.353325
    98  C   -0.108949
    99  H    0.203366
   100  C    0.616835
   101  C   -0.259780
   102  H    0.151108
   103  H    0.152380
   104  O   -0.606290
   105  C   -0.272278
   106  H    0.160825
   107  H    0.147624
   108  C   -0.265895
   109  H    0.153841
   110  H    0.136809
   111  C   -0.161029
   112  H    0.142275
   113  H    0.185413
   114  N   -0.774103
   115  H    0.327950
   116  H    0.332354
   117  H    0.472270
   118  O   -0.500650
   119  H    0.451715
 Sum of Mulliken charges =   1.00000

 Dipole moment (field-independent basis, Debye):
    X=            -11.8990    Y=              3.4958    Z=            -29.5356  Tot=             32.0337
 Quadrupole moment (field-independent basis, Debye-Ang):
   XX=           -267.2910   YY=           -271.3944   ZZ=            -20.8214
   XY=             38.4041   XZ=            160.0637   YZ=             55.6571

 Normal termination of Gaussian 16 at Sun Jun 19 13:58:30 2022.
