 Gaussian 16, Revision C.01,
 Gaussian 16:  ES64L-G16RevC.01  3-Jul-2019

 ----------------------------------------------------------------------
 # B3LYP/6-31G* empiricaldispersion=gd3 guess=read geom=check nosymm in
 tegral(ultrafinegrid)
 ----------------------------------------------------------------------

 -----------------------------------------------------
 Candidate Structure: Conf:34 Charge calc in gas phase
 -----------------------------------------------------
 Structure from the checkpoint file:  "conf-34.chk"
 Charge =  1 Multiplicity = 1

                          Input orientation:
 ---------------------------------------------------------------------
 Center     Atomic      Atomic             Coordinates (Angstroms)
 Number     Number       Type             X           Y           Z
 ---------------------------------------------------------------------
      1          7           0       -6.633936   -2.228881   -5.766762
      2          1           0       -7.598863   -2.365665   -5.451526
      3          1           0       -6.235408   -1.425300   -5.232514
      4          1           0       -6.627279   -2.070609   -6.792345
      5          6           0       -5.738984   -3.395795   -5.439892
      6          1           0       -6.353970   -4.297980   -5.428929
      7          6           0       -5.130671   -3.043986   -4.066562
      8          6           0       -4.588785   -3.508990   -6.485203
      9          1           0       -4.198148   -4.530397   -6.409711
     10          1           0       -3.774389   -2.847584   -6.177063
     11          8           0       -5.174989   -1.855670   -3.711323
     12          6           0       -5.007818   -3.166307   -7.881240
     13          6           0       -6.113917   -3.493727   -8.646837
     14          1           0       -6.936703   -4.148400   -8.382889
     15          7           0       -4.255934   -2.340570   -8.699592
     16          1           0       -3.358436   -1.932169   -8.468778
     17          6           0       -4.916703   -2.232852   -9.890515
     18          1           0       -4.531522   -1.648199  -10.715050
     19          7           0       -6.046446   -2.906944   -9.886133
     20          7           0       -4.498423   -4.026159   -3.428494
     21          1           0       -4.712400   -4.994949   -3.652804
     22          6           0       -3.779926   -3.852091   -2.152974
     23          1           0       -4.396121   -3.216832   -1.503325
     24          6           0       -2.403543   -3.167774   -2.381538
     25          6           0       -3.586857   -5.257073   -1.525144
     26          1           0       -2.766031   -5.742576   -2.058983
     27          8           0       -1.353489   -3.786410   -2.206917
     28          6           0       -3.249341   -5.170806   -0.043513
     29          1           0       -2.327513   -4.601526    0.103546
     30          1           0       -3.105105   -6.176109    0.361277
     31          1           0       -4.056679   -4.680232    0.517139
     32          8           0       -4.734494   -6.069305   -1.787747
     33          1           0       -5.409535   -5.877023   -1.116039
     34          7           0       -2.455990   -1.882028   -2.785756
     35          1           0       -3.357009   -1.421500   -2.849332
     36          6           0       -1.247958   -1.101374   -3.082270
     37          1           0       -0.494865   -1.813702   -3.429824
     38          6           0       -0.727258   -0.459133   -1.778035
     39          6           0       -1.516600   -0.053274   -4.159741
     40          1           0       -0.564900    0.448000   -4.362741
     41          1           0       -2.179135    0.717894   -3.749310
     42          8           0       -0.861629    0.741818   -1.542895
     43          6           0       -2.103322   -0.611541   -5.472281
     44          1           0       -3.134954   -0.938178   -5.260291
     45          6           0       -2.168077    0.505704   -6.523282
     46          1           0       -1.155158    0.806590   -6.811987
     47          1           0       -2.691207    1.390412   -6.143719
     48          1           0       -2.689155    0.174189   -7.432707
     49          6           0       -1.307573   -1.810420   -6.013783
     50          1           0       -0.259574   -1.538341   -6.170626
     51          1           0       -1.691654   -2.136620   -6.991719
     52          1           0       -1.348033   -2.676719   -5.343780
     53          7           0       -0.147968   -1.338561   -0.928270
     54          1           0       -0.071474   -2.308449   -1.217711
     55          6           0        0.358966   -0.965672    0.397782
     56          1           0       -0.305330   -0.195428    0.803244
     57          6           0        1.763497   -0.339881    0.269844
     58          6           0        0.381060   -2.186681    1.309024
     59          1           0        0.769661   -1.909360    2.290619
     60          1           0        1.045977   -2.958873    0.909851
     61          1           0       -0.628338   -2.596977    1.420922
     62          8           0        2.768300   -0.885828    0.737071
     63          7           0        1.790367    0.826599   -0.407494
     64          1           0        0.905974    1.227882   -0.711386
     65          6           0        3.024050    1.566560   -0.669115
     66          1           0        3.820162    0.826985   -0.811834
     67          6           0        3.352599    2.410444    0.582679
     68          6           0        2.870906    2.454348   -1.901053
     69          1           0        2.155240    3.249512   -1.661859
     70          1           0        3.825700    2.974184   -2.049474
     71          8           0        3.204963    3.629388    0.616935
     72          6           0        2.461720    1.755745   -3.184887
     73          6           0        2.558606    0.372037   -3.389646
     74          1           0        2.905135   -0.275155   -2.590440
     75          6           0        1.998394    2.538746   -4.250848
     76          1           0        1.903366    3.613733   -4.118344
     77          6           0        2.223715   -0.208138   -4.614909
     78          1           0        2.321795   -1.277901   -4.773756
     79          6           0        1.664186    1.977342   -5.481558
     80          1           0        1.310746    2.609868   -6.293962
     81          8           0        1.456750   -0.019512   -6.854338
     82          1           0        1.364522    0.655849   -7.544353
     83          6           0        1.787815    0.598199   -5.667437
     84          7           0        3.754372    1.672765    1.649030
     85          1           0        3.742724    0.661112    1.532727
     86          6           0        3.634369    2.204479    3.007166
     87          1           0        2.862459    2.982605    2.976338
     88          6           0        4.953639    2.854272    3.477541
     89          6           0        3.212206    1.095141    3.964995
     90          1           0        3.257598    1.456772    4.997119
     91          1           0        3.917124    0.256271    3.933176
     92          8           0        5.556239    2.457046    4.476138
     93          6           0        1.819852    0.576699    3.689649
     94          8           0        1.040506    0.992250    2.855787
     95          8           0        1.509214   -0.447328    4.521951
     96          7           0        5.376581    3.879976    2.709193
     97          1           0        4.836268    4.202974    1.906523
     98          6           0        6.617068    4.564427    3.014642
     99          1           0        6.583550    4.887216    4.062777
    100          6           0        6.704147    5.817800    2.136407
    101          6           0        7.881097    3.658675    2.822804
    102          1           0        8.577747    4.154125    2.137071
    103          1           0        7.547520    2.756056    2.304579
    104          8           0        7.658434    6.680695    2.488926
    105          6           0        8.602115    3.287692    4.140635
    106          1           0        8.030169    3.686984    4.984659
    107          1           0        8.576351    2.202549    4.283263
    108          6           0       10.068127    3.748770    4.241458
    109          1           0       10.430871    3.518646    5.253285
    110          1           0       10.694524    3.164174    3.554845
    111          6           0       10.331209    5.232182    3.944560
    112          1           0       10.284558    5.422139    2.865934
    113          1           0       11.352850    5.480064    4.265703
    114          7           0        9.322856    6.118112    4.573506
    115          1           0        9.698149    7.061164    4.670188
    116          1           0        9.102918    5.799063    5.516093
    117          1           0        8.129759    6.407652    3.338925
    118          8           0        5.984205    5.999617    1.177738
    119          1           0        0.584627   -0.689765    4.328387
 ---------------------------------------------------------------------

 SCF Done:  E(RB3LYP) =  -2933.85235757     A.U. after    2 cycles

 Alpha  occ. eigenvalues --  -19.29356 -19.26899 -19.25251 -19.25060 -19.23118
 Alpha  occ. eigenvalues --  -19.19828 -19.19624 -19.19127 -19.17917 -19.16380
 Alpha  occ. eigenvalues --  -19.14786 -19.14519 -14.61776 -14.52351 -14.52161
 Alpha  occ. eigenvalues --  -14.46941 -14.43810 -14.43609 -14.41504 -14.39825
 Alpha  occ. eigenvalues --  -14.38877 -14.38022 -10.46156 -10.43257 -10.40385
 Alpha  occ. eigenvalues --  -10.37704 -10.36839 -10.36780 -10.36441 -10.36357
 Alpha  occ. eigenvalues --  -10.36243 -10.35602 -10.34689 -10.33416 -10.33211
 Alpha  occ. eigenvalues --  -10.33081 -10.32308 -10.31520 -10.31493 -10.30092
 Alpha  occ. eigenvalues --  -10.29107 -10.28797 -10.28139 -10.27627 -10.27117
 Alpha  occ. eigenvalues --  -10.27088 -10.26958 -10.26237 -10.25882 -10.25601
 Alpha  occ. eigenvalues --  -10.25500 -10.25348 -10.25281 -10.25176 -10.25003
 Alpha  occ. eigenvalues --  -10.24968 -10.24473 -10.22543 -10.22055 -10.21478
 Alpha  occ. eigenvalues --   -1.21591  -1.16245  -1.15976  -1.15106  -1.14250
 Alpha  occ. eigenvalues --   -1.14158  -1.12887  -1.11624  -1.10605  -1.09637
 Alpha  occ. eigenvalues --   -1.08481  -1.08093  -1.06918  -1.06214  -1.03369
 Alpha  occ. eigenvalues --   -1.02614  -1.00224  -0.99959  -0.98379  -0.96789
 Alpha  occ. eigenvalues --   -0.96231  -0.94799  -0.94460  -0.91685  -0.91244
 Alpha  occ. eigenvalues --   -0.90340  -0.88112  -0.86020  -0.84743  -0.83688
 Alpha  occ. eigenvalues --   -0.83246  -0.82923  -0.82376  -0.81204  -0.81084
 Alpha  occ. eigenvalues --   -0.79258  -0.78571  -0.78077  -0.76474  -0.76056
 Alpha  occ. eigenvalues --   -0.75328  -0.74576  -0.74465  -0.74117  -0.72796
 Alpha  occ. eigenvalues --   -0.72581  -0.71945  -0.71791  -0.70319  -0.69715
 Alpha  occ. eigenvalues --   -0.68363  -0.68004  -0.67277  -0.67008  -0.66515
 Alpha  occ. eigenvalues --   -0.66032  -0.65405  -0.65296  -0.64859  -0.64475
 Alpha  occ. eigenvalues --   -0.63426  -0.62735  -0.62346  -0.62202  -0.61035
 Alpha  occ. eigenvalues --   -0.60821  -0.60793  -0.60413  -0.60153  -0.59008
 Alpha  occ. eigenvalues --   -0.58704  -0.58250  -0.58218  -0.57594  -0.57191
 Alpha  occ. eigenvalues --   -0.56486  -0.56148  -0.56057  -0.55366  -0.55313
 Alpha  occ. eigenvalues --   -0.55311  -0.54897  -0.54814  -0.54686  -0.54040
 Alpha  occ. eigenvalues --   -0.53985  -0.53683  -0.53507  -0.53272  -0.53082
 Alpha  occ. eigenvalues --   -0.52884  -0.52513  -0.52259  -0.51459  -0.51290
 Alpha  occ. eigenvalues --   -0.50999  -0.50825  -0.50469  -0.50035  -0.49444
 Alpha  occ. eigenvalues --   -0.49314  -0.49164  -0.48650  -0.48491  -0.48345
 Alpha  occ. eigenvalues --   -0.48288  -0.47992  -0.47884  -0.47832  -0.47293
 Alpha  occ. eigenvalues --   -0.47245  -0.46962  -0.46454  -0.46188  -0.45880
 Alpha  occ. eigenvalues --   -0.45708  -0.45663  -0.45468  -0.45141  -0.44826
 Alpha  occ. eigenvalues --   -0.44625  -0.44175  -0.44070  -0.43889  -0.43778
 Alpha  occ. eigenvalues --   -0.43346  -0.42971  -0.42753  -0.42511  -0.42427
 Alpha  occ. eigenvalues --   -0.42182  -0.42042  -0.41956  -0.41682  -0.41538
 Alpha  occ. eigenvalues --   -0.41388  -0.40920  -0.40760  -0.40342  -0.39697
 Alpha  occ. eigenvalues --   -0.39653  -0.38908  -0.38798  -0.38757  -0.38746
 Alpha  occ. eigenvalues --   -0.37743  -0.37370  -0.37140  -0.36467  -0.36313
 Alpha  occ. eigenvalues --   -0.36124  -0.35926  -0.35034  -0.33416  -0.33153
 Alpha  occ. eigenvalues --   -0.32859  -0.32337  -0.31614  -0.31338  -0.31193
 Alpha  occ. eigenvalues --   -0.30681  -0.29187  -0.28508  -0.28266  -0.27982
 Alpha  occ. eigenvalues --   -0.27240
 Alpha virt. eigenvalues --   -0.15164  -0.12318  -0.10707  -0.10256  -0.08147
 Alpha virt. eigenvalues --   -0.07168  -0.06888  -0.06242  -0.05499  -0.05456
 Alpha virt. eigenvalues --   -0.05004  -0.04811  -0.04304  -0.03849  -0.03551

 Mulliken charges:
               1
     1  N   -0.740765
     2  H    0.419462
     3  H    0.429365
     4  H    0.409948
     5  C   -0.120735
     6  H    0.220072
     7  C    0.655361
     8  C   -0.382789
     9  H    0.220104
    10  H    0.222056
    11  O   -0.550295
    12  C    0.261592
    13  C   -0.092444
    14  H    0.156775
    15  N   -0.606587
    16  H    0.374026
    17  C    0.223725
    18  H    0.200344
    19  N   -0.388586
    20  N   -0.595421
    21  H    0.372071
    22  C   -0.088476
    23  H    0.185058
    24  C    0.643066
    25  C    0.111968
    26  H    0.194001
    27  O   -0.529805
    28  C   -0.492669
    29  H    0.192912
    30  H    0.191780
    31  H    0.145404
    32  O   -0.635596
    33  H    0.403771
    34  N   -0.618255
    35  H    0.373819
    36  C   -0.082630
    37  H    0.190251
    38  C    0.650259
    39  C   -0.297929
    40  H    0.195907
    41  H    0.162624
    42  O   -0.540351
    43  C   -0.084660
    44  H    0.089233
    45  C   -0.447571
    46  H    0.160922
    47  H    0.159821
    48  H    0.105106
    49  C   -0.486843
    50  H    0.213397
    51  H    0.103032
    52  H    0.151907
    53  N   -0.618244
    54  H    0.364402
    55  C   -0.064011
    56  H    0.201378
    57  C    0.661273
    58  C   -0.470605
    59  H    0.169945
    60  H    0.173330
    61  H    0.139586
    62  O   -0.563561
    63  N   -0.608048
    64  H    0.382692
    65  C   -0.093649
    66  H    0.178994
    67  C    0.652310
    68  C   -0.372481
    69  H    0.184846
    70  H    0.189645
    71  O   -0.528320
    72  C    0.163856
    73  C   -0.185307
    74  H    0.148185
    75  C   -0.180979
    76  H    0.146882
    77  C   -0.188004
    78  H    0.141666
    79  C   -0.197309
    80  H    0.127063
    81  O   -0.657994
    82  H    0.411781
    83  C    0.347324
    84  N   -0.620227
    85  H    0.372729
    86  C   -0.060172
    87  H    0.195810
    88  C    0.634271
    89  C   -0.390207
    90  H    0.216004
    91  H    0.203040
    92  O   -0.544365
    93  C    0.600942
    94  O   -0.479480
    95  O   -0.565960
    96  N   -0.647687
    97  H    0.388964
    98  C   -0.031552
    99  H    0.166893
   100  C    0.576620
   101  C   -0.286895
   102  H    0.153375
   103  H    0.162969
   104  O   -0.625679
   105  C   -0.250233
   106  H    0.148902
   107  H    0.154737
   108  C   -0.293777
   109  H    0.139528
   110  H    0.148393
   111  C   -0.134972
   112  H    0.162068
   113  H    0.145432
   114  N   -0.779785
   115  H    0.333267
   116  H    0.326379
   117  H    0.475634
   118  O   -0.466677
   119  H    0.408330
 Sum of Mulliken charges =   1.00000

 Dipole moment (field-independent basis, Debye):
    X=            -22.2993    Y=            -14.3662    Z=            -21.5497  Tot=             34.1765
 Quadrupole moment (field-independent basis, Debye-Ang):
   XX=           -131.5024   YY=           -319.9306   ZZ=           -166.6497
   XY=            100.0218   XZ=            151.7656   YZ=             62.3991

 Normal termination of Gaussian 16 at Sun Jun 19 13:58:43 2022.
