 Gaussian 16, Revision C.01,
 Gaussian 16:  ES64L-G16RevC.01  3-Jul-2019

 ----------------------------------------------------------------------
 # B3LYP/6-31G* empiricaldispersion=gd3 guess=read geom=check nosymm in
 tegral(ultrafinegrid)
 ----------------------------------------------------------------------

 ------------------------------------------------------
 Candidate Structure: Conf:448 Charge calc in gas phase
 ------------------------------------------------------
 Structure from the checkpoint file:  "conf-448.chk"
 Charge =  1 Multiplicity = 1

                          Input orientation:
 ---------------------------------------------------------------------
 Center     Atomic      Atomic             Coordinates (Angstroms)
 Number     Number       Type             X           Y           Z
 ---------------------------------------------------------------------
      1          7           0       -5.594393   -1.441536   -6.764799
      2          1           0       -6.425837   -1.082219   -7.240711
      3          1           0       -5.136825   -0.649309   -6.245405
      4          1           0       -4.958182   -1.867290   -7.466942
      5          6           0       -5.910156   -2.438494   -5.681407
      6          1           0       -6.914053   -2.831720   -5.852320
      7          6           0       -5.781647   -1.625262   -4.374984
      8          6           0       -4.842318   -3.584687   -5.679144
      9          1           0       -5.228663   -4.390420   -5.046803
     10          1           0       -3.938744   -3.225713   -5.176774
     11          8           0       -5.239713   -0.516128   -4.435909
     12          6           0       -4.497599   -4.056147   -7.049819
     13          6           0       -3.524981   -3.615771   -7.930883
     14          1           0       -2.722818   -2.915368   -7.727682
     15          7           0       -5.226984   -4.982208   -7.775560
     16          1           0       -5.973129   -5.567212   -7.422981
     17          6           0       -4.649434   -5.074916   -9.014768
     18          1           0       -5.015558   -5.754992   -9.772376
     19          7           0       -3.631137   -4.255223   -9.143702
     20          7           0       -6.159439   -2.236211   -3.248709
     21          1           0       -6.427332   -3.219606   -3.278532
     22          6           0       -5.517547   -1.901922   -1.968706
     23          1           0       -5.797589   -0.891196   -1.661918
     24          6           0       -3.997262   -2.056986   -2.171150
     25          6           0       -6.006953   -2.963830   -0.941232
     26          1           0       -5.350431   -2.897899   -0.061520
     27          8           0       -3.569953   -3.128602   -2.634799
     28          6           0       -7.452981   -2.750323   -0.519116
     29          1           0       -7.567546   -1.794551    0.001798
     30          1           0       -7.757318   -3.556603    0.153247
     31          1           0       -8.120226   -2.757596   -1.387511
     32          8           0       -5.914539   -4.254905   -1.541909
     33          1           0       -4.978881   -4.371994   -1.805421
     34          7           0       -3.230400   -1.016259   -1.842418
     35          1           0       -3.619157   -0.178414   -1.416096
     36          6           0       -1.776765   -0.995040   -1.952514
     37          1           0       -1.409457   -2.018125   -1.835468
     38          6           0       -1.283428   -0.094061   -0.803200
     39          6           0       -1.308624   -0.393813   -3.299995
     40          1           0       -0.212707   -0.321541   -3.278160
     41          1           0       -1.690405    0.634584   -3.344855
     42          8           0       -2.037614    0.745639   -0.306004
     43          6           0       -1.741310   -1.158787   -4.564769
     44          1           0       -2.829575   -1.287476   -4.509878
     45          6           0       -1.438006   -0.313925   -5.811245
     46          1           0       -0.362176   -0.125839   -5.910215
     47          1           0       -1.944896    0.657783   -5.772414
     48          1           0       -1.758650   -0.829414   -6.726894
     49          6           0       -1.083480   -2.541874   -4.663362
     50          1           0        0.009740   -2.452359   -4.684023
     51          1           0       -1.382783   -3.054935   -5.586664
     52          1           0       -1.370062   -3.183740   -3.826398
     53          7           0       -0.000168   -0.266797   -0.447781
     54          1           0        0.612632   -0.926748   -0.921143
     55          6           0        0.682145    0.587910    0.511894
     56          1           0        0.423067    1.631936    0.296354
     57          6           0        2.187932    0.372395    0.269998
     58          6           0        0.278847    0.260061    1.959436
     59          1           0        0.777770    0.926888    2.669971
     60          1           0        0.547840   -0.772188    2.205241
     61          1           0       -0.801591    0.385069    2.066016
     62          8           0        2.591168   -0.522230   -0.480430
     63          7           0        3.004565    1.211010    0.931871
     64          1           0        2.661158    1.882241    1.613530
     65          6           0        4.448436    1.067251    0.905838
     66          1           0        4.702064    0.008170    1.030116
     67          6           0        4.979127    1.880599    2.099165
     68          6           0        5.050517    1.554910   -0.450692
     69          1           0        4.369752    1.195609   -1.228161
     70          1           0        5.031737    2.649935   -0.475413
     71          8           0        4.219127    2.578396    2.777808
     72          6           0        6.444392    1.031397   -0.715436
     73          6           0        7.580999    1.850226   -0.612163
     74          1           0        7.478071    2.898382   -0.344923
     75          6           0        6.629707   -0.322874   -1.027985
     76          1           0        5.760283   -0.971381   -1.115318
     77          6           0        8.860932    1.334885   -0.804431
     78          1           0        9.737435    1.968582   -0.717566
     79          6           0        7.903932   -0.849097   -1.229160
     80          1           0        8.028188   -1.902369   -1.473687
     81          8           0       10.302581   -0.468120   -1.294750
     82          1           0       10.286819   -1.414179   -1.507617
     83          6           0        9.027272   -0.019176   -1.116545
     84          7           0        6.311501    1.801831    2.307225
     85          1           0        6.868951    1.332010    1.602178
     86          6           0        7.020396    2.749568    3.176524
     87          1           0        6.464227    2.809804    4.114601
     88          6           0        7.043121    4.104100    2.435521
     89          6           0        8.436583    2.250406    3.433764
     90          1           0        9.004033    3.017737    3.974029
     91          1           0        8.973586    2.100528    2.491636
     92          8           0        7.898228    4.357779    1.586565
     93          6           0        8.455677    0.985505    4.265851
     94          8           0        7.532925    0.558440    4.923202
     95          8           0        9.666730    0.384907    4.208401
     96          7           0        6.008813    4.918926    2.735534
     97          1           0        5.269963    4.583781    3.344890
     98          6           0        5.686635    6.086026    1.933155
     99          1           0        6.587530    6.689959    1.795752
    100          6           0        4.603863    6.861756    2.664740
    101          6           0        5.121522    5.692794    0.530952
    102          1           0        5.762533    4.885597    0.164428
    103          1           0        5.272451    6.539115   -0.146279
    104          8           0        4.289189    8.002193    2.054100
    105          6           0        3.624982    5.275217    0.525308
    106          1           0        3.505837    4.383133   -0.100339
    107          1           0        3.334358    4.947198    1.531150
    108          6           0        2.663684    6.381561   -0.001732
    109          1           0        3.202031    7.329515   -0.095852
    110          1           0        2.339521    6.114153   -1.015839
    111          6           0        1.395890    6.653361    0.822966
    112          1           0        0.847178    5.713125    0.994864
    113          1           0        0.738444    7.298398    0.229323
    114          7           0        1.669779    7.367691    2.093836
    115          1           0        0.831542    7.846677    2.415613
    116          1           0        3.291964    8.128534    2.187051
    117          1           0        1.930866    6.713904    2.831811
    118          8           0        3.985948    6.386854    3.605379
    119          1           0        9.621135   -0.391737    4.797790
 ---------------------------------------------------------------------

 SCF Done:  E(RB3LYP) =  -2933.86037088     A.U. after    1 cycles

 Alpha  occ. eigenvalues --  -19.27748 -19.24928 -19.24149 -19.22721 -19.22700
 Alpha  occ. eigenvalues --  -19.21715 -19.20061 -19.19227 -19.18700 -19.18554
 Alpha  occ. eigenvalues --  -19.18305 -19.16097 -14.60005 -14.51711 -14.49962
 Alpha  occ. eigenvalues --  -14.46718 -14.43863 -14.43073 -14.42781 -14.42330
 Alpha  occ. eigenvalues --  -14.40163 -14.38510 -10.44301 -10.41648 -10.39822
 Alpha  occ. eigenvalues --  -10.37195 -10.36855 -10.36117 -10.36117 -10.36046
 Alpha  occ. eigenvalues --  -10.35465 -10.35451 -10.35413 -10.35152 -10.35090
 Alpha  occ. eigenvalues --  -10.33230 -10.32636 -10.32604 -10.31039 -10.30083
 Alpha  occ. eigenvalues --  -10.30018 -10.29004 -10.28060 -10.27956 -10.27763
 Alpha  occ. eigenvalues --  -10.27233 -10.26909 -10.26452 -10.25481 -10.25425
 Alpha  occ. eigenvalues --  -10.25245 -10.25118 -10.24478 -10.24416 -10.24237
 Alpha  occ. eigenvalues --  -10.23895 -10.23702 -10.23471 -10.23407 -10.23230
 Alpha  occ. eigenvalues --   -1.20125  -1.15054  -1.15051  -1.14353  -1.13881
 Alpha  occ. eigenvalues --   -1.13571  -1.12415  -1.11972  -1.11102  -1.10827
 Alpha  occ. eigenvalues --   -1.10271  -1.07926  -1.06591  -1.06119  -1.05178
 Alpha  occ. eigenvalues --   -1.03060  -1.00573  -0.99549  -0.99414  -0.99035
 Alpha  occ. eigenvalues --   -0.97017  -0.94772  -0.94350  -0.90672  -0.90511
 Alpha  occ. eigenvalues --   -0.89374  -0.87117  -0.86527  -0.85448  -0.84538
 Alpha  occ. eigenvalues --   -0.83727  -0.82735  -0.81566  -0.80104  -0.80024
 Alpha  occ. eigenvalues --   -0.79854  -0.78580  -0.76879  -0.75400  -0.75369
 Alpha  occ. eigenvalues --   -0.74555  -0.74016  -0.73852  -0.73595  -0.73594
 Alpha  occ. eigenvalues --   -0.72696  -0.71464  -0.71137  -0.70264  -0.68881
 Alpha  occ. eigenvalues --   -0.67801  -0.67495  -0.67354  -0.66973  -0.66104
 Alpha  occ. eigenvalues --   -0.66019  -0.65246  -0.65039  -0.64712  -0.63977
 Alpha  occ. eigenvalues --   -0.63866  -0.63538  -0.63357  -0.63054  -0.62224
 Alpha  occ. eigenvalues --   -0.61391  -0.60962  -0.59397  -0.59103  -0.58838
 Alpha  occ. eigenvalues --   -0.58158  -0.57560  -0.57413  -0.56878  -0.56468
 Alpha  occ. eigenvalues --   -0.56276  -0.56101  -0.55708  -0.55299  -0.54704
 Alpha  occ. eigenvalues --   -0.54527  -0.54316  -0.53831  -0.53776  -0.53410
 Alpha  occ. eigenvalues --   -0.53092  -0.52857  -0.52795  -0.52613  -0.52442
 Alpha  occ. eigenvalues --   -0.52264  -0.52109  -0.51952  -0.51715  -0.51522
 Alpha  occ. eigenvalues --   -0.51370  -0.51229  -0.50908  -0.50843  -0.49948
 Alpha  occ. eigenvalues --   -0.49805  -0.49521  -0.49334  -0.48904  -0.48674
 Alpha  occ. eigenvalues --   -0.48418  -0.48142  -0.47958  -0.47903  -0.47485
 Alpha  occ. eigenvalues --   -0.47204  -0.47018  -0.46938  -0.46909  -0.46588
 Alpha  occ. eigenvalues --   -0.46435  -0.45619  -0.45531  -0.45512  -0.45208
 Alpha  occ. eigenvalues --   -0.44839  -0.44503  -0.44290  -0.43949  -0.43841
 Alpha  occ. eigenvalues --   -0.43542  -0.43319  -0.42952  -0.42788  -0.42467
 Alpha  occ. eigenvalues --   -0.42152  -0.41891  -0.41770  -0.41652  -0.41499
 Alpha  occ. eigenvalues --   -0.41404  -0.41348  -0.41077  -0.40434  -0.40417
 Alpha  occ. eigenvalues --   -0.40383  -0.38609  -0.38294  -0.38284  -0.38203
 Alpha  occ. eigenvalues --   -0.37859  -0.37826  -0.37368  -0.36680  -0.36448
 Alpha  occ. eigenvalues --   -0.35806  -0.35610  -0.35252  -0.34173  -0.33967
 Alpha  occ. eigenvalues --   -0.33693  -0.33142  -0.32519  -0.32399  -0.32111
 Alpha  occ. eigenvalues --   -0.31882  -0.31227  -0.30507  -0.29809  -0.28765
 Alpha  occ. eigenvalues --   -0.26879
 Alpha virt. eigenvalues --   -0.13864  -0.11080  -0.09811  -0.09017  -0.07433
 Alpha virt. eigenvalues --   -0.06176  -0.05924  -0.05471  -0.05121  -0.04671
 Alpha virt. eigenvalues --   -0.04532  -0.04203  -0.04014  -0.03825  -0.03149

 Mulliken charges:
               1
     1  N   -0.754237
     2  H    0.415369
     3  H    0.430943
     4  H    0.402450
     5  C   -0.113362
     6  H    0.211201
     7  C    0.653878
     8  C   -0.411936
     9  H    0.202208
    10  H    0.255902
    11  O   -0.523168
    12  C    0.286895
    13  C   -0.109882
    14  H    0.182065
    15  N   -0.602221
    16  H    0.352168
    17  C    0.222717
    18  H    0.198118
    19  N   -0.388136
    20  N   -0.583325
    21  H    0.360676
    22  C   -0.075202
    23  H    0.185310
    24  C    0.643578
    25  C    0.092286
    26  H    0.164350
    27  O   -0.581014
    28  C   -0.450794
    29  H    0.164270
    30  H    0.190746
    31  H    0.153774
    32  O   -0.638903
    33  H    0.421911
    34  N   -0.585254
    35  H    0.363922
    36  C   -0.082645
    37  H    0.185886
    38  C    0.630742
    39  C   -0.254271
    40  H    0.156370
    41  H    0.153567
    42  O   -0.546862
    43  C   -0.086661
    44  H    0.116870
    45  C   -0.458691
    46  H    0.166898
    47  H    0.148378
    48  H    0.123662
    49  C   -0.468312
    50  H    0.154084
    51  H    0.132520
    52  H    0.179434
    53  N   -0.617497
    54  H    0.359231
    55  C   -0.041441
    56  H    0.180885
    57  C    0.622684
    58  C   -0.453965
    59  H    0.165444
    60  H    0.164745
    61  H    0.187064
    62  O   -0.551055
    63  N   -0.627620
    64  H    0.363322
    65  C   -0.044438
    66  H    0.191000
    67  C    0.623234
    68  C   -0.371952
    69  H    0.182666
    70  H    0.168076
    71  O   -0.548738
    72  C    0.117885
    73  C   -0.236935
    74  H    0.183666
    75  C   -0.187478
    76  H    0.150551
    77  C   -0.166506
    78  H    0.161783
    79  C   -0.192615
    80  H    0.127667
    81  O   -0.632805
    82  H    0.411597
    83  C    0.353977
    84  N   -0.600681
    85  H    0.360369
    86  C   -0.049458
    87  H    0.196723
    88  C    0.627266
    89  C   -0.395025
    90  H    0.208237
    91  H    0.205074
    92  O   -0.546438
    93  C    0.584383
    94  O   -0.454148
    95  O   -0.563581
    96  N   -0.599670
    97  H    0.373157
    98  C   -0.041414
    99  H    0.194932
   100  C    0.602308
   101  C   -0.286153
   102  H    0.172586
   103  H    0.163509
   104  O   -0.595340
   105  C   -0.310903
   106  H    0.136188
   107  H    0.161943
   108  C   -0.268472
   109  H    0.167370
   110  H    0.134936
   111  C   -0.142153
   112  H    0.128632
   113  H    0.148193
   114  N   -0.778820
   115  H    0.322676
   116  H    0.444273
   117  H    0.350226
   118  O   -0.495400
   119  H    0.413975
 Sum of Mulliken charges =   1.00000

 Dipole moment (field-independent basis, Debye):
    X=            -22.3546    Y=            -10.3005    Z=            -23.3106  Tot=             33.9000
 Quadrupole moment (field-independent basis, Debye-Ang):
   XX=           -164.5300   YY=           -298.5722   ZZ=           -203.7343
   XY=             38.5761   XZ=            153.2625   YZ=             61.6799

 Normal termination of Gaussian 16 at Sun Jun 19 13:57:32 2022.
