 Gaussian 16, Revision C.01,
 Gaussian 16:  ES64L-G16RevC.01  3-Jul-2019

 ----------------------------------------------------------------------
 # B3LYP/6-31G* empiricaldispersion=gd3 guess=read geom=check nosymm in
 tegral(ultrafinegrid)
 ----------------------------------------------------------------------

 ------------------------------------------------------
 Candidate Structure: Conf:474 Charge calc in gas phase
 ------------------------------------------------------
 Structure from the checkpoint file:  "conf-474.chk"
 Charge =  1 Multiplicity = 1

                          Input orientation:
 ---------------------------------------------------------------------
 Center     Atomic      Atomic             Coordinates (Angstroms)
 Number     Number       Type             X           Y           Z
 ---------------------------------------------------------------------
      1          7           0        0.366631    0.102672   -0.509405
      2          1           0        1.232628    0.571232   -0.802411
      3          1           0        0.207149    0.381877    0.480528
      4          1           0        0.546227   -0.924214   -0.521847
      5          6           0       -0.758985    0.419892   -1.443273
      6          1           0       -1.046991    1.463334   -1.283421
      7          6           0       -1.912730   -0.540059   -1.074231
      8          6           0       -0.249699    0.220654   -2.899467
      9          1           0       -0.039848   -0.844500   -3.042768
     10          1           0        0.713528    0.731665   -2.994248
     11          8           0       -1.827499   -1.279749   -0.092491
     12          6           0       -1.170197    0.738766   -3.960351
     13          6           0       -1.530907    2.022334   -4.317555
     14          1           0       -1.190793    2.952465   -3.878944
     15          7           0       -1.863634   -0.077642   -4.840286
     16          1           0       -1.937394   -1.094170   -4.783170
     17          6           0       -2.593466    0.738593   -5.654453
     18          1           0       -3.227702    0.349559   -6.439773
     19          7           0       -2.414459    2.013611   -5.369302
     20          7           0       -2.933685   -0.570530   -1.957046
     21          1           0       -2.952951    0.119336   -2.698707
     22          6           0       -3.759103   -1.766787   -2.160687
     23          1           0       -4.138445   -2.098401   -1.189792
     24          6           0       -2.796440   -2.801017   -2.806933
     25          6           0       -4.938289   -1.441406   -3.081236
     26          1           0       -4.526332   -1.148812   -4.059638
     27          8           0       -2.532588   -2.752820   -4.008773
     28          6           0       -5.854408   -2.650537   -3.262628
     29          1           0       -5.324840   -3.482195   -3.738916
     30          1           0       -6.700217   -2.385329   -3.906350
     31          1           0       -6.252873   -2.977727   -2.296267
     32          8           0       -5.599879   -0.344010   -2.464393
     33          1           0       -6.324880   -0.063734   -3.044447
     34          7           0       -2.225739   -3.653588   -1.917808
     35          1           0       -2.522804   -3.500694   -0.960632
     36          6           0       -0.917263   -4.350087   -2.011316
     37          1           0       -1.094067   -5.404418   -1.768179
     38          6           0       -0.111077   -3.672525   -0.880985
     39          6           0       -0.191260   -4.245766   -3.352783
     40          1           0       -0.050918   -3.188432   -3.589482
     41          1           0       -0.825504   -4.662443   -4.139955
     42          8           0        0.496062   -2.617059   -1.086263
     43          6           0        1.183180   -4.947469   -3.347028
     44          1           0        1.777892   -4.529809   -2.521874
     45          6           0        1.074063   -6.466138   -3.143574
     46          1           0        0.444485   -6.919570   -3.919615
     47          1           0        0.649372   -6.730996   -2.167864
     48          1           0        2.062108   -6.935231   -3.199503
     49          6           0        1.917657   -4.627354   -4.656981
     50          1           0        1.361775   -5.011105   -5.521644
     51          1           0        2.913184   -5.083969   -4.670432
     52          1           0        2.040278   -3.545648   -4.792408
     53          7           0       -0.258238   -4.237832    0.334726
     54          1           0       -0.704678   -5.144591    0.381272
     55          6           0       -0.055268   -3.544782    1.607563
     56          1           0       -0.813003   -2.755274    1.667405
     57          6           0        1.353884   -2.927815    1.722762
     58          6           0       -0.234634   -4.541198    2.756522
     59          1           0       -0.147984   -4.026179    3.717504
     60          1           0        0.541897   -5.310081    2.704985
     61          1           0       -1.223518   -5.012408    2.717912
     62          8           0        2.366081   -3.599542    1.583832
     63          7           0        1.312629   -1.610300    2.061811
     64          1           0        0.403507   -1.171298    2.145959
     65          6           0        2.407573   -0.773139    2.527718
     66          1           0        2.662570   -1.041694    3.563763
     67          6           0        1.856239    0.669306    2.529743
     68          6           0        3.717003   -0.890205    1.694382
     69          1           0        4.480137   -0.282943    2.194279
     70          1           0        4.040082   -1.930076    1.756231
     71          8           0        0.719388    0.933616    2.090556
     72          6           0        3.581352   -0.466453    0.250314
     73          6           0        3.284595   -1.408733   -0.746690
     74          1           0        3.156469   -2.449569   -0.470299
     75          6           0        3.732334    0.875388   -0.128169
     76          1           0        4.004046    1.618438    0.617047
     77          6           0        3.126857   -1.029740   -2.076662
     78          1           0        2.888167   -1.760096   -2.842614
     79          6           0        3.562012    1.273313   -1.458410
     80          1           0        3.688253    2.318150   -1.735571
     81          8           0        3.066908    0.632947   -3.753351
     82          1           0        3.310969    1.558864   -3.911272
     83          6           0        3.269640    0.314594   -2.438914
     84          7           0        2.668613    1.608816    3.014522
     85          1           0        3.630641    1.405033    3.281057
     86          6           0        2.410703    3.033094    2.877493
     87          1           0        1.794185    3.200205    1.989830
     88          6           0        3.804259    3.688728    2.700913
     89          6           0        1.627544    3.586199    4.098203
     90          1           0        2.194482    3.437181    5.019822
     91          1           0        0.680759    3.041160    4.152779
     92          8           0        4.820476    3.027274    2.947064
     93          6           0        1.360956    5.058444    3.837865
     94          8           0        0.762733    5.430935    2.844147
     95          8           0        1.974429    5.859122    4.708839
     96          7           0        3.816415    4.968052    2.285978
     97          1           0        2.945279    5.481376    2.167119
     98          6           0        4.979850    5.833874    2.427135
     99          1           0        5.659049    5.363298    3.143328
    100          6           0        4.498608    7.210748    3.082428
    101          6           0        5.754688    5.992348    1.071022
    102          1           0        5.044880    6.066313    0.239356
    103          1           0        6.373079    5.101975    0.911538
    104          8           0        5.388591    7.941678    3.627838
    105          6           0        6.547744    7.277638    1.263493
    106          1           0        5.776864    8.054866    1.277728
    107          1           0        6.900583    7.175094    2.287680
    108          6           0        7.725779    7.909220    0.531588
    109          1           0        8.659453    7.353630    0.679907
    110          1           0        7.583807    8.033886   -0.548052
    111          6           0        7.817875    9.328303    1.150597
    112          1           0        7.056654    9.978060    0.711894
    113          1           0        8.796459    9.797867    1.022473
    114          7           0        7.514693    9.340989    2.657295
    115          1           0        7.490469   10.305318    3.001164
    116          1           0        8.249311    8.856792    3.182599
    117          1           0        6.582601    8.855711    2.966723
    118          8           0        3.277079    7.450888    3.010176
    119          1           0        2.132399    6.731046    4.260210
 ---------------------------------------------------------------------

 SCF Done:  E(RB3LYP) =  -2933.85137636     A.U. after    3 cycles

 Alpha  occ. eigenvalues --  -19.26954 -19.23247 -19.23179 -19.23044 -19.22919
 Alpha  occ. eigenvalues --  -19.22661 -19.22110 -19.20335 -19.19456 -19.18748
 Alpha  occ. eigenvalues --  -19.15417 -19.15278 -14.54729 -14.52257 -14.47344
 Alpha  occ. eigenvalues --  -14.46846 -14.46401 -14.45787 -14.45711 -14.45309
 Alpha  occ. eigenvalues --  -14.42432 -14.38203 -10.40217 -10.39819 -10.39505
 Alpha  occ. eigenvalues --  -10.39450 -10.37901 -10.37271 -10.36429 -10.36159
 Alpha  occ. eigenvalues --  -10.35863 -10.34186 -10.33908 -10.33778 -10.33634
 Alpha  occ. eigenvalues --  -10.33235 -10.33183 -10.32850 -10.32122 -10.30912
 Alpha  occ. eigenvalues --  -10.30545 -10.29936 -10.29619 -10.28651 -10.28393
 Alpha  occ. eigenvalues --  -10.28263 -10.28027 -10.27977 -10.27741 -10.27376
 Alpha  occ. eigenvalues --  -10.27346 -10.27258 -10.26931 -10.26574 -10.26514
 Alpha  occ. eigenvalues --  -10.26420 -10.26306 -10.25780 -10.24526 -10.24143
 Alpha  occ. eigenvalues --   -1.15502  -1.14947  -1.14913  -1.14614  -1.14507
 Alpha  occ. eigenvalues --   -1.13752  -1.12231  -1.11129  -1.10385  -1.09252
 Alpha  occ. eigenvalues --   -1.08476  -1.08291  -1.07921  -1.06132  -1.03942
 Alpha  occ. eigenvalues --   -1.03224  -1.02494  -1.02458  -1.01928  -1.00178
 Alpha  occ. eigenvalues --   -0.98802  -0.94449  -0.94067  -0.90429  -0.90280
 Alpha  occ. eigenvalues --   -0.89541  -0.88989  -0.87144  -0.86695  -0.86090
 Alpha  occ. eigenvalues --   -0.84494  -0.83747  -0.83351  -0.82246  -0.82079
 Alpha  occ. eigenvalues --   -0.79085  -0.78555  -0.76661  -0.76162  -0.75829
 Alpha  occ. eigenvalues --   -0.75601  -0.75038  -0.73413  -0.72316  -0.71167
 Alpha  occ. eigenvalues --   -0.70851  -0.69361  -0.69196  -0.68798  -0.68614
 Alpha  occ. eigenvalues --   -0.68424  -0.68384  -0.67969  -0.67684  -0.66749
 Alpha  occ. eigenvalues --   -0.66607  -0.65925  -0.65731  -0.65379  -0.65192
 Alpha  occ. eigenvalues --   -0.64834  -0.64649  -0.63750  -0.63228  -0.62861
 Alpha  occ. eigenvalues --   -0.61698  -0.61195  -0.60753  -0.60432  -0.59692
 Alpha  occ. eigenvalues --   -0.59482  -0.58992  -0.58735  -0.57789  -0.57709
 Alpha  occ. eigenvalues --   -0.57466  -0.57045  -0.56703  -0.56549  -0.55990
 Alpha  occ. eigenvalues --   -0.55457  -0.55281  -0.54657  -0.54441  -0.54101
 Alpha  occ. eigenvalues --   -0.53959  -0.53366  -0.53317  -0.52857  -0.52822
 Alpha  occ. eigenvalues --   -0.52432  -0.52083  -0.51934  -0.51707  -0.51543
 Alpha  occ. eigenvalues --   -0.51355  -0.51138  -0.50954  -0.50774  -0.50363
 Alpha  occ. eigenvalues --   -0.50137  -0.50070  -0.49802  -0.49740  -0.49461
 Alpha  occ. eigenvalues --   -0.49340  -0.49151  -0.49081  -0.48735  -0.48627
 Alpha  occ. eigenvalues --   -0.48232  -0.48050  -0.47946  -0.47851  -0.47581
 Alpha  occ. eigenvalues --   -0.47354  -0.47268  -0.46857  -0.46612  -0.46507
 Alpha  occ. eigenvalues --   -0.46254  -0.46124  -0.45797  -0.45573  -0.45432
 Alpha  occ. eigenvalues --   -0.45067  -0.44949  -0.44833  -0.44656  -0.44039
 Alpha  occ. eigenvalues --   -0.43859  -0.43849  -0.43058  -0.42606  -0.42101
 Alpha  occ. eigenvalues --   -0.41776  -0.41563  -0.41502  -0.41310  -0.40493
 Alpha  occ. eigenvalues --   -0.40343  -0.39939  -0.39905  -0.38384  -0.38153
 Alpha  occ. eigenvalues --   -0.37478  -0.37046  -0.36873  -0.36600  -0.36110
 Alpha  occ. eigenvalues --   -0.35912  -0.35074  -0.34869  -0.34611  -0.34364
 Alpha  occ. eigenvalues --   -0.33714  -0.33591  -0.33498  -0.33415  -0.33296
 Alpha  occ. eigenvalues --   -0.32295  -0.31204  -0.31165  -0.30130  -0.29348
 Alpha  occ. eigenvalues --   -0.28975
 Alpha virt. eigenvalues --   -0.11067  -0.09961  -0.09766  -0.08563  -0.08190
 Alpha virt. eigenvalues --   -0.06934  -0.06922  -0.06657  -0.05969  -0.05290
 Alpha virt. eigenvalues --   -0.04353  -0.03472  -0.02411  -0.02358  -0.01760

 Mulliken charges:
               1
     1  N   -0.826957
     2  H    0.393870
     3  H    0.439369
     4  H    0.468290
     5  C   -0.114561
     6  H    0.216616
     7  C    0.645874
     8  C   -0.399787
     9  H    0.204655
    10  H    0.196198
    11  O   -0.546606
    12  C    0.246066
    13  C   -0.065903
    14  H    0.138759
    15  N   -0.612622
    16  H    0.389893
    17  C    0.193352
    18  H    0.172397
    19  N   -0.408322
    20  N   -0.596621
    21  H    0.382958
    22  C   -0.053642
    23  H    0.180843
    24  C    0.626974
    25  C    0.119108
    26  H    0.139561
    27  O   -0.545694
    28  C   -0.477566
    29  H    0.170364
    30  H    0.162848
    31  H    0.164433
    32  O   -0.625270
    33  H    0.408351
    34  N   -0.598028
    35  H    0.350276
    36  C   -0.045187
    37  H    0.162923
    38  C    0.646016
    39  C   -0.259241
    40  H    0.157859
    41  H    0.170416
    42  O   -0.566937
    43  C   -0.096820
    44  H    0.143381
    45  C   -0.450430
    46  H    0.153145
    47  H    0.131049
    48  H    0.162954
    49  C   -0.452539
    50  H    0.153047
    51  H    0.156544
    52  H    0.146183
    53  N   -0.592318
    54  H    0.347234
    55  C   -0.046905
    56  H    0.188248
    57  C    0.649881
    58  C   -0.491560
    59  H    0.180809
    60  H    0.198196
    61  H    0.162146
    62  O   -0.524206
    63  N   -0.652639
    64  H    0.352464
    65  C   -0.017443
    66  H    0.189110
    67  C    0.620729
    68  C   -0.389732
    69  H    0.169569
    70  H    0.216255
    71  O   -0.584399
    72  C    0.136504
    73  C   -0.199852
    74  H    0.184491
    75  C   -0.209079
    76  H    0.164700
    77  C   -0.171029
    78  H    0.165264
    79  C   -0.234682
    80  H    0.140986
    81  O   -0.637190
    82  H    0.418303
    83  C    0.340453
    84  N   -0.601537
    85  H    0.371542
    86  C   -0.073018
    87  H    0.194039
    88  C    0.611594
    89  C   -0.317258
    90  H    0.179966
    91  H    0.193019
    92  O   -0.555417
    93  C    0.559901
    94  O   -0.475594
    95  O   -0.567716
    96  N   -0.614326
    97  H    0.374253
    98  C   -0.063845
    99  H    0.181491
   100  C    0.598905
   101  C   -0.268650
   102  H    0.145061
   103  H    0.157163
   104  O   -0.620372
   105  C   -0.305300
   106  H    0.159322
   107  H    0.156116
   108  C   -0.275702
   109  H    0.163730
   110  H    0.176436
   111  C   -0.187428
   112  H    0.213297
   113  H    0.195908
   114  N   -0.776440
   115  H    0.401199
   116  H    0.398311
   117  H    0.459775
   118  O   -0.567950
   119  H    0.453374
 Sum of Mulliken charges =   1.00000

 Dipole moment (field-independent basis, Debye):
    X=             14.6042    Y=              7.6815    Z=             -1.2458  Tot=             16.5481
 Quadrupole moment (field-independent basis, Debye-Ang):
   XX=           -165.3518   YY=           -147.7402   ZZ=           -333.0389
   XY=            204.8963   XZ=             38.4384   YZ=             23.4126

 Normal termination of Gaussian 16 at Sun Jun 19 13:58:59 2022.
