 Gaussian 16, Revision C.01,
 Gaussian 16:  ES64L-G16RevC.01  3-Jul-2019

 ----------------------------------------------------------------------
 # B3LYP/6-31G* empiricaldispersion=gd3 guess=read geom=check nosymm in
 tegral(ultrafinegrid)
 ----------------------------------------------------------------------

 ------------------------------------------------------
 Candidate Structure: Conf:112 Charge calc in gas phase
 ------------------------------------------------------
 Structure from the checkpoint file:  "conf-112.chk"
 Charge =  1 Multiplicity = 1

                          Input orientation:
 ---------------------------------------------------------------------
 Center     Atomic      Atomic             Coordinates (Angstroms)
 Number     Number       Type             X           Y           Z
 ---------------------------------------------------------------------
      1          7           0       -0.813875    2.543987   -3.694664
      2          1           0       -1.067597    2.270274   -2.717855
      3          1           0        0.218613    2.583236   -3.761139
      4          1           0       -1.176435    3.485607   -3.861282
      5          6           0       -1.434852    1.500282   -4.585123
      6          1           0       -1.969702    2.010933   -5.389187
      7          6           0       -2.397241    0.721711   -3.645142
      8          6           0       -0.384918    0.525414   -5.154416
      9          1           0       -0.906571   -0.132605   -5.860716
     10          1           0       -0.042241   -0.118978   -4.334934
     11          8           0       -2.353334    0.961084   -2.432761
     12          6           0        0.804503    1.178358   -5.788027
     13          6           0        1.131112    2.480759   -6.092129
     14          1           0        0.509148    3.365121   -6.047077
     15          7           0        1.965340    0.464907   -6.027684
     16          1           0        2.084695   -0.532470   -5.904014
     17          6           0        2.920682    1.346911   -6.438383
     18          1           0        3.926104    1.042530   -6.695191
     19          7           0        2.452656    2.578989   -6.472837
     20          7           0       -3.160384   -0.210571   -4.215222
     21          1           0       -3.122820   -0.420446   -5.211053
     22          6           0       -3.956286   -1.189776   -3.460635
     23          1           0       -4.421106   -0.681301   -2.611210
     24          6           0       -2.993277   -2.305469   -2.981449
     25          6           0       -5.013578   -1.760920   -4.433673
     26          1           0       -5.462756   -2.639085   -3.951968
     27          8           0       -2.859716   -3.351612   -3.622438
     28          6           0       -6.095517   -0.752282   -4.787695
     29          1           0       -6.655843   -0.451779   -3.896385
     30          1           0       -6.788185   -1.200177   -5.504546
     31          1           0       -5.663921    0.143742   -5.246803
     32          8           0       -4.347899   -2.139221   -5.639185
     33          1           0       -3.793415   -2.905223   -5.390498
     34          7           0       -2.282093   -1.987714   -1.883740
     35          1           0       -2.515228   -1.151567   -1.353613
     36          6           0       -1.257596   -2.820354   -1.272657
     37          1           0       -1.531868   -3.873509   -1.391840
     38          6           0       -1.234680   -2.425359    0.221345
     39          6           0        0.141394   -2.550362   -1.886319
     40          1           0        0.903004   -3.085705   -1.304209
     41          1           0        0.349405   -1.480176   -1.747431
     42          8           0       -1.899123   -1.462605    0.616599
     43          6           0        0.320419   -2.926266   -3.369140
     44          1           0       -0.461253   -2.420038   -3.951017
     45          6           0        1.691452   -2.427869   -3.855692
     46          1           0        2.506438   -2.927473   -3.318580
     47          1           0        1.817392   -1.348038   -3.697670
     48          1           0        1.826765   -2.650536   -4.922921
     49          6           0        0.181027   -4.435375   -3.608073
     50          1           0        0.905081   -4.994401   -3.001263
     51          1           0        0.372653   -4.679635   -4.658832
     52          1           0       -0.827780   -4.782413   -3.374053
     53          7           0       -0.396753   -3.121339    1.023250
     54          1           0        0.174818   -3.851831    0.618180
     55          6           0        0.015694   -2.633524    2.358031
     56          1           0       -0.887624   -2.264524    2.852229
     57          6           0        1.000953   -1.464083    2.109413
     58          6           0        0.654947   -3.757640    3.159361
     59          1           0        0.907149   -3.400899    4.161480
     60          1           0        1.586504   -4.083434    2.686316
     61          1           0       -0.031727   -4.604104    3.251298
     62          8           0        2.220345   -1.616589    2.100197
     63          7           0        0.393736   -0.291605    1.786083
     64          1           0       -0.618819   -0.293400    1.718787
     65          6           0        1.108961    0.728892    1.025874
     66          1           0        1.965000    0.230201    0.557063
     67          6           0        1.640981    1.848235    1.939209
     68          6           0        0.193453    1.323263   -0.054419
     69          1           0       -0.348405    0.503240   -0.538856
     70          1           0       -0.547817    1.961332    0.434413
     71          8           0        1.046878    2.921020    2.047244
     72          6           0        0.959036    2.115506   -1.092091
     73          6           0        0.923532    3.519343   -1.133094
     74          1           0        0.414251    4.067358   -0.347184
     75          6           0        1.730269    1.453126   -2.058240
     76          1           0        1.816214    0.369069   -2.023893
     77          6           0        1.564986    4.232424   -2.149102
     78          1           0        1.541746    5.316943   -2.161434
     79          6           0        2.404109    2.151995   -3.063262
     80          1           0        3.014558    1.621742   -3.786773
     81          8           0        2.907316    4.292153   -4.104161
     82          1           0        3.086704    3.748537   -4.900601
     83          6           0        2.301577    3.552043   -3.129574
     84          7           0        2.801235    1.558009    2.567948
     85          1           0        3.203726    0.635343    2.439442
     86          6           0        3.523205    2.562297    3.354229
     87          1           0        2.782884    3.170667    3.879936
     88          6           0        4.335306    3.472269    2.394289
     89          6           0        4.453410    1.889379    4.354752
     90          1           0        5.265677    1.365509    3.842696
     91          1           0        3.901899    1.156973    4.956768
     92          8           0        5.559633    3.393332    2.309520
     93          6           0        5.058463    2.916425    5.289018
     94          8           0        4.663399    4.053196    5.422167
     95          8           0        6.087366    2.396572    5.991497
     96          7           0        3.576913    4.285952    1.626786
     97          1           0        2.574553    4.362329    1.782815
     98          6           0        4.162604    5.167514    0.634695
     99          1           0        4.861057    5.849626    1.140615
    100          6           0        3.021367    6.025740    0.060787
    101          6           0        4.942761    4.410812   -0.477499
    102          1           0        4.347664    4.393216   -1.395755
    103          1           0        5.056003    3.369825   -0.168611
    104          8           0        3.286658    6.778601   -1.005361
    105          6           0        6.338102    5.009356   -0.742926
    106          1           0        6.334543    6.082487   -0.507743
    107          1           0        7.037289    4.553161   -0.034660
    108          6           0        6.822605    4.840933   -2.194422
    109          1           0        7.911301    4.713458   -2.228064
    110          1           0        6.395921    3.926247   -2.632492
    111          6           0        6.473676    6.050077   -3.069839
    112          1           0        6.813829    5.879110   -4.103011
    113          1           0        7.017168    6.925071   -2.694287
    114          7           0        5.033354    6.377068   -3.007982
    115          1           0        4.853843    7.246818   -3.509278
    116          1           0        4.130037    6.581668   -1.533940
    117          1           0        4.481238    5.660389   -3.483080
    118          8           0        1.907370    6.020709    0.550087
    119          1           0        6.414774    3.107885    6.574120
 ---------------------------------------------------------------------

 SCF Done:  E(RB3LYP) =  -2933.89543961     A.U. after    3 cycles

 Alpha  occ. eigenvalues --  -19.27878 -19.27684 -19.24621 -19.24282 -19.23567
 Alpha  occ. eigenvalues --  -19.23521 -19.22335 -19.20973 -19.19142 -19.18643
 Alpha  occ. eigenvalues --  -19.18141 -19.16534 -14.58945 -14.52721 -14.51109
 Alpha  occ. eigenvalues --  -14.47651 -14.47195 -14.45075 -14.44660 -14.43514
 Alpha  occ. eigenvalues --  -14.40481 -14.40196 -10.44845 -10.42042 -10.40547
 Alpha  occ. eigenvalues --  -10.40511 -10.37719 -10.37549 -10.37082 -10.36775
 Alpha  occ. eigenvalues --  -10.36682 -10.36561 -10.36094 -10.35862 -10.35478
 Alpha  occ. eigenvalues --  -10.35020 -10.34717 -10.33833 -10.33549 -10.33327
 Alpha  occ. eigenvalues --  -10.32070 -10.30481 -10.30422 -10.30281 -10.30190
 Alpha  occ. eigenvalues --  -10.29944 -10.29478 -10.29363 -10.29046 -10.28960
 Alpha  occ. eigenvalues --  -10.28773 -10.28534 -10.28107 -10.27281 -10.26824
 Alpha  occ. eigenvalues --  -10.26590 -10.25931 -10.24789 -10.24406 -10.23881
 Alpha  occ. eigenvalues --   -1.20144  -1.15876  -1.15796  -1.15221  -1.15166
 Alpha  occ. eigenvalues --   -1.15091  -1.13843  -1.13796  -1.12669  -1.12161
 Alpha  occ. eigenvalues --   -1.11017  -1.08310  -1.07315  -1.06269  -1.05602
 Alpha  occ. eigenvalues --   -1.04012  -1.03668  -1.01523  -1.00818  -0.99722
 Alpha  occ. eigenvalues --   -0.97122  -0.96404  -0.96339  -0.95771  -0.92523
 Alpha  occ. eigenvalues --   -0.90160  -0.89003  -0.87985  -0.87293  -0.86034
 Alpha  occ. eigenvalues --   -0.85521  -0.85232  -0.84905  -0.82576  -0.82334
 Alpha  occ. eigenvalues --   -0.81058  -0.81038  -0.78922  -0.77279  -0.76764
 Alpha  occ. eigenvalues --   -0.75670  -0.75105  -0.74582  -0.74363  -0.74023
 Alpha  occ. eigenvalues --   -0.73527  -0.72722  -0.72316  -0.71293  -0.71087
 Alpha  occ. eigenvalues --   -0.69948  -0.69378  -0.69159  -0.68526  -0.68270
 Alpha  occ. eigenvalues --   -0.67898  -0.67043  -0.66902  -0.65749  -0.65640
 Alpha  occ. eigenvalues --   -0.64811  -0.64661  -0.64460  -0.64344  -0.63528
 Alpha  occ. eigenvalues --   -0.62666  -0.62356  -0.61945  -0.60985  -0.60587
 Alpha  occ. eigenvalues --   -0.59765  -0.59732  -0.59271  -0.58971  -0.58731
 Alpha  occ. eigenvalues --   -0.58266  -0.58051  -0.57773  -0.57163  -0.57123
 Alpha  occ. eigenvalues --   -0.56625  -0.56321  -0.56098  -0.55671  -0.55365
 Alpha  occ. eigenvalues --   -0.55049  -0.54632  -0.54529  -0.54512  -0.54297
 Alpha  occ. eigenvalues --   -0.54083  -0.53991  -0.53314  -0.53171  -0.52873
 Alpha  occ. eigenvalues --   -0.52701  -0.52590  -0.52445  -0.52206  -0.51949
 Alpha  occ. eigenvalues --   -0.51830  -0.51271  -0.50976  -0.50603  -0.50382
 Alpha  occ. eigenvalues --   -0.49913  -0.49619  -0.49367  -0.49306  -0.49046
 Alpha  occ. eigenvalues --   -0.48894  -0.48507  -0.48469  -0.48311  -0.48180
 Alpha  occ. eigenvalues --   -0.47873  -0.47651  -0.47192  -0.46986  -0.46800
 Alpha  occ. eigenvalues --   -0.46531  -0.46234  -0.45938  -0.45611  -0.45422
 Alpha  occ. eigenvalues --   -0.45002  -0.44713  -0.44553  -0.44098  -0.43957
 Alpha  occ. eigenvalues --   -0.43870  -0.43668  -0.43553  -0.43509  -0.43179
 Alpha  occ. eigenvalues --   -0.42923  -0.42657  -0.42455  -0.42039  -0.41743
 Alpha  occ. eigenvalues --   -0.41683  -0.41630  -0.40994  -0.40536  -0.39662
 Alpha  occ. eigenvalues --   -0.39191  -0.38663  -0.38587  -0.38181  -0.37458
 Alpha  occ. eigenvalues --   -0.37125  -0.36895  -0.36412  -0.36183  -0.36001
 Alpha  occ. eigenvalues --   -0.35839  -0.35405  -0.34235  -0.33980  -0.33518
 Alpha  occ. eigenvalues --   -0.33090  -0.32485  -0.31795  -0.31708  -0.30164
 Alpha  occ. eigenvalues --   -0.29488
 Alpha virt. eigenvalues --   -0.13824  -0.12006  -0.11303  -0.10723  -0.10038
 Alpha virt. eigenvalues --   -0.09943  -0.09675  -0.07920  -0.07097  -0.06440
 Alpha virt. eigenvalues --   -0.05895  -0.05461  -0.04160  -0.04048  -0.03477

 Mulliken charges:
               1
     1  N   -0.789522
     2  H    0.438953
     3  H    0.424831
     4  H    0.413433
     5  C   -0.102095
     6  H    0.223193
     7  C    0.653643
     8  C   -0.393262
     9  H    0.206482
    10  H    0.206120
    11  O   -0.534303
    12  C    0.336189
    13  C   -0.094067
    14  H    0.150352
    15  N   -0.596650
    16  H    0.361996
    17  C    0.215144
    18  H    0.203659
    19  N   -0.446258
    20  N   -0.596877
    21  H    0.364742
    22  C   -0.090028
    23  H    0.196882
    24  C    0.637914
    25  C    0.101330
    26  H    0.168108
    27  O   -0.539922
    28  C   -0.450913
    29  H    0.162693
    30  H    0.191084
    31  H    0.143923
    32  O   -0.646094
    33  H    0.425150
    34  N   -0.611903
    35  H    0.385362
    36  C   -0.072933
    37  H    0.200002
    38  C    0.636191
    39  C   -0.277218
    40  H    0.146137
    41  H    0.143929
    42  O   -0.543753
    43  C   -0.072680
    44  H    0.126024
    45  C   -0.482429
    46  H    0.175544
    47  H    0.127937
    48  H    0.146346
    49  C   -0.461667
    50  H    0.143543
    51  H    0.154811
    52  H    0.188507
    53  N   -0.594855
    54  H    0.345749
    55  C   -0.061260
    56  H    0.192607
    57  C    0.605900
    58  C   -0.470520
    59  H    0.186775
    60  H    0.176944
    61  H    0.169202
    62  O   -0.527235
    63  N   -0.598165
    64  H    0.375070
    65  C   -0.064668
    66  H    0.167906
    67  C    0.660397
    68  C   -0.385001
    69  H    0.154719
    70  H    0.191537
    71  O   -0.534782
    72  C    0.110866
    73  C   -0.205005
    74  H    0.213015
    75  C   -0.223796
    76  H    0.150317
    77  C   -0.212231
    78  H    0.203869
    79  C   -0.210746
    80  H    0.142969
    81  O   -0.680005
    82  H    0.439832
    83  C    0.332185
    84  N   -0.625717
    85  H    0.356857
    86  C   -0.048137
    87  H    0.206350
    88  C    0.649083
    89  C   -0.384317
    90  H    0.199064
    91  H    0.186504
    92  O   -0.543291
    93  C    0.610887
    94  O   -0.460843
    95  O   -0.568231
    96  N   -0.654690
    97  H    0.393045
    98  C   -0.021531
    99  H    0.193432
   100  C    0.596264
   101  C   -0.304565
   102  H    0.136823
   103  H    0.169638
   104  O   -0.634141
   105  C   -0.270326
   106  H    0.141892
   107  H    0.176809
   108  C   -0.269984
   109  H    0.152457
   110  H    0.123801
   111  C   -0.141549
   112  H    0.133933
   113  H    0.161017
   114  N   -0.794433
   115  H    0.329107
   116  H    0.475607
   117  H    0.350473
   118  O   -0.487165
   119  H    0.416713
 Sum of Mulliken charges =   1.00000

 Dipole moment (field-independent basis, Debye):
    X=             -0.1634    Y=             -2.5098    Z=            -20.6287  Tot=             20.7814
 Quadrupole moment (field-independent basis, Debye-Ang):
   XX=           -298.8043   YY=           -331.3110   ZZ=           -245.5649
   XY=              9.1600   XZ=             -7.6007   YZ=            -46.3900

 Normal termination of Gaussian 16 at Sun Jun 19 13:59:16 2022.
