 Gaussian 16, Revision C.01,
 Gaussian 16:  ES64L-G16RevC.01  3-Jul-2019

 ----------------------------------------------------------------------
 # B3LYP/6-31G* empiricaldispersion=gd3 guess=read geom=check nosymm in
 tegral(ultrafinegrid)
 ----------------------------------------------------------------------

 ------------------------------------------------------
 Candidate Structure: Conf:515 Charge calc in gas phase
 ------------------------------------------------------
 Structure from the checkpoint file:  "conf-515.chk"
 Charge =  1 Multiplicity = 1

                          Input orientation:
 ---------------------------------------------------------------------
 Center     Atomic      Atomic             Coordinates (Angstroms)
 Number     Number       Type             X           Y           Z
 ---------------------------------------------------------------------
      1          7           0       -1.963442    2.896800   -2.589552
      2          1           0       -2.445999    3.777319   -2.783579
      3          1           0       -2.271279    2.539629   -1.651616
      4          1           0       -0.931758    3.067180   -2.552815
      5          6           0       -2.362448    1.789845   -3.540679
      6          1           0       -2.927776    2.224859   -4.366901
      7          6           0       -3.221058    0.852795   -2.667787
      8          6           0       -1.112959    1.044675   -4.096338
      9          1           0       -0.635131    0.486664   -3.282514
     10          1           0       -0.390216    1.802308   -4.418511
     11          8           0       -3.139661    0.967896   -1.434517
     12          6           0       -1.437069    0.168721   -5.263711
     13          6           0       -1.533630    0.478956   -6.604459
     14          1           0       -1.352299    1.438982   -7.072476
     15          7           0       -1.739243   -1.185111   -5.197969
     16          1           0       -1.828939   -1.773625   -4.375588
     17          6           0       -1.999219   -1.598954   -6.472477
     18          1           0       -2.264739   -2.622681   -6.699443
     19          7           0       -1.881517   -0.620361   -7.346076
     20          7           0       -3.944112   -0.072190   -3.296513
     21          1           0       -3.922712   -0.174150   -4.309841
     22          6           0       -4.537430   -1.214770   -2.590088
     23          1           0       -4.973473   -0.857620   -1.653794
     24          6           0       -3.386833   -2.209496   -2.323015
     25          6           0       -5.613988   -1.834402   -3.512404
     26          1           0       -5.899562   -2.802701   -3.077283
     27          8           0       -3.058250   -3.043462   -3.185482
     28          6           0       -6.842819   -0.947218   -3.646145
     29          1           0       -7.332669   -0.806781   -2.677060
     30          1           0       -7.551311   -1.413067   -4.335597
     31          1           0       -6.572158    0.034492   -4.049008
     32          8           0       -5.059238   -2.010493   -4.812297
     33          1           0       -4.356726   -2.680159   -4.705503
     34          7           0       -2.738800   -2.049921   -1.161525
     35          1           0       -2.933683   -1.242322   -0.572133
     36          6           0       -1.540083   -2.804906   -0.792345
     37          1           0       -1.769830   -3.872106   -0.859693
     38          6           0       -1.220429   -2.379964    0.648199
     39          6           0       -0.349628   -2.456712   -1.722248
     40          1           0       -0.211725   -1.369532   -1.676076
     41          1           0       -0.651199   -2.716677   -2.742279
     42          8           0       -1.447852   -1.220869    1.004990
     43          6           0        0.988673   -3.155005   -1.417830
     44          1           0        1.284137   -2.930847   -0.386382
     45          6           0        0.898344   -4.681318   -1.562568
     46          1           0        0.615631   -4.960750   -2.585236
     47          1           0        0.159633   -5.133901   -0.889132
     48          1           0        1.863696   -5.145364   -1.337347
     49          6           0        2.075261   -2.592262   -2.346206
     50          1           0        1.833601   -2.791774   -3.398247
     51          1           0        3.044751   -3.056056   -2.134343
     52          1           0        2.184942   -1.509499   -2.219968
     53          7           0       -0.663597   -3.314920    1.450688
     54          1           0       -0.353744   -4.187097    1.038746
     55          6           0       -0.042818   -2.959503    2.733643
     56          1           0       -0.600152   -2.103252    3.119105
     57          6           0        1.423322   -2.589086    2.433731
     58          6           0       -0.108046   -4.139498    3.700976
     59          1           0        0.314683   -3.855615    4.669770
     60          1           0        0.479203   -4.977146    3.311337
     61          1           0       -1.144102   -4.456821    3.850178
     62          8           0        2.187320   -3.434041    1.966205
     63          7           0        1.770546   -1.302148    2.654215
     64          1           0        1.108917   -0.616480    3.007369
     65          6           0        3.090746   -0.777098    2.354583
     66          1           0        3.842714   -1.374053    2.884527
     67          6           0        3.107420    0.678378    2.850090
     68          6           0        3.435192   -0.817667    0.834009
     69          1           0        4.518880   -0.706100    0.722287
     70          1           0        3.194066   -1.823757    0.480212
     71          8           0        2.087301    1.230070    3.256380
     72          6           0        2.735072    0.242250    0.012458
     73          6           0        1.336457    0.294729   -0.067854
     74          1           0        0.729609   -0.418580    0.472868
     75          6           0        3.470744    1.221805   -0.666773
     76          1           0        4.553395    1.235655   -0.586392
     77          6           0        0.685815    1.270782   -0.819181
     78          1           0       -0.399879    1.280741   -0.844248
     79          6           0        2.836301    2.205797   -1.427670
     80          1           0        3.427626    2.957497   -1.946943
     81          8           0        0.770642    3.172305   -2.268794
     82          1           0        1.405770    3.801412   -2.645744
     83          6           0        1.446557    2.216364   -1.504055
     84          7           0        4.299091    1.305580    2.723084
     85          1           0        5.074801    0.842830    2.258815
     86          6           0        4.416877    2.750663    2.729441
     87          1           0        3.440755    3.178953    2.472030
     88          6           0        5.438787    3.110884    1.631561
     89          6           0        4.839324    3.303573    4.112886
     90          1           0        5.094306    4.363243    4.027497
     91          1           0        5.708865    2.750979    4.477220
     92          8           0        6.121597    2.240336    1.084699
     93          6           0        3.670873    3.200440    5.074163
     94          8           0        2.760786    3.995641    5.116576
     95          8           0        3.744424    2.096236    5.848553
     96          7           0        5.525467    4.418860    1.323689
     97          1           0        4.918523    5.110431    1.751535
     98          6           0        6.469943    4.932797    0.343943
     99          1           0        7.433483    4.433796    0.470126
    100          6           0        6.606667    6.430979    0.544031
    101          6           0        5.952836    4.696900   -1.109931
    102          1           0        4.929754    5.095648   -1.151078
    103          1           0        5.876576    3.610502   -1.221193
    104          8           0        5.677817    7.111896    0.949203
    105          6           0        6.820992    5.298744   -2.246750
    106          1           0        7.787852    5.616739   -1.849818
    107          1           0        7.040148    4.509508   -2.975369
    108          6           0        6.169504    6.455791   -3.036914
    109          1           0        6.839729    6.726849   -3.865516
    110          1           0        5.254408    6.074828   -3.513194
    111          6           0        5.761059    7.744002   -2.302602
    112          1           0        5.116594    7.519166   -1.447602
    113          1           0        5.166057    8.348020   -3.003636
    114          7           0        6.907138    8.530612   -1.778548
    115          1           0        6.573095    9.435422   -1.448379
    116          1           0        7.574607    8.722358   -2.526138
    117          1           0        7.564392    7.733869   -0.471593
    118          8           0        7.762047    6.889221    0.080498
    119          1           0        2.923912    2.075485    6.377053
 ---------------------------------------------------------------------

 SCF Done:  E(RB3LYP) =  -2933.89184883     A.U. after    1 cycles

 Alpha  occ. eigenvalues --  -19.31799 -19.26912 -19.25393 -19.23523 -19.23216
 Alpha  occ. eigenvalues --  -19.22981 -19.21616 -19.20313 -19.20281 -19.20039
 Alpha  occ. eigenvalues --  -19.19426 -19.19225 -14.57754 -14.49942 -14.48037
 Alpha  occ. eigenvalues --  -14.46926 -14.45837 -14.44314 -14.43967 -14.43666
 Alpha  occ. eigenvalues --  -14.42458 -14.39774 -10.43549 -10.40142 -10.40090
 Alpha  occ. eigenvalues --  -10.38670 -10.38091 -10.37939 -10.37346 -10.36974
 Alpha  occ. eigenvalues --  -10.36450 -10.35837 -10.34665 -10.34029 -10.33984
 Alpha  occ. eigenvalues --  -10.33391 -10.32652 -10.32090 -10.32034 -10.31824
 Alpha  occ. eigenvalues --  -10.31723 -10.30929 -10.29619 -10.29219 -10.29179
 Alpha  occ. eigenvalues --  -10.29020 -10.28487 -10.28355 -10.28061 -10.27894
 Alpha  occ. eigenvalues --  -10.27509 -10.27395 -10.27166 -10.27044 -10.26945
 Alpha  occ. eigenvalues --  -10.26438 -10.25897 -10.25850 -10.25244 -10.24904
 Alpha  occ. eigenvalues --   -1.19146  -1.18579  -1.16154  -1.15471  -1.15098
 Alpha  occ. eigenvalues --   -1.13559  -1.12542  -1.12428  -1.11811  -1.11256
 Alpha  occ. eigenvalues --   -1.10999  -1.10317  -1.07199  -1.07101  -1.06264
 Alpha  occ. eigenvalues --   -1.03234  -1.02034  -1.00979  -1.00689  -1.00412
 Alpha  occ. eigenvalues --   -0.97945  -0.96061  -0.95274  -0.93302  -0.90411
 Alpha  occ. eigenvalues --   -0.88700  -0.88372  -0.87842  -0.86173  -0.86009
 Alpha  occ. eigenvalues --   -0.84775  -0.84579  -0.83748  -0.82945  -0.81952
 Alpha  occ. eigenvalues --   -0.80845  -0.78605  -0.77935  -0.76486  -0.76234
 Alpha  occ. eigenvalues --   -0.75458  -0.75261  -0.73428  -0.73233  -0.72243
 Alpha  occ. eigenvalues --   -0.72036  -0.71476  -0.71095  -0.70191  -0.69820
 Alpha  occ. eigenvalues --   -0.69627  -0.69192  -0.68390  -0.68053  -0.67789
 Alpha  occ. eigenvalues --   -0.67240  -0.66553  -0.66084  -0.66041  -0.65311
 Alpha  occ. eigenvalues --   -0.65077  -0.64825  -0.64550  -0.63794  -0.63197
 Alpha  occ. eigenvalues --   -0.62244  -0.62015  -0.61521  -0.60462  -0.59371
 Alpha  occ. eigenvalues --   -0.58776  -0.58647  -0.58518  -0.58039  -0.57917
 Alpha  occ. eigenvalues --   -0.57418  -0.57059  -0.56804  -0.56200  -0.55851
 Alpha  occ. eigenvalues --   -0.55540  -0.55164  -0.54911  -0.54692  -0.54316
 Alpha  occ. eigenvalues --   -0.53992  -0.53754  -0.53610  -0.53528  -0.53269
 Alpha  occ. eigenvalues --   -0.53035  -0.52922  -0.52772  -0.52580  -0.52463
 Alpha  occ. eigenvalues --   -0.52361  -0.52135  -0.51971  -0.51876  -0.51699
 Alpha  occ. eigenvalues --   -0.51614  -0.51085  -0.51047  -0.50672  -0.50484
 Alpha  occ. eigenvalues --   -0.50207  -0.49729  -0.49524  -0.49485  -0.49258
 Alpha  occ. eigenvalues --   -0.48972  -0.48936  -0.48147  -0.47936  -0.47673
 Alpha  occ. eigenvalues --   -0.47384  -0.47317  -0.47033  -0.46474  -0.46421
 Alpha  occ. eigenvalues --   -0.46276  -0.45996  -0.45847  -0.45705  -0.45575
 Alpha  occ. eigenvalues --   -0.45202  -0.45056  -0.44830  -0.44517  -0.44487
 Alpha  occ. eigenvalues --   -0.44317  -0.43728  -0.43371  -0.43132  -0.42971
 Alpha  occ. eigenvalues --   -0.42908  -0.42405  -0.41953  -0.41620  -0.41531
 Alpha  occ. eigenvalues --   -0.41190  -0.40913  -0.40758  -0.40720  -0.40479
 Alpha  occ. eigenvalues --   -0.37455  -0.37346  -0.36786  -0.36749  -0.36675
 Alpha  occ. eigenvalues --   -0.36183  -0.35535  -0.35260  -0.35156  -0.35008
 Alpha  occ. eigenvalues --   -0.34998  -0.34634  -0.34357  -0.34145  -0.33824
 Alpha  occ. eigenvalues --   -0.33530  -0.33038  -0.32557  -0.32530  -0.32034
 Alpha  occ. eigenvalues --   -0.31843
 Alpha virt. eigenvalues --   -0.12834  -0.10360  -0.09761  -0.09423  -0.09231
 Alpha virt. eigenvalues --   -0.07994  -0.07615  -0.07211  -0.06317  -0.05924
 Alpha virt. eigenvalues --   -0.05811  -0.04920  -0.04212  -0.03378  -0.03063

 Mulliken charges:
               1
     1  N   -0.812559
     2  H    0.405362
     3  H    0.432110
     4  H    0.462928
     5  C   -0.088073
     6  H    0.215450
     7  C    0.635790
     8  C   -0.399331
     9  H    0.206385
    10  H    0.192236
    11  O   -0.540328
    12  C    0.276902
    13  C   -0.064655
    14  H    0.142598
    15  N   -0.631817
    16  H    0.384438
    17  C    0.209054
    18  H    0.182543
    19  N   -0.402135
    20  N   -0.595772
    21  H    0.386743
    22  C   -0.082490
    23  H    0.191960
    24  C    0.629074
    25  C    0.106188
    26  H    0.159294
    27  O   -0.570551
    28  C   -0.451334
    29  H    0.157832
    30  H    0.190161
    31  H    0.150052
    32  O   -0.640660
    33  H    0.422958
    34  N   -0.617785
    35  H    0.385266
    36  C   -0.024656
    37  H    0.182375
    38  C    0.610395
    39  C   -0.296189
    40  H    0.147425
    41  H    0.159581
    42  O   -0.545771
    43  C   -0.112413
    44  H    0.157852
    45  C   -0.450768
    46  H    0.155050
    47  H    0.126987
    48  H    0.173059
    49  C   -0.456194
    50  H    0.143042
    51  H    0.160790
    52  H    0.147932
    53  N   -0.587559
    54  H    0.355242
    55  C   -0.064586
    56  H    0.182222
    57  C    0.636151
    58  C   -0.465634
    59  H    0.174391
    60  H    0.179695
    61  H    0.169936
    62  O   -0.544190
    63  N   -0.617563
    64  H    0.367005
    65  C   -0.036555
    66  H    0.193699
    67  C    0.623306
    68  C   -0.391150
    69  H    0.163363
    70  H    0.213917
    71  O   -0.534378
    72  C    0.152503
    73  C   -0.184561
    74  H    0.179291
    75  C   -0.211830
    76  H    0.184347
    77  C   -0.194825
    78  H    0.131576
    79  C   -0.190374
    80  H    0.138066
    81  O   -0.714705
    82  H    0.432859
    83  C    0.361478
    84  N   -0.602043
    85  H    0.357669
    86  C   -0.084716
    87  H    0.202062
    88  C    0.632079
    89  C   -0.324273
    90  H    0.182407
    91  H    0.185531
    92  O   -0.547978
    93  C    0.586506
    94  O   -0.455894
    95  O   -0.555899
    96  N   -0.619687
    97  H    0.357568
    98  C   -0.013286
    99  H    0.195715
   100  C    0.585140
   101  C   -0.292332
   102  H    0.131030
   103  H    0.174779
   104  O   -0.495922
   105  C   -0.280290
   106  H    0.183823
   107  H    0.147159
   108  C   -0.273714
   109  H    0.145454
   110  H    0.129122
   111  C   -0.154042
   112  H    0.177649
   113  H    0.143505
   114  N   -0.772898
   115  H    0.342033
   116  H    0.330300
   117  H    0.457741
   118  O   -0.598141
   119  H    0.416379
 Sum of Mulliken charges =   1.00000

 Dipole moment (field-independent basis, Debye):
    X=             -0.4198    Y=             11.0874    Z=            -10.1654  Tot=             15.0480
 Quadrupole moment (field-independent basis, Debye-Ang):
   XX=           -273.2340   YY=           -242.1230   ZZ=           -330.6062
   XY=             49.8939   XZ=             -4.6605   YZ=            -72.7424

 Normal termination of Gaussian 16 at Sun Jun 19 13:57:44 2022.
