 Gaussian 16, Revision C.01,
 Gaussian 16:  ES64L-G16RevC.01  3-Jul-2019

 ----------------------------------------------------------------------
 # B3LYP/6-31G* empiricaldispersion=gd3 guess=read geom=check nosymm in
 tegral(ultrafinegrid)
 ----------------------------------------------------------------------

 ------------------------------------------------------
 Candidate Structure: Conf:217 Charge calc in gas phase
 ------------------------------------------------------
 Structure from the checkpoint file:  "conf-217.chk"
 Charge =  1 Multiplicity = 1

                          Input orientation:
 ---------------------------------------------------------------------
 Center     Atomic      Atomic             Coordinates (Angstroms)
 Number     Number       Type             X           Y           Z
 ---------------------------------------------------------------------
      1          7           0       -3.036993    3.957964   -2.149153
      2          1           0       -3.689487    4.738996   -2.242348
      3          1           0       -3.319426    3.360419   -1.326950
      4          1           0       -2.074441    4.325427   -1.959823
      5          6           0       -3.096046    2.985065   -3.304988
      6          1           0       -3.823565    3.362228   -4.028626
      7          6           0       -3.635911    1.682056   -2.655344
      8          6           0       -1.697645    2.845414   -3.964693
      9          1           0       -0.967755    2.599499   -3.187614
     10          1           0       -1.418040    3.825015   -4.375786
     11          8           0       -3.695321    1.635637   -1.413500
     12          6           0       -1.646651    1.761759   -4.983884
     13          6           0       -1.108694    0.501321   -4.898828
     14          1           0       -0.519875    0.097496   -4.088026
     15          7           0       -2.366612    1.760238   -6.175223
     16          1           0       -2.786022    2.560965   -6.628963
     17          6           0       -2.185698    0.524003   -6.748064
     18          1           0       -2.611814    0.265680   -7.708309
     19          7           0       -1.444581   -0.257514   -5.995278
     20          7           0       -4.010539    0.707010   -3.471925
     21          1           0       -3.993887    0.863813   -4.472510
     22          6           0       -4.684498   -0.520360   -3.024237
     23          1           0       -5.269980   -0.251874   -2.137353
     24          6           0       -3.662863   -1.627412   -2.638394
     25          6           0       -5.615887   -1.009457   -4.148410
     26          1           0       -4.994678   -1.515868   -4.900536
     27          8           0       -3.702092   -2.734543   -3.164347
     28          6           0       -6.672189   -1.976041   -3.624846
     29          1           0       -6.198348   -2.856362   -3.185373
     30          1           0       -7.313299   -2.315031   -4.447206
     31          1           0       -7.303450   -1.482285   -2.877745
     32          8           0       -6.204732    0.174238   -4.710458
     33          1           0       -6.853108   -0.114867   -5.371230
     34          7           0       -2.758902   -1.258920   -1.704193
     35          1           0       -2.871188   -0.392429   -1.181509
     36          6           0       -1.767217   -2.179043   -1.165293
     37          1           0       -2.178974   -3.192841   -1.187919
     38          6           0       -1.488124   -1.739894    0.276058
     39          6           0       -0.425241   -2.130914   -1.943148
     40          1           0        0.346205   -2.651325   -1.358328
     41          1           0       -0.115439   -1.076667   -1.978837
     42          8           0       -1.732638   -0.589922    0.647425
     43          6           0       -0.445852   -2.719999   -3.366062
     44          1           0       -1.220107   -2.210297   -3.951788
     45          6           0        0.913632   -2.465330   -4.035306
     46          1           0        1.712869   -3.005078   -3.511205
     47          1           0        1.181175   -1.401014   -4.034864
     48          1           0        0.902330   -2.802961   -5.076700
     49          6           0       -0.771503   -4.219701   -3.363141
     50          1           0       -0.065079   -4.773259   -2.729679
     51          1           0       -0.696366   -4.627782   -4.377089
     52          1           0       -1.790046   -4.408043   -3.013647
     53          7           0       -0.886104   -2.666811    1.068937
     54          1           0       -0.546700   -3.505714    0.610540
     55          6           0       -0.060153   -2.236774    2.203403
     56          1           0       -0.576100   -1.393820    2.667885
     57          6           0        1.299839   -1.808145    1.615301
     58          6           0        0.125263   -3.381843    3.197837
     59          1           0        0.714223   -3.045887    4.057161
     60          1           0        0.662273   -4.210145    2.723582
     61          1           0       -0.845333   -3.738245    3.554496
     62          8           0        1.921980   -2.575509    0.879334
     63          7           0        1.720765   -0.560291    1.917862
     64          1           0        1.174319    0.069174    2.497633
     65          6           0        2.954036   -0.000884    1.399433
     66          1           0        3.776997   -0.695506    1.605754
     67          6           0        3.170168    1.333906    2.130756
     68          6           0        2.906298    0.233831   -0.145587
     69          1           0        3.927885    0.400318   -0.504412
     70          1           0        2.563802   -0.704295   -0.591681
     71          8           0        2.290172    1.829929    2.828719
     72          6           0        2.026624    1.396957   -0.541093
     73          6           0        0.633898    1.314534   -0.414312
     74          1           0        0.167506    0.406393   -0.059776
     75          6           0        2.581573    2.610125   -0.968730
     76          1           0        3.658707    2.706766   -1.065546
     77          6           0       -0.187427    2.405227   -0.690418
     78          1           0       -1.260178    2.311069   -0.550524
     79          6           0        1.774373    3.712468   -1.257932
     80          1           0        2.226309    4.648568   -1.580211
     81          8           0       -0.462103    4.669806   -1.399114
     82          1           0        0.056299    5.479254   -1.531204
     83          6           0        0.394160    3.600516   -1.109983
     84          7           0        4.365468    1.931571    1.893077
     85          1           0        5.001143    1.538780    1.206739
     86          6           0        4.593512    3.334697    2.175159
     87          1           0        3.645482    3.774767    2.491914
     88          6           0        5.117469    4.000951    0.893179
     89          6           0        5.650610    3.520768    3.306874
     90          1           0        6.521323    2.896917    3.095976
     91          1           0        5.196268    3.212990    4.252936
     92          8           0        5.767201    3.360618    0.065890
     93          6           0        6.112537    4.963766    3.363276
     94          8           0        7.182714    5.360428    2.958695
     95          8           0        5.126938    5.779081    3.804612
     96          7           0        4.875696    5.331975    0.787864
     97          1           0        4.443078    5.806974    1.575025
     98          6           0        5.797440    6.173699    0.029564
     99          1           0        6.813575    5.810042    0.241082
    100          6           0        5.720643    7.587893    0.645824
    101          6           0        5.567273    6.121022   -1.498274
    102          1           0        4.965120    6.983906   -1.806279
    103          1           0        4.975081    5.229486   -1.720033
    104          8           0        6.238569    8.601391   -0.021917
    105          6           0        6.899820    6.051945   -2.270389
    106          1           0        7.682542    6.555966   -1.690911
    107          1           0        7.212613    5.003449   -2.328218
    108          6           0        6.871048    6.670109   -3.674137
    109          1           0        7.869295    6.567069   -4.120326
    110          1           0        6.184801    6.119923   -4.330867
    111          6           0        6.464813    8.152306   -3.681745
    112          1           0        5.383343    8.254441   -3.538078
    113          1           0        6.696781    8.592083   -4.662223
    114          7           0        7.111443    8.883503   -2.569908
    115          1           0        6.879198    9.875478   -2.618982
    116          1           0        8.126893    8.828284   -2.658027
    117          1           0        6.583165    8.459395   -0.965761
    118          8           0        5.208727    7.762224    1.741371
    119          1           0        5.384598    6.697348    3.571793
 ---------------------------------------------------------------------

 SCF Done:  E(RB3LYP) =  -2933.87876815     A.U. after    1 cycles

 Alpha  occ. eigenvalues --  -19.31192 -19.26245 -19.24902 -19.24036 -19.23917
 Alpha  occ. eigenvalues --  -19.20260 -19.19929 -19.19874 -19.19781 -19.19683
 Alpha  occ. eigenvalues --  -19.19672 -19.18470 -14.57515 -14.50171 -14.49226
 Alpha  occ. eigenvalues --  -14.43794 -14.43707 -14.43528 -14.43230 -14.43172
 Alpha  occ. eigenvalues --  -14.42498 -14.41391 -10.42857 -10.40324 -10.38625
 Alpha  occ. eigenvalues --  -10.37959 -10.37223 -10.36935 -10.36720 -10.36531
 Alpha  occ. eigenvalues --  -10.35590 -10.35254 -10.34462 -10.34227 -10.33440
 Alpha  occ. eigenvalues --  -10.33116 -10.32979 -10.31449 -10.31360 -10.30882
 Alpha  occ. eigenvalues --  -10.30881 -10.30578 -10.30034 -10.29720 -10.28743
 Alpha  occ. eigenvalues --  -10.28329 -10.27945 -10.27859 -10.27359 -10.27075
 Alpha  occ. eigenvalues --  -10.26921 -10.26458 -10.26323 -10.25758 -10.25571
 Alpha  occ. eigenvalues --  -10.25451 -10.25006 -10.24510 -10.22815 -10.22032
 Alpha  occ. eigenvalues --   -1.18479  -1.17936  -1.16024  -1.15512  -1.12487
 Alpha  occ. eigenvalues --   -1.12184  -1.12068  -1.11901  -1.11665  -1.11344
 Alpha  occ. eigenvalues --   -1.11147  -1.10232  -1.07367  -1.07071  -1.05533
 Alpha  occ. eigenvalues --   -1.00529  -1.00423  -1.00201  -1.00113  -0.99737
 Alpha  occ. eigenvalues --   -0.98208  -0.97680  -0.94723  -0.93458  -0.88491
 Alpha  occ. eigenvalues --   -0.88230  -0.87547  -0.87076  -0.85813  -0.85199
 Alpha  occ. eigenvalues --   -0.84689  -0.84147  -0.82517  -0.81933  -0.81149
 Alpha  occ. eigenvalues --   -0.80201  -0.78386  -0.77293  -0.75872  -0.74475
 Alpha  occ. eigenvalues --   -0.73566  -0.73328  -0.73078  -0.72555  -0.72180
 Alpha  occ. eigenvalues --   -0.71496  -0.71267  -0.70815  -0.70307  -0.69471
 Alpha  occ. eigenvalues --   -0.69374  -0.68955  -0.68597  -0.67433  -0.66577
 Alpha  occ. eigenvalues --   -0.66198  -0.65426  -0.65332  -0.65282  -0.64990
 Alpha  occ. eigenvalues --   -0.64808  -0.64418  -0.63937  -0.63462  -0.62833
 Alpha  occ. eigenvalues --   -0.61982  -0.61477  -0.60815  -0.59476  -0.59118
 Alpha  occ. eigenvalues --   -0.59033  -0.58329  -0.57606  -0.57312  -0.57116
 Alpha  occ. eigenvalues --   -0.56521  -0.56081  -0.55796  -0.55558  -0.55304
 Alpha  occ. eigenvalues --   -0.54804  -0.54672  -0.54324  -0.54078  -0.53888
 Alpha  occ. eigenvalues --   -0.53652  -0.53551  -0.53255  -0.53161  -0.52954
 Alpha  occ. eigenvalues --   -0.52787  -0.52494  -0.52326  -0.51851  -0.51712
 Alpha  occ. eigenvalues --   -0.51540  -0.51477  -0.51333  -0.51083  -0.50852
 Alpha  occ. eigenvalues --   -0.50749  -0.50650  -0.50486  -0.50295  -0.49676
 Alpha  occ. eigenvalues --   -0.49492  -0.49253  -0.48793  -0.48711  -0.48468
 Alpha  occ. eigenvalues --   -0.48135  -0.48033  -0.47559  -0.47146  -0.46757
 Alpha  occ. eigenvalues --   -0.46473  -0.46376  -0.45936  -0.45755  -0.45462
 Alpha  occ. eigenvalues --   -0.45070  -0.44899  -0.44834  -0.44682  -0.44519
 Alpha  occ. eigenvalues --   -0.44402  -0.44043  -0.43945  -0.43530  -0.43388
 Alpha  occ. eigenvalues --   -0.43203  -0.43046  -0.42614  -0.42247  -0.42184
 Alpha  occ. eigenvalues --   -0.41785  -0.41560  -0.41311  -0.40837  -0.40534
 Alpha  occ. eigenvalues --   -0.40288  -0.39595  -0.38902  -0.38766  -0.38336
 Alpha  occ. eigenvalues --   -0.37905  -0.37665  -0.37118  -0.36480  -0.36391
 Alpha  occ. eigenvalues --   -0.35554  -0.35212  -0.35027  -0.34611  -0.34187
 Alpha  occ. eigenvalues --   -0.33706  -0.33648  -0.33503  -0.33283  -0.33094
 Alpha  occ. eigenvalues --   -0.32981  -0.32912  -0.32529  -0.32309  -0.31858
 Alpha  occ. eigenvalues --   -0.31247
 Alpha virt. eigenvalues --   -0.12093  -0.09954  -0.09390  -0.08941  -0.08562
 Alpha virt. eigenvalues --   -0.06892  -0.06615  -0.06486  -0.05767  -0.05479
 Alpha virt. eigenvalues --   -0.05329  -0.05224  -0.04889  -0.04261  -0.03537

 Mulliken charges:
               1
     1  N   -0.810590
     2  H    0.402700
     3  H    0.433939
     4  H    0.460503
     5  C   -0.096175
     6  H    0.202940
     7  C    0.646971
     8  C   -0.391039
     9  H    0.219202
    10  H    0.173313
    11  O   -0.550016
    12  C    0.279083
    13  C   -0.035862
    14  H    0.170909
    15  N   -0.620220
    16  H    0.343271
    17  C    0.201756
    18  H    0.186769
    19  N   -0.407380
    20  N   -0.570682
    21  H    0.375814
    22  C   -0.084379
    23  H    0.200116
    24  C    0.648692
    25  C    0.120315
    26  H    0.163893
    27  O   -0.514599
    28  C   -0.483128
    29  H    0.198439
    30  H    0.154402
    31  H    0.159135
    32  O   -0.659834
    33  H    0.407672
    34  N   -0.639980
    35  H    0.382393
    36  C   -0.057054
    37  H    0.185196
    38  C    0.610711
    39  C   -0.289754
    40  H    0.165453
    41  H    0.130702
    42  O   -0.537430
    43  C   -0.080031
    44  H    0.159776
    45  C   -0.447983
    46  H    0.147771
    47  H    0.126080
    48  H    0.161074
    49  C   -0.463643
    50  H    0.132769
    51  H    0.153134
    52  H    0.172180
    53  N   -0.571677
    54  H    0.346113
    55  C   -0.069144
    56  H    0.179401
    57  C    0.626028
    58  C   -0.463382
    59  H    0.170238
    60  H    0.175000
    61  H    0.173880
    62  O   -0.543585
    63  N   -0.615093
    64  H    0.365363
    65  C   -0.036851
    66  H    0.190382
    67  C    0.616384
    68  C   -0.384054
    69  H    0.159056
    70  H    0.205039
    71  O   -0.525542
    72  C    0.157084
    73  C   -0.183722
    74  H    0.183369
    75  C   -0.212997
    76  H    0.179691
    77  C   -0.213214
    78  H    0.147448
    79  C   -0.187764
    80  H    0.136412
    81  O   -0.712786
    82  H    0.432215
    83  C    0.353926
    84  N   -0.603299
    85  H    0.351364
    86  C   -0.069507
    87  H    0.204054
    88  C    0.601423
    89  C   -0.315923
    90  H    0.186258
    91  H    0.197086
    92  O   -0.545078
    93  C    0.551185
    94  O   -0.452900
    95  O   -0.577615
    96  N   -0.621076
    97  H    0.365231
    98  C   -0.056470
    99  H    0.214739
   100  C    0.602326
   101  C   -0.290023
   102  H    0.136204
   103  H    0.168873
   104  O   -0.605977
   105  C   -0.276546
   106  H    0.144264
   107  H    0.172846
   108  C   -0.282247
   109  H    0.151967
   110  H    0.146881
   111  C   -0.136854
   112  H    0.151218
   113  H    0.151899
   114  N   -0.775519
   115  H    0.339674
   116  H    0.333011
   117  H    0.483188
   118  O   -0.503284
   119  H    0.444116
 Sum of Mulliken charges =   1.00000

 Dipole moment (field-independent basis, Debye):
    X=             -6.4310    Y=             19.5864    Z=            -18.4851  Tot=             27.6891
 Quadrupole moment (field-independent basis, Debye-Ang):
   XX=           -247.5488   YY=           -226.2424   ZZ=           -265.0871
   XY=             17.5772   XZ=             24.6700   YZ=           -108.1899

 Normal termination of Gaussian 16 at Sun Jun 19 13:57:43 2022.
