 Gaussian 16, Revision C.01,
 Gaussian 16:  ES64L-G16RevC.01  3-Jul-2019

 ----------------------------------------------------------------------
 # B3LYP/6-31G* empiricaldispersion=gd3 guess=read geom=check nosymm in
 tegral(ultrafinegrid)
 ----------------------------------------------------------------------

 ------------------------------------------------------
 Candidate Structure: Conf:234 Charge calc in gas phase
 ------------------------------------------------------
 Structure from the checkpoint file:  "conf-234.chk"
 Charge =  1 Multiplicity = 1

                          Input orientation:
 ---------------------------------------------------------------------
 Center     Atomic      Atomic             Coordinates (Angstroms)
 Number     Number       Type             X           Y           Z
 ---------------------------------------------------------------------
      1          7           0       -5.150434   -5.438965   -6.465826
      2          1           0       -5.485013   -6.406839   -6.488021
      3          1           0       -5.885926   -4.852386   -6.010583
      4          1           0       -4.947260   -5.127076   -7.435415
      5          6           0       -3.932015   -5.250586   -5.601333
      6          1           0       -3.358096   -6.179709   -5.603901
      7          6           0       -4.482252   -4.858185   -4.217180
      8          6           0       -3.093817   -4.060313   -6.164635
      9          1           0       -2.203022   -3.947799   -5.536220
     10          1           0       -3.675147   -3.141276   -6.025278
     11          8           0       -5.612702   -4.378015   -4.161988
     12          6           0       -2.783464   -4.225368   -7.612510
     13          6           0       -3.489019   -3.822508   -8.732787
     14          1           0       -4.346955   -3.160115   -8.769200
     15          7           0       -1.742596   -4.986614   -8.114084
     16          1           0       -0.973224   -5.374284   -7.583750
     17          6           0       -1.853666   -4.976797   -9.479928
     18          1           0       -1.141148   -5.479996  -10.119911
     19          7           0       -2.902153   -4.295567   -9.882232
     20          7           0       -3.619644   -4.999504   -3.188728
     21          1           0       -2.657444   -5.209234   -3.449658
     22          6           0       -3.642195   -4.054533   -2.055674
     23          1           0       -4.665864   -3.693331   -1.938954
     24          6           0       -2.655609   -2.944407   -2.447091
     25          6           0       -3.216347   -4.783487   -0.757501
     26          1           0       -2.220039   -5.223577   -0.936571
     27          8           0       -1.638380   -3.248257   -3.092782
     28          6           0       -3.136129   -3.838924    0.434509
     29          1           0       -2.348113   -3.091826    0.301437
     30          1           0       -2.917762   -4.421065    1.333111
     31          1           0       -4.095561   -3.331875    0.589526
     32          8           0       -4.169419   -5.781107   -0.443315
     33          1           0       -4.177433   -6.434382   -1.160802
     34          7           0       -2.953855   -1.694899   -2.068365
     35          1           0       -3.770106   -1.533163   -1.491561
     36          6           0       -2.066058   -0.551818   -2.332364
     37          1           0       -1.468353   -0.832532   -3.203287
     38          6           0       -1.105131   -0.379244   -1.134455
     39          6           0       -2.861707    0.713507   -2.636920
     40          1           0       -2.135533    1.470622   -2.951105
     41          1           0       -3.304145    1.093482   -1.708334
     42          8           0       -1.155188    0.596717   -0.390674
     43          6           0       -3.956518    0.544034   -3.711930
     44          1           0       -4.777939   -0.042659   -3.272159
     45          6           0       -4.513716    1.924118   -4.088179
     46          1           0       -3.734078    2.525340   -4.572629
     47          1           0       -4.858636    2.473289   -3.204883
     48          1           0       -5.355287    1.838431   -4.784866
     49          6           0       -3.475353   -0.199488   -4.969380
     50          1           0       -2.651135    0.335218   -5.452420
     51          1           0       -4.294270   -0.278796   -5.696018
     52          1           0       -3.133064   -1.215589   -4.738125
     53          7           0       -0.252473   -1.423017   -0.964658
     54          1           0       -0.184906   -2.115259   -1.703213
     55          6           0        0.758612   -1.460626    0.101561
     56          1           0        0.320513   -0.975450    0.977395
     57          6           0        1.983603   -0.638160   -0.343736
     58          6           0        1.144629   -2.895339    0.430063
     59          1           0        1.844829   -2.884792    1.267296
     60          1           0        1.644844   -3.368280   -0.420747
     61          1           0        0.258102   -3.475811    0.708240
     62          8           0        3.035245   -1.161586   -0.711340
     63          7           0        1.773105    0.698421   -0.354358
     64          1           0        0.876041    1.055150   -0.040095
     65          6           0        2.797439    1.642133   -0.786513
     66          1           0        3.441760    1.109540   -1.493086
     67          6           0        3.633168    2.022025    0.453397
     68          6           0        2.165535    2.869897   -1.436154
     69          1           0        1.619340    3.426270   -0.665452
     70          1           0        2.980350    3.538401   -1.742885
     71          8           0        3.502803    3.094605    1.036819
     72          6           0        1.258807    2.589042   -2.621118
     73          6           0        1.287986    1.394726   -3.356517
     74          1           0        1.950217    0.586814   -3.061272
     75          6           0        0.371112    3.587587   -3.042040
     76          1           0        0.314523    4.518707   -2.483400
     77          6           0        0.480898    1.212980   -4.480641
     78          1           0        0.522701    0.294035   -5.057978
     79          6           0       -0.436178    3.426131   -4.167069
     80          1           0       -1.110214    4.223040   -4.476021
     81          8           0       -1.134291    2.014021   -6.020529
     82          1           0       -1.627232    2.821437   -6.235078
     83          6           0       -0.371375    2.237460   -4.898611
     84          7           0        4.468926    1.035960    0.875201
     85          1           0        4.437397    0.115173    0.438682
     86          6           0        5.083356    1.111081    2.182383
     87          1           0        5.520576    2.107237    2.302931
     88          6           0        6.150246    0.012889    2.275457
     89          6           0        4.038242    0.935282    3.329968
     90          1           0        3.267602    1.695797    3.189344
     91          1           0        4.530375    1.083085    4.294846
     92          8           0        6.028932   -1.037361    1.647901
     93          6           0        3.401460   -0.432969    3.279217
     94          8           0        2.464431   -0.749051    2.572344
     95          8           0        4.024346   -1.304852    4.100648
     96          7           0        7.156991    0.258424    3.141247
     97          1           0        7.259378    1.155085    3.602730
     98          6           0        8.171439   -0.733388    3.454929
     99          1           0        7.693401   -1.712235    3.535963
    100          6           0        8.813426   -0.370121    4.782102
    101          6           0        9.274650   -0.792147    2.347405
    102          1           0        9.424306    0.232036    1.984180
    103          1           0        8.842257   -1.359141    1.517611
    104          8           0        9.304154   -1.437012    5.399120
    105          6           0       10.634740   -1.386545    2.777430
    106          1           0       10.467556   -2.211941    3.475816
    107          1           0       11.115609   -1.825038    1.895532
    108          6           0       11.602351   -0.337081    3.397290
    109          1           0       12.284531    0.010546    2.612617
    110          1           0       11.045797    0.554182    3.711379
    111          6           0       12.453843   -0.811311    4.591305
    112          1           0       13.413348   -0.274698    4.593325
    113          1           0       12.683990   -1.878666    4.496487
    114          7           0       11.750554   -0.620301    5.887329
    115          1           0       12.323582   -0.965297    6.656227
    116          1           0       10.192722   -1.163213    5.842717
    117          1           0       11.601734    0.375880    6.052568
    118          8           0        8.956827    0.788014    5.146535
    119          1           0        3.624078   -2.180516    3.943623
 ---------------------------------------------------------------------

 SCF Done:  E(RB3LYP) =  -2933.85412111     A.U. after    2 cycles

 Alpha  occ. eigenvalues --  -19.28487 -19.24643 -19.24429 -19.24428 -19.23766
 Alpha  occ. eigenvalues --  -19.20104 -19.19505 -19.18965 -19.17161 -19.16669
 Alpha  occ. eigenvalues --  -19.15919 -19.15758 -14.61341 -14.51897 -14.50958
 Alpha  occ. eigenvalues --  -14.47911 -14.43464 -14.43250 -14.40633 -14.40473
 Alpha  occ. eigenvalues --  -14.39485 -14.39465 -10.45252 -10.42395 -10.40636
 Alpha  occ. eigenvalues --  -10.37063 -10.36457 -10.36223 -10.36063 -10.35743
 Alpha  occ. eigenvalues --  -10.35397 -10.34969 -10.34928 -10.33564 -10.33227
 Alpha  occ. eigenvalues --  -10.32894 -10.32683 -10.31892 -10.31027 -10.29070
 Alpha  occ. eigenvalues --  -10.28743 -10.27968 -10.27271 -10.26933 -10.26880
 Alpha  occ. eigenvalues --  -10.26702 -10.25743 -10.25059 -10.25003 -10.24993
 Alpha  occ. eigenvalues --  -10.24916 -10.24873 -10.24815 -10.24723 -10.24476
 Alpha  occ. eigenvalues --  -10.24101 -10.23591 -10.22928 -10.22902 -10.22436
 Alpha  occ. eigenvalues --   -1.20826  -1.15840  -1.15380  -1.15328  -1.13871
 Alpha  occ. eigenvalues --   -1.12433  -1.12360  -1.12345  -1.11283  -1.08671
 Alpha  occ. eigenvalues --   -1.08096  -1.07482  -1.07283  -1.06260  -1.04015
 Alpha  occ. eigenvalues --   -1.03921  -0.99684  -0.99642  -0.97598  -0.96979
 Alpha  occ. eigenvalues --   -0.96333  -0.95540  -0.94951  -0.91168  -0.90506
 Alpha  occ. eigenvalues --   -0.88846  -0.87449  -0.85162  -0.84545  -0.83846
 Alpha  occ. eigenvalues --   -0.83082  -0.82451  -0.81695  -0.80718  -0.80188
 Alpha  occ. eigenvalues --   -0.79352  -0.78572  -0.75892  -0.75565  -0.74901
 Alpha  occ. eigenvalues --   -0.74866  -0.74093  -0.73898  -0.73302  -0.73134
 Alpha  occ. eigenvalues --   -0.71662  -0.71500  -0.70898  -0.70111  -0.69244
 Alpha  occ. eigenvalues --   -0.68337  -0.67544  -0.67061  -0.66719  -0.66046
 Alpha  occ. eigenvalues --   -0.65589  -0.65064  -0.64849  -0.64158  -0.64023
 Alpha  occ. eigenvalues --   -0.63607  -0.63312  -0.62526  -0.61719  -0.61628
 Alpha  occ. eigenvalues --   -0.61286  -0.60940  -0.60544  -0.59580  -0.58799
 Alpha  occ. eigenvalues --   -0.58537  -0.57972  -0.57581  -0.57398  -0.56682
 Alpha  occ. eigenvalues --   -0.55644  -0.55392  -0.55143  -0.54822  -0.54614
 Alpha  occ. eigenvalues --   -0.54492  -0.54275  -0.54073  -0.53654  -0.53408
 Alpha  occ. eigenvalues --   -0.53298  -0.52984  -0.52542  -0.52409  -0.52358
 Alpha  occ. eigenvalues --   -0.52144  -0.51781  -0.51704  -0.51485  -0.50702
 Alpha  occ. eigenvalues --   -0.50215  -0.50014  -0.49942  -0.49575  -0.49430
 Alpha  occ. eigenvalues --   -0.49237  -0.48728  -0.48612  -0.48303  -0.48043
 Alpha  occ. eigenvalues --   -0.47753  -0.47693  -0.47457  -0.47292  -0.46843
 Alpha  occ. eigenvalues --   -0.46561  -0.46459  -0.46295  -0.46193  -0.45621
 Alpha  occ. eigenvalues --   -0.45545  -0.45140  -0.44873  -0.44790  -0.44747
 Alpha  occ. eigenvalues --   -0.44359  -0.44173  -0.43809  -0.43699  -0.43429
 Alpha  occ. eigenvalues --   -0.43380  -0.42817  -0.42741  -0.42296  -0.41716
 Alpha  occ. eigenvalues --   -0.41428  -0.41305  -0.41094  -0.40748  -0.40585
 Alpha  occ. eigenvalues --   -0.40349  -0.40325  -0.40248  -0.40152  -0.39863
 Alpha  occ. eigenvalues --   -0.39593  -0.39190  -0.38741  -0.38422  -0.38285
 Alpha  occ. eigenvalues --   -0.37948  -0.37723  -0.37543  -0.37193  -0.36439
 Alpha  occ. eigenvalues --   -0.36391  -0.35821  -0.34530  -0.33571  -0.32788
 Alpha  occ. eigenvalues --   -0.32456  -0.32113  -0.31756  -0.31118  -0.31062
 Alpha  occ. eigenvalues --   -0.30337  -0.29703  -0.29498  -0.28868  -0.28239
 Alpha  occ. eigenvalues --   -0.27644
 Alpha virt. eigenvalues --   -0.14880  -0.11553  -0.10312  -0.10176  -0.07739
 Alpha virt. eigenvalues --   -0.06605  -0.06275  -0.05938  -0.05048  -0.04773
 Alpha virt. eigenvalues --   -0.04593  -0.04208  -0.03205  -0.02995  -0.02623

 Mulliken charges:
               1
     1  N   -0.743147
     2  H    0.420029
     3  H    0.426613
     4  H    0.402353
     5  C   -0.122296
     6  H    0.209312
     7  C    0.642815
     8  C   -0.412475
     9  H    0.231363
    10  H    0.219668
    11  O   -0.502251
    12  C    0.302508
    13  C   -0.101640
    14  H    0.169087
    15  N   -0.603308
    16  H    0.353788
    17  C    0.224468
    18  H    0.199255
    19  N   -0.387611
    20  N   -0.595947
    21  H    0.354175
    22  C   -0.114359
    23  H    0.200846
    24  C    0.649815
    25  C    0.138876
    26  H    0.135636
    27  O   -0.583306
    28  C   -0.483158
    29  H    0.176489
    30  H    0.194321
    31  H    0.159860
    32  O   -0.602307
    33  H    0.398274
    34  N   -0.581176
    35  H    0.352176
    36  C   -0.096098
    37  H    0.196291
    38  C    0.646736
    39  C   -0.295686
    40  H    0.188902
    41  H    0.162087
    42  O   -0.528848
    43  C   -0.065728
    44  H    0.108891
    45  C   -0.442045
    46  H    0.135176
    47  H    0.155983
    48  H    0.145790
    49  C   -0.494249
    50  H    0.198307
    51  H    0.131013
    52  H    0.122164
    53  N   -0.619780
    54  H    0.351982
    55  C   -0.055336
    56  H    0.196812
    57  C    0.659544
    58  C   -0.467798
    59  H    0.191488
    60  H    0.161725
    61  H    0.132930
    62  O   -0.550092
    63  N   -0.606808
    64  H    0.370701
    65  C   -0.089967
    66  H    0.181523
    67  C    0.649905
    68  C   -0.367985
    69  H    0.178727
    70  H    0.178806
    71  O   -0.538024
    72  C    0.167608
    73  C   -0.191154
    74  H    0.151134
    75  C   -0.182230
    76  H    0.143191
    77  C   -0.184700
    78  H    0.131481
    79  C   -0.197947
    80  H    0.129715
    81  O   -0.653756
    82  H    0.413863
    83  C    0.351749
    84  N   -0.625096
    85  H    0.385172
    86  C   -0.066130
    87  H    0.181537
    88  C    0.643742
    89  C   -0.339518
    90  H    0.208967
    91  H    0.177171
    92  O   -0.541080
    93  C    0.580938
    94  O   -0.476385
    95  O   -0.548070
    96  N   -0.625758
    97  H    0.347212
    98  C    0.001515
    99  H    0.186156
   100  C    0.571768
   101  C   -0.282052
   102  H    0.147114
   103  H    0.174729
   104  O   -0.601923
   105  C   -0.285690
   106  H    0.168105
   107  H    0.143188
   108  C   -0.291295
   109  H    0.148835
   110  H    0.163614
   111  C   -0.140472
   112  H    0.145010
   113  H    0.160896
   114  N   -0.777567
   115  H    0.330297
   116  H    0.455359
   117  H    0.341507
   118  O   -0.507845
   119  H    0.411307
 Sum of Mulliken charges =   1.00000

 Dipole moment (field-independent basis, Debye):
    X=             -9.5596    Y=            -22.4928    Z=            -21.6835  Tot=             32.6724
 Quadrupole moment (field-independent basis, Debye-Ang):
   XX=           -150.3669   YY=           -206.0726   ZZ=           -180.8846
   XY=             74.2573   XZ=            149.1184   YZ=            123.4258

 Normal termination of Gaussian 16 at Sun Jun 19 13:58:05 2022.
