 Gaussian 16, Revision C.01,
 Gaussian 16:  ES64L-G16RevC.01  3-Jul-2019

 ----------------------------------------------------------------------
 # B3LYP/6-31G* empiricaldispersion=gd3bj guess=read geom=check nosymm
 integral(ultrafinegrid)
 ----------------------------------------------------------------------

 ------------------------------------------------------
 Candidate Structure: Conf:428 Charge calc in gas phase
 ------------------------------------------------------
 Structure from the checkpoint file:  "conf-428.chk"
 Charge =  1 Multiplicity = 1

                          Input orientation:
 ---------------------------------------------------------------------
 Center     Atomic      Atomic             Coordinates (Angstroms)
 Number     Number       Type             X           Y           Z
 ---------------------------------------------------------------------
      1          7           0        1.312445   -1.477704   -3.551204
      2          1           0        1.940507   -1.505349   -4.355196
      3          1           0        1.788784   -2.100940   -2.801612
      4          1           0        1.261039   -0.504083   -3.187518
      5          6           0       -0.101866   -1.818535   -3.922941
      6          1           0       -0.177457   -1.705777   -5.010862
      7          6           0       -0.949325   -0.681332   -3.302958
      8          6           0       -0.496909   -3.255749   -3.543159
      9          1           0       -1.523967   -3.382545   -3.916354
     10          8           0       -0.378825    0.304890   -2.830598
     11          6           0       -0.500118   -3.488330   -2.020607
     12          1           0       -0.844189   -2.595094   -1.490283
     13          1           0        0.530790   -3.662029   -1.693593
     14          6           0        0.390008   -4.267424   -4.284209
     15          1           0        1.426636   -4.212150   -3.932939
     16          1           0        0.040142   -5.286503   -4.099722
     17          1           0        0.374480   -4.104695   -5.368469
     18          6           0       -1.377950   -4.669777   -1.602075
     19          1           0       -1.359590   -4.791443   -0.514965
     20          1           0       -2.421534   -4.508032   -1.900577
     21          1           0       -1.044391   -5.612533   -2.048954
     22          7           0       -2.281872   -0.838124   -3.368375
     23          1           0       -2.646137   -1.650736   -3.854638
     24          6           0       -3.248392    0.245988   -3.152090
     25          1           0       -3.173632    0.967574   -3.971443
     26          6           0       -2.971289    1.043509   -1.868473
     27          6           0       -4.672063   -0.361619   -3.116225
     28          1           0       -5.376986    0.475277   -3.100729
     29          1           0       -4.796597   -0.909428   -2.176247
     30          8           0       -3.053010    2.262027   -1.860039
     31          6           0       -4.928517   -1.277723   -4.289431
     32          6           0       -5.197253   -0.758599   -5.562633
     33          1           0       -5.294413    0.316546   -5.692338
     34          6           0       -4.811238   -2.667544   -4.139983
     35          1           0       -4.626617   -3.084703   -3.151826
     36          6           0       -5.347979   -1.607079   -6.658101
     37          1           0       -5.566302   -1.190086   -7.636821
     38          6           0       -4.956415   -3.519770   -5.237865
     39          1           0       -4.873533   -4.594228   -5.102274
     40          6           0       -5.223703   -2.989755   -6.499676
     41          1           0       -5.343834   -3.648883   -7.354103
     42          7           0       -2.715229    0.280074   -0.772878
     43          1           0       -2.508693   -0.704846   -0.904500
     44          6           0       -2.048551    0.846285    0.389578
     45          1           0       -1.675539    1.835187    0.103966
     46          6           0       -0.879080   -0.096708    0.683267
     47          6           0       -3.013492    1.018561    1.591188
     48          1           0       -3.829448    1.636060    1.194475
     49          8           0       -0.952532   -1.300404    0.398392
     50          6           0       -3.598509   -0.316719    2.060576
     51          1           0       -2.821613   -0.974103    2.466677
     52          1           0       -4.345659   -0.150970    2.843889
     53          1           0       -4.086466   -0.845024    1.235453
     54          6           0       -2.350885    1.782962    2.742535
     55          1           0       -1.542221    1.200298    3.198041
     56          1           0       -1.932635    2.738415    2.402372
     57          1           0       -3.084798    2.001501    3.525243
     58          7           0        0.216714    0.434664    1.251797
     59          1           0        0.326979    1.428705    1.426280
     60          6           0        1.393008   -0.372369    1.494106
     61          1           0        1.103838   -1.249801    2.082697
     62          6           0        2.401651    0.492519    2.261979
     63          6           0        2.064778   -0.853623    0.167938
     64          1           0        1.359325   -0.683017   -0.648381
     65          1           0        2.953768   -0.244805   -0.031929
     66          8           0        2.280650    1.720096    2.299171
     67          6           0        2.454164   -2.340472    0.219665
     68          1           0        1.543643   -2.944432    0.170874
     69          1           0        2.973080   -2.564321    1.151952
     70          6           0        3.365058   -2.712732   -0.932405
     71          7           0        4.655219   -2.834670   -0.644022
     72          1           0        5.024971   -2.577400    0.300312
     73          1           0        5.294090   -3.030179   -1.404670
     74          8           0        2.923632   -2.877147   -2.102939
     75          7           0        3.440990   -0.198324    2.777637
     76          1           0        3.506916   -1.192800    2.541334
     77          6           0        4.810248    0.320234    2.759957
     78          1           0        4.842169    1.191960    2.095737
     79          6           0        5.730461   -0.790157    2.125809
     80          6           0        5.326642    0.739055    4.133159
     81          1           0        6.393113    0.960805    4.016478
     82          1           0        5.240192   -0.108969    4.826053
     83          8           0        6.916595   -0.491042    1.984704
     84          6           0        4.574859    1.948623    4.691010
     85          1           0        4.640490    2.779958    3.977624
     86          1           0        3.508536    1.712546    4.784506
     87          6           0        5.137178    2.390965    6.049694
     88          1           0        6.207404    2.618777    5.944933
     89          1           0        5.047058    1.568170    6.772897
     90          6           0        4.398801    3.613309    6.563196
     91          1           0        4.493839    4.471092    5.893621
     92          1           0        3.339631    3.419163    6.746435
     93          7           0        4.983190    4.065694    7.908635
     94          1           0        4.510057    4.894612    8.287597
     95          1           0        5.980992    4.288350    7.809299
     96          1           0        4.910505    3.313572    8.604213
     97          8           0        5.117124   -1.875299    1.832478
 ---------------------------------------------------------------------

 SCF Done:  E(RB3LYP) =  -2122.53867657     A.U. after    3 cycles

 Alpha  occ. eigenvalues --  -19.22840 -19.19536 -19.18604 -19.18078 -19.17437
 Alpha  occ. eigenvalues --  -19.12533 -19.10867 -14.63889 -14.51421 -14.46083
 Alpha  occ. eigenvalues --  -14.42657 -14.41359 -14.40752 -14.39808 -10.40423
 Alpha  occ. eigenvalues --  -10.39552 -10.36017 -10.35367 -10.35088 -10.34841
 Alpha  occ. eigenvalues --  -10.34597 -10.32346 -10.31426 -10.29921 -10.29860
 Alpha  occ. eigenvalues --  -10.29218 -10.29002 -10.27597 -10.27377 -10.27326
 Alpha  occ. eigenvalues --  -10.26517 -10.26385 -10.26260 -10.26206 -10.26171
 Alpha  occ. eigenvalues --  -10.26149 -10.26035 -10.25980 -10.25322 -10.25260
 Alpha  occ. eigenvalues --  -10.25211 -10.24574 -10.24328 -10.23484 -10.22735
 Alpha  occ. eigenvalues --   -1.17760  -1.14897  -1.10808  -1.10256  -1.09542
 Alpha  occ. eigenvalues --   -1.09228  -1.06706  -1.05066  -1.02965  -0.99261
 Alpha  occ. eigenvalues --   -0.98372  -0.97876  -0.96624  -0.95683  -0.93699
 Alpha  occ. eigenvalues --   -0.93118  -0.90631  -0.87571  -0.86735  -0.85864
 Alpha  occ. eigenvalues --   -0.85303  -0.82917  -0.81760  -0.81077  -0.80558
 Alpha  occ. eigenvalues --   -0.79248  -0.78964  -0.76670  -0.76375  -0.75785
 Alpha  occ. eigenvalues --   -0.74158  -0.72842  -0.71981  -0.71753  -0.70514
 Alpha  occ. eigenvalues --   -0.69461  -0.67844  -0.67804  -0.67508  -0.65865
 Alpha  occ. eigenvalues --   -0.65760  -0.65652  -0.65268  -0.64968  -0.64392
 Alpha  occ. eigenvalues --   -0.63489  -0.62787  -0.62245  -0.61206  -0.61088
 Alpha  occ. eigenvalues --   -0.60777  -0.58989  -0.58477  -0.57623  -0.56952
 Alpha  occ. eigenvalues --   -0.56590  -0.55631  -0.55048  -0.54767  -0.54252
 Alpha  occ. eigenvalues --   -0.53922  -0.53697  -0.53074  -0.52884  -0.52715
 Alpha  occ. eigenvalues --   -0.52569  -0.52023  -0.51784  -0.51378  -0.51028
 Alpha  occ. eigenvalues --   -0.50319  -0.50096  -0.49756  -0.49559  -0.49228
 Alpha  occ. eigenvalues --   -0.49208  -0.48974  -0.48432  -0.48046  -0.47620
 Alpha  occ. eigenvalues --   -0.47262  -0.46798  -0.46647  -0.46229  -0.46176
 Alpha  occ. eigenvalues --   -0.46000  -0.45700  -0.45228  -0.45068  -0.44889
 Alpha  occ. eigenvalues --   -0.44429  -0.44376  -0.44192  -0.43458  -0.43099
 Alpha  occ. eigenvalues --   -0.42778  -0.42133  -0.42051  -0.41703  -0.41571
 Alpha  occ. eigenvalues --   -0.41366  -0.41226  -0.41155  -0.40965  -0.40511
 Alpha  occ. eigenvalues --   -0.40240  -0.40138  -0.39521  -0.39347  -0.38943
 Alpha  occ. eigenvalues --   -0.38428  -0.36794  -0.35995  -0.34129  -0.33296
 Alpha  occ. eigenvalues --   -0.33218  -0.32718  -0.32498  -0.32076  -0.31819
 Alpha  occ. eigenvalues --   -0.31457  -0.31139  -0.30613  -0.27676  -0.27314
 Alpha  occ. eigenvalues --   -0.24803
 Alpha virt. eigenvalues --   -0.14406  -0.08844  -0.07909  -0.07772  -0.07741
 Alpha virt. eigenvalues --   -0.07631  -0.05879  -0.04908  -0.04429  -0.04364
 Alpha virt. eigenvalues --   -0.03676  -0.03266  -0.01479  -0.00737   0.00013

 Mulliken charges:
               1
     1  N   -0.807693
     2  H    0.391689
     3  H    0.473758
     4  H    0.412686
     5  C   -0.101540
     6  H    0.196814
     7  C    0.646605
     8  C   -0.103680
     9  H    0.145023
    10  O   -0.530596
    11  C   -0.319224
    12  H    0.191670
    13  H    0.166379
    14  C   -0.481032
    15  H    0.178872
    16  H    0.178675
    17  H    0.147367
    18  C   -0.456973
    19  H    0.170306
    20  H    0.138538
    21  H    0.154973
    22  N   -0.644910
    23  H    0.363375
    24  C   -0.029207
    25  H    0.187435
    26  C    0.623782
    27  C   -0.386604
    28  H    0.191428
    29  H    0.170156
    30  O   -0.513607
    31  C    0.139307
    32  C   -0.176376
    33  H    0.145862
    34  C   -0.224909
    35  H    0.143749
    36  C   -0.126918
    37  H    0.151686
    38  C   -0.126249
    39  H    0.147525
    40  C   -0.130189
    41  H    0.150280
    42  N   -0.608997
    43  H    0.351897
    44  C   -0.052028
    45  H    0.177269
    46  C    0.638997
    47  C   -0.067031
    48  H    0.157130
    49  O   -0.568695
    50  C   -0.455585
    51  H    0.153537
    52  H    0.149682
    53  H    0.148749
    54  C   -0.466147
    55  H    0.146702
    56  H    0.145989
    57  H    0.154764
    58  N   -0.624347
    59  H    0.356498
    60  C   -0.016615
    61  H    0.178630
    62  C    0.562776
    63  C   -0.291741
    64  H    0.156051
    65  H    0.170133
    66  O   -0.551387
    67  C   -0.382423
    68  H    0.185402
    69  H    0.196140
    70  C    0.597113
    71  N   -0.731837
    72  H    0.430002
    73  H    0.338733
    74  O   -0.615875
    75  N   -0.597585
    76  H    0.363732
    77  C   -0.084769
    78  H    0.156787
    79  C    0.590935
    80  C   -0.257470
    81  H    0.170719
    82  H    0.138072
    83  O   -0.544617
    84  C   -0.267272
    85  H    0.159486
    86  H    0.169423
    87  C   -0.292325
    88  H    0.166191
    89  H    0.163558
    90  C   -0.206340
    91  H    0.229124
    92  H    0.227978
    93  N   -0.731054
    94  H    0.427484
    95  H    0.426303
    96  H    0.425389
    97  O   -0.645469
 Sum of Mulliken charges =   1.00000

 Dipole moment (field-independent basis, Debye):
    X=              8.1140    Y=              9.8010    Z=             17.0698  Tot=             21.2903
 Quadrupole moment (field-independent basis, Debye-Ang):
   XX=           -216.8793   YY=           -193.6661   ZZ=             49.1300
   XY=             99.4344   XZ=            146.1618   YZ=            163.3782

 Normal termination of Gaussian 16 at Thu Jun 30 19:48:45 2022.
