 Gaussian 16, Revision C.01,
 Gaussian 16:  ES64L-G16RevC.01  3-Jul-2019

 ----------------------------------------------------------------------
 # B3LYP/6-31G* empiricaldispersion=gd3bj guess=read geom=check nosymm
 integral(ultrafinegrid)
 ----------------------------------------------------------------------

 ------------------------------------------------------
 Candidate Structure: Conf:578 Charge calc in gas phase
 ------------------------------------------------------
 Structure from the checkpoint file:  "conf-578.chk"
 Charge =  1 Multiplicity = 1

                          Input orientation:
 ---------------------------------------------------------------------
 Center     Atomic      Atomic             Coordinates (Angstroms)
 Number     Number       Type             X           Y           Z
 ---------------------------------------------------------------------
      1          7           0       -5.542796   -4.345300   -1.892019
      2          1           0       -5.663679   -5.200092   -2.441956
      3          1           0       -6.340592   -4.241075   -1.259449
      4          1           0       -4.633664   -4.413171   -1.349783
      5          6           0       -5.307806   -3.114909   -2.747287
      6          1           0       -5.647157   -3.340385   -3.759273
      7          6           0       -3.773976   -2.955406   -2.672658
      8          6           0       -6.089641   -1.913096   -2.157907
      9          1           0       -7.143544   -2.234627   -2.153796
     10          8           0       -3.177322   -3.542403   -1.761243
     11          6           0       -5.997054   -0.659491   -3.050947
     12          1           0       -4.984185   -0.247835   -2.978778
     13          1           0       -6.650644    0.090420   -2.591621
     14          6           0       -5.646853   -1.578977   -0.724934
     15          1           0       -4.627870   -1.181931   -0.717490
     16          1           0       -6.310020   -0.812769   -0.313911
     17          1           0       -5.690599   -2.436054   -0.040649
     18          6           0       -6.428711   -0.857100   -4.507963
     19          1           0       -6.459578    0.103884   -5.029212
     20          1           0       -5.750449   -1.503704   -5.082387
     21          1           0       -7.429572   -1.299840   -4.574991
     22          7           0       -3.187015   -2.187929   -3.594444
     23          1           0       -3.782156   -1.648576   -4.210143
     24          6           0       -1.831888   -1.675013   -3.385172
     25          1           0       -1.160039   -2.526444   -3.250270
     26          6           0       -1.826274   -0.781561   -2.129721
     27          6           0       -1.411378   -0.852249   -4.624596
     28          1           0       -2.178231   -0.086469   -4.797247
     29          1           0       -1.404974   -1.521092   -5.493044
     30          8           0       -2.812724   -0.095513   -1.845044
     31          6           0       -0.065900   -0.189798   -4.440721
     32          6           0        0.012968    1.148775   -4.040261
     33          1           0       -0.901004    1.723749   -3.912387
     34          6           0        1.115614   -0.924130   -4.592553
     35          1           0        1.067981   -1.963873   -4.909048
     36          6           0        1.250667    1.743482   -3.795867
     37          1           0        1.298132    2.783525   -3.487587
     38          6           0        2.353601   -0.333724   -4.341638
     39          1           0        3.262879   -0.915392   -4.455073
     40          6           0        2.422855    1.001724   -3.943926
     41          1           0        3.388146    1.461295   -3.753956
     42          7           0       -0.672219   -0.778570   -1.452376
     43          1           0        0.136855   -1.292540   -1.794896
     44          6           0       -0.327477    0.246721   -0.479455
     45          1           0       -0.843853    1.170953   -0.760797
     46          6           0        1.189393    0.415031   -0.610733
     47          6           0       -0.766300   -0.146808    0.958450
     48          1           0       -1.841977   -0.344642    0.866319
     49          8           0        1.889489   -0.508594   -1.019417
     50          6           0       -0.064781   -1.418204    1.447864
     51          1           0        1.007388   -1.245989    1.586666
     52          1           0       -0.485185   -1.731745    2.409704
     53          1           0       -0.191950   -2.242575    0.739160
     54          6           0       -0.571270    1.007933    1.949332
     55          1           0        0.492184    1.178245    2.148188
     56          1           0       -1.024351    1.938919    1.583315
     57          1           0       -1.051857    0.767428    2.903612
     58          7           0        1.700684    1.620101   -0.259817
     59          1           0        1.107187    2.265063    0.243547
     60          6           0        3.138180    1.763503   -0.099878
     61          1           0        3.609818    1.507919   -1.053449
     62          6           0        3.662670    0.828796    0.992646
     63          6           0        3.459537    3.224247    0.276379
     64          1           0        3.006360    3.862934   -0.489812
     65          1           0        2.980986    3.455488    1.235004
     66          8           0        2.985998    0.672444    2.038193
     67          6           0        4.954085    3.552763    0.386652
     68          1           0        5.090934    4.628268    0.218755
     69          1           0        5.539395    3.045269   -0.387978
     70          6           0        5.576890    3.257829    1.751279
     71          7           0        6.915085    3.125824    1.745286
     72          1           0        7.349865    2.726260    0.910021
     73          1           0        7.352921    2.813862    2.604973
     74          8           0        4.887726    3.223377    2.787364
     75          7           0        4.872346    0.334203    0.777604
     76          1           0        5.411786    0.600503   -0.060683
     77          6           0        5.834274   -0.054546    1.802337
     78          1           0        5.697081    0.629803    2.641314
     79          6           0        7.253487    0.348944    1.256767
     80          6           0        5.745021   -1.492532    2.322049
     81          1           0        6.767739   -1.825351    2.525871
     82          1           0        5.328223   -2.141292    1.544537
     83          8           0        8.164931    0.226877    2.088755
     84          6           0        4.917423   -1.602300    3.613457
     85          1           0        3.883145   -1.306767    3.399440
     86          1           0        4.874815   -2.649010    3.933687
     87          6           0        5.511894   -0.737579    4.758148
     88          1           0        6.403994   -0.202815    4.408463
     89          1           0        5.860961   -1.380088    5.574097
     90          6           0        4.531657    0.244569    5.396373
     91          1           0        3.648101   -0.280977    5.770618
     92          1           0        4.990427    0.782407    6.230548
     93          7           0        4.020764    1.281966    4.433599
     94          1           0        3.285873    1.852084    4.859467
     95          1           0        3.613076    0.874090    3.541603
     96          1           0        4.725041    1.962985    4.075465
     97          8           0        7.260516    0.855767    0.092411
 ---------------------------------------------------------------------

 SCF Done:  E(RB3LYP) =  -2122.55632215     A.U. after    1 cycles

 Alpha  occ. eigenvalues --  -19.27450 -19.21255 -19.19851 -19.19566 -19.19180
 Alpha  occ. eigenvalues --  -19.11438 -19.10417 -14.60496 -14.50273 -14.50249
 Alpha  occ. eigenvalues --  -14.44700 -14.44083 -14.41342 -14.40483 -10.43961
 Alpha  occ. eigenvalues --  -10.40749 -10.38218 -10.36634 -10.35938 -10.35652
 Alpha  occ. eigenvalues --  -10.34739 -10.34185 -10.32487 -10.31284 -10.30777
 Alpha  occ. eigenvalues --  -10.30108 -10.29966 -10.29571 -10.29437 -10.29155
 Alpha  occ. eigenvalues --  -10.27935 -10.27161 -10.26998 -10.26689 -10.26660
 Alpha  occ. eigenvalues --  -10.26510 -10.26427 -10.26331 -10.26223 -10.26048
 Alpha  occ. eigenvalues --  -10.25948 -10.24935 -10.24289 -10.23940 -10.22738
 Alpha  occ. eigenvalues --   -1.19994  -1.14514  -1.13137  -1.12049  -1.10512
 Alpha  occ. eigenvalues --   -1.09942  -1.06879  -1.05631  -1.04519  -1.01703
 Alpha  occ. eigenvalues --   -1.00671  -0.98517  -0.96402  -0.95644  -0.95527
 Alpha  occ. eigenvalues --   -0.93780  -0.90033  -0.88404  -0.87160  -0.86957
 Alpha  occ. eigenvalues --   -0.86668  -0.84732  -0.82446  -0.82190  -0.82032
 Alpha  occ. eigenvalues --   -0.80553  -0.78469  -0.76623  -0.75733  -0.75478
 Alpha  occ. eigenvalues --   -0.75007  -0.74532  -0.74146  -0.72969  -0.71775
 Alpha  occ. eigenvalues --   -0.69756  -0.68941  -0.68578  -0.68230  -0.67716
 Alpha  occ. eigenvalues --   -0.66607  -0.65960  -0.65791  -0.64340  -0.64178
 Alpha  occ. eigenvalues --   -0.63274  -0.62972  -0.62644  -0.62601  -0.62209
 Alpha  occ. eigenvalues --   -0.60837  -0.60448  -0.59545  -0.58449  -0.58257
 Alpha  occ. eigenvalues --   -0.57980  -0.56984  -0.56583  -0.56026  -0.55272
 Alpha  occ. eigenvalues --   -0.54978  -0.54881  -0.54627  -0.54334  -0.53736
 Alpha  occ. eigenvalues --   -0.53677  -0.53232  -0.52886  -0.52696  -0.52410
 Alpha  occ. eigenvalues --   -0.51966  -0.51811  -0.50961  -0.50917  -0.50096
 Alpha  occ. eigenvalues --   -0.49953  -0.49747  -0.49548  -0.49438  -0.48790
 Alpha  occ. eigenvalues --   -0.48683  -0.48207  -0.47880  -0.47252  -0.47182
 Alpha  occ. eigenvalues --   -0.46630  -0.46608  -0.46405  -0.46262  -0.46081
 Alpha  occ. eigenvalues --   -0.45540  -0.45357  -0.45100  -0.44947  -0.44776
 Alpha  occ. eigenvalues --   -0.43772  -0.43729  -0.43070  -0.42941  -0.42798
 Alpha  occ. eigenvalues --   -0.42271  -0.41818  -0.41689  -0.41315  -0.41180
 Alpha  occ. eigenvalues --   -0.41120  -0.40907  -0.40796  -0.40323  -0.40235
 Alpha  occ. eigenvalues --   -0.39103  -0.38813  -0.37826  -0.35391  -0.35178
 Alpha  occ. eigenvalues --   -0.34565  -0.33740  -0.33566  -0.33114  -0.32708
 Alpha  occ. eigenvalues --   -0.32319  -0.32117  -0.31751  -0.26715  -0.26204
 Alpha  occ. eigenvalues --   -0.24592
 Alpha virt. eigenvalues --   -0.13061  -0.11468  -0.08387  -0.08185  -0.07508
 Alpha virt. eigenvalues --   -0.07026  -0.06184  -0.05851  -0.05140  -0.04954
 Alpha virt. eigenvalues --   -0.02915  -0.02393  -0.01547  -0.00556  -0.00222

 Mulliken charges:
               1
     1  N   -0.758183
     2  H    0.416930
     3  H    0.414000
     4  H    0.435191
     5  C   -0.125558
     6  H    0.211243
     7  C    0.673484
     8  C   -0.105799
     9  H    0.149761
    10  O   -0.539930
    11  C   -0.300556
    12  H    0.195098
    13  H    0.175612
    14  C   -0.496522
    15  H    0.228969
    16  H    0.186883
    17  H    0.125037
    18  C   -0.479595
    19  H    0.190101
    20  H    0.130309
    21  H    0.164766
    22  N   -0.596534
    23  H    0.363146
    24  C   -0.053942
    25  H    0.191248
    26  C    0.637762
    27  C   -0.391073
    28  H    0.161952
    29  H    0.177009
    30  O   -0.556021
    31  C    0.153439
    32  C   -0.181910
    33  H    0.136449
    34  C   -0.192567
    35  H    0.131628
    36  C   -0.131559
    37  H    0.139497
    38  C   -0.105069
    39  H    0.155733
    40  C   -0.120662
    41  H    0.147216
    42  N   -0.591548
    43  H    0.371135
    44  C   -0.057742
    45  H    0.166409
    46  C    0.659646
    47  C   -0.064249
    48  H    0.146293
    49  O   -0.543838
    50  C   -0.468757
    51  H    0.183147
    52  H    0.141865
    53  H    0.150120
    54  C   -0.493314
    55  H    0.176615
    56  H    0.136800
    57  H    0.153790
    58  N   -0.617682
    59  H    0.338227
    60  C   -0.028349
    61  H    0.178211
    62  C    0.645964
    63  C   -0.309557
    64  H    0.156953
    65  H    0.172230
    66  O   -0.617393
    67  C   -0.374546
    68  H    0.193336
    69  H    0.186357
    70  C    0.605803
    71  N   -0.717260
    72  H    0.387137
    73  H    0.348908
    74  O   -0.589720
    75  N   -0.576863
    76  H    0.365019
    77  C   -0.054948
    78  H    0.107500
    79  C    0.580179
    80  C   -0.265555
    81  H    0.185258
    82  H    0.149779
    83  O   -0.569261
    84  C   -0.298741
    85  H    0.147275
    86  H    0.148808
    87  C   -0.292473
    88  H    0.196887
    89  H    0.170936
    90  C   -0.184014
    91  H    0.182790
    92  H    0.188016
    93  N   -0.789497
    94  H    0.382334
    95  H    0.454875
    96  H    0.419649
    97  O   -0.629924
 Sum of Mulliken charges =   1.00000

 Dipole moment (field-independent basis, Debye):
    X=            -24.6187    Y=             -9.3406    Z=             -4.2554  Tot=             26.6727
 Quadrupole moment (field-independent basis, Debye-Ang):
   XX=           -205.6574   YY=           -192.0907   ZZ=           -176.1910
   XY=             92.5492   XZ=             75.3596   YZ=             38.1796

 Normal termination of Gaussian 16 at Thu Jun 30 19:47:28 2022.
