 Gaussian 16, Revision C.01,
 Gaussian 16:  ES64L-G16RevC.01  3-Jul-2019

 ----------------------------------------------------------------------
 # B3LYP/6-31G* empiricaldispersion=gd3bj guess=read geom=check nosymm
 integral(ultrafinegrid)
 ----------------------------------------------------------------------

 ------------------------------------------------------
 Candidate Structure: Conf:879 Charge calc in gas phase
 ------------------------------------------------------
 Structure from the checkpoint file:  "conf-879.chk"
 Charge =  1 Multiplicity = 1

                          Input orientation:
 ---------------------------------------------------------------------
 Center     Atomic      Atomic             Coordinates (Angstroms)
 Number     Number       Type             X           Y           Z
 ---------------------------------------------------------------------
      1          7           0       -5.394356   -3.143611   -5.481546
      2          1           0       -4.783978   -2.728541   -6.209235
      3          1           0       -6.344148   -3.267625   -5.841345
      4          1           0       -4.952581   -4.053080   -5.224747
      5          6           0       -5.330800   -2.327382   -4.210026
      6          1           0       -5.259085   -1.282166   -4.510735
      7          6           0       -4.001441   -2.815638   -3.601380
      8          6           0       -6.572874   -2.563447   -3.327685
      9          1           0       -7.437987   -2.239484   -3.927073
     10          8           0       -3.631429   -3.964475   -3.867166
     11          6           0       -6.524008   -1.668582   -2.072024
     12          1           0       -5.679904   -1.974353   -1.441117
     13          1           0       -7.426740   -1.888441   -1.491776
     14          6           0       -6.754682   -4.039380   -2.947336
     15          1           0       -5.913083   -4.406471   -2.352651
     16          1           0       -7.665621   -4.154162   -2.353698
     17          1           0       -6.858372   -4.697474   -3.818514
     18          6           0       -6.465432   -0.162061   -2.344796
     19          1           0       -6.546903    0.396602   -1.408562
     20          1           0       -5.527443    0.156663   -2.816920
     21          1           0       -7.287424    0.157457   -2.995821
     22          7           0       -3.310147   -1.936135   -2.874455
     23          1           0       -3.681563   -1.027660   -2.608761
     24          6           0       -1.902000   -2.112720   -2.567645
     25          1           0       -1.713887   -3.174933   -2.399486
     26          6           0       -1.637755   -1.259568   -1.320598
     27          6           0       -1.011091   -1.577378   -3.743127
     28          1           0       -0.003213   -1.988204   -3.623900
     29          1           0       -0.933111   -0.490254   -3.635217
     30          8           0       -2.381877   -0.311580   -1.071465
     31          6           0       -1.573514   -1.902593   -5.107642
     32          6           0       -2.431913   -0.995032   -5.741329
     33          1           0       -2.617223   -0.026625   -5.283330
     34          6           0       -1.319373   -3.130473   -5.731609
     35          1           0       -0.660308   -3.847984   -5.251272
     36          6           0       -3.033142   -1.306772   -6.966247
     37          1           0       -3.658965   -0.570653   -7.464509
     38          6           0       -1.915006   -3.451795   -6.949795
     39          1           0       -1.697930   -4.405217   -7.421477
     40          6           0       -2.778151   -2.543036   -7.572871
     41          1           0       -3.212544   -2.777878   -8.540832
     42          7           0       -0.542368   -1.580727   -0.606224
     43          1           0        0.063813   -2.340517   -0.892761
     44          6           0       -0.027518   -0.736763    0.470056
     45          1           0       -0.535369    0.227583    0.381248
     46          6           0        1.473098   -0.606507    0.210207
     47          6           0       -0.296022   -1.324507    1.875952
     48          1           0        0.256121   -2.274902    1.928448
     49          8           0        2.136227   -1.636676   -0.025996
     50          6           0        0.238669   -0.377594    2.959060
     51          1           0       -0.285703    0.585885    2.918958
     52          1           0        0.058042   -0.800493    3.952527
     53          1           0        1.311300   -0.185690    2.858570
     54          6           0       -1.787788   -1.610918    2.072657
     55          1           0       -2.377495   -0.693047    1.972486
     56          1           0       -2.162458   -2.334365    1.342163
     57          1           0       -1.963599   -2.019528    3.072895
     58          7           0        1.976549    0.630484    0.204227
     59          1           0        1.379194    1.397216    0.486670
     60          6           0        3.393097    0.916816    0.032693
     61          1           0        3.753103    0.239362   -0.749795
     62          6           0        4.168959    0.576386    1.323802
     63          6           0        3.600581    2.374306   -0.412974
     64          1           0        4.619026    2.478033   -0.799418
     65          1           0        2.930710    2.590777   -1.252448
     66          8           0        3.600253   -0.009350    2.278380
     67          6           0        3.393520    3.410437    0.703009
     68          1           0        4.034770    3.175823    1.555808
     69          1           0        2.350373    3.433170    1.038217
     70          6           0        3.720237    4.803279    0.154221
     71          7           0        4.993929    5.198496    0.376439
     72          1           0        5.701058    4.575223    0.786535
     73          1           0        5.287151    6.072567   -0.038051
     74          8           0        2.877640    5.446447   -0.465962
     75          7           0        5.449290    0.907917    1.298447
     76          1           0        5.768828    1.664794    0.656588
     77          6           0        6.292706    1.068104    2.488669
     78          1           0        5.640574    1.131400    3.366350
     79          6           0        6.999574    2.468903    2.293668
     80          6           0        7.297462   -0.064882    2.696284
     81          1           0        7.903884    0.229786    3.557072
     82          1           0        7.980617   -0.119292    1.838186
     83          8           0        7.765578    2.818984    3.186975
     84          6           0        6.641470   -1.435161    2.939315
     85          1           0        7.312808   -2.080672    3.519416
     86          1           0        5.751378   -1.282896    3.565514
     87          6           0        6.264212   -2.181262    1.642448
     88          1           0        7.151105   -2.680039    1.235696
     89          1           0        5.935088   -1.477487    0.870621
     90          6           0        5.187825   -3.244134    1.851152
     91          1           0        5.119778   -3.944205    1.015022
     92          1           0        5.372902   -3.814630    2.765168
     93          7           0        3.827262   -2.601574    1.997822
     94          1           0        3.187590   -3.166561    2.559998
     95          1           0        3.353123   -2.412547    1.090617
     96          1           0        3.875371   -1.625020    2.407584
     97          8           0        6.663228    3.055854    1.204119
 ---------------------------------------------------------------------

 SCF Done:  E(RB3LYP) =  -2122.53976614     A.U. after    3 cycles

 Alpha  occ. eigenvalues --  -19.26905 -19.23591 -19.23318 -19.20380 -19.12827
 Alpha  occ. eigenvalues --  -19.11406 -19.09639 -14.60039 -14.52766 -14.50202
 Alpha  occ. eigenvalues --  -14.47997 -14.47161 -14.41301 -14.36195 -10.43958
 Alpha  occ. eigenvalues --  -10.40886 -10.40426 -10.40036 -10.36600 -10.36463
 Alpha  occ. eigenvalues --  -10.34486 -10.34324 -10.33723 -10.32189 -10.32091
 Alpha  occ. eigenvalues --  -10.32054 -10.31854 -10.31657 -10.31546 -10.31225
 Alpha  occ. eigenvalues --  -10.31120 -10.31032 -10.30853 -10.30693 -10.29429
 Alpha  occ. eigenvalues --  -10.29198 -10.28643 -10.27572 -10.26398 -10.26176
 Alpha  occ. eigenvalues --  -10.25633 -10.25501 -10.25369 -10.23835 -10.23024
 Alpha  occ. eigenvalues --   -1.19641  -1.15901  -1.14720  -1.14165  -1.11400
 Alpha  occ. eigenvalues --   -1.07935  -1.07170  -1.04563  -1.04383  -1.04047
 Alpha  occ. eigenvalues --   -1.03417  -0.98781  -0.98174  -0.96015  -0.95189
 Alpha  occ. eigenvalues --   -0.92150  -0.91470  -0.90341  -0.88422  -0.88062
 Alpha  occ. eigenvalues --   -0.87166  -0.86832  -0.86150  -0.84668  -0.82701
 Alpha  occ. eigenvalues --   -0.81804  -0.79220  -0.78379  -0.77091  -0.76684
 Alpha  occ. eigenvalues --   -0.76174  -0.74804  -0.73819  -0.72821  -0.72715
 Alpha  occ. eigenvalues --   -0.71884  -0.70855  -0.70770  -0.69936  -0.69429
 Alpha  occ. eigenvalues --   -0.69344  -0.68140  -0.67487  -0.66417  -0.66088
 Alpha  occ. eigenvalues --   -0.64712  -0.63734  -0.63224  -0.62853  -0.62581
 Alpha  occ. eigenvalues --   -0.61383  -0.61024  -0.60467  -0.60267  -0.59525
 Alpha  occ. eigenvalues --   -0.58911  -0.58231  -0.58144  -0.57331  -0.56877
 Alpha  occ. eigenvalues --   -0.56693  -0.55922  -0.55708  -0.55451  -0.55104
 Alpha  occ. eigenvalues --   -0.54668  -0.54292  -0.54210  -0.53785  -0.53454
 Alpha  occ. eigenvalues --   -0.53203  -0.52614  -0.52499  -0.52161  -0.51869
 Alpha  occ. eigenvalues --   -0.51661  -0.50950  -0.50244  -0.49982  -0.49920
 Alpha  occ. eigenvalues --   -0.49526  -0.49149  -0.49078  -0.48941  -0.48863
 Alpha  occ. eigenvalues --   -0.48162  -0.47792  -0.47657  -0.47458  -0.46686
 Alpha  occ. eigenvalues --   -0.46579  -0.46253  -0.46125  -0.46046  -0.45671
 Alpha  occ. eigenvalues --   -0.45621  -0.45196  -0.44747  -0.44231  -0.43521
 Alpha  occ. eigenvalues --   -0.43088  -0.42645  -0.42418  -0.41554  -0.41441
 Alpha  occ. eigenvalues --   -0.41352  -0.41029  -0.40297  -0.40034  -0.39683
 Alpha  occ. eigenvalues --   -0.39117  -0.38889  -0.38513  -0.37833  -0.37722
 Alpha  occ. eigenvalues --   -0.37372  -0.37088  -0.36657  -0.36028  -0.34182
 Alpha  occ. eigenvalues --   -0.32821  -0.27992  -0.27112  -0.26278  -0.26107
 Alpha  occ. eigenvalues --   -0.23588
 Alpha virt. eigenvalues --   -0.14225  -0.13149  -0.12606  -0.10138  -0.09986
 Alpha virt. eigenvalues --   -0.08304  -0.06805  -0.05915  -0.05653  -0.04785
 Alpha virt. eigenvalues --   -0.03334  -0.02605  -0.02276  -0.01719  -0.00971

 Mulliken charges:
               1
     1  N   -0.761944
     2  H    0.410974
     3  H    0.405873
     4  H    0.426906
     5  C   -0.114275
     6  H    0.203642
     7  C    0.671701
     8  C   -0.105203
     9  H    0.152648
    10  O   -0.545048
    11  C   -0.279180
    12  H    0.163364
    13  H    0.177190
    14  C   -0.473515
    15  H    0.187579
    16  H    0.191186
    17  H    0.136876
    18  C   -0.470170
    19  H    0.193290
    20  H    0.137037
    21  H    0.164572
    22  N   -0.616667
    23  H    0.378717
    24  C   -0.061606
    25  H    0.195261
    26  C    0.636644
    27  C   -0.371276
    28  H    0.177546
    29  H    0.184867
    30  O   -0.534065
    31  C    0.165235
    32  C   -0.189250
    33  H    0.151823
    34  C   -0.142963
    35  H    0.153451
    36  C   -0.189702
    37  H    0.163667
    38  C   -0.127436
    39  H    0.166925
    40  C   -0.176332
    41  H    0.165253
    42  N   -0.613009
    43  H    0.347981
    44  C   -0.047772
    45  H    0.183794
    46  C    0.645305
    47  C   -0.073327
    48  H    0.112336
    49  O   -0.612851
    50  C   -0.499981
    51  H    0.152661
    52  H    0.161110
    53  H    0.196599
    54  C   -0.446697
    55  H    0.165421
    56  H    0.138842
    57  H    0.160854
    58  N   -0.570176
    59  H    0.360949
    60  C   -0.059872
    61  H    0.186028
    62  C    0.594845
    63  C   -0.325509
    64  H    0.192832
    65  H    0.170273
    66  O   -0.604309
    67  C   -0.360476
    68  H    0.177320
    69  H    0.140210
    70  C    0.567033
    71  N   -0.765553
    72  H    0.408480
    73  H    0.331833
    74  O   -0.529606
    75  N   -0.575225
    76  H    0.381513
    77  C   -0.093719
    78  H    0.165134
    79  C    0.605795
    80  C   -0.263406
    81  H    0.187477
    82  H    0.143643
    83  O   -0.533729
    84  C   -0.282148
    85  H    0.151584
    86  H    0.136189
    87  C   -0.291069
    88  H    0.175827
    89  H    0.171545
    90  C   -0.178728
    91  H    0.187540
    92  H    0.193593
    93  N   -0.802176
    94  H    0.383209
    95  H    0.432999
    96  H    0.452624
    97  O   -0.637634
 Sum of Mulliken charges =   1.00000

 Dipole moment (field-independent basis, Debye):
    X=            -23.6102    Y=            -25.9365    Z=            -19.9654  Tot=             40.3579
 Quadrupole moment (field-independent basis, Debye-Ang):
   XX=           -188.7993   YY=           -253.2056   ZZ=           -148.1695
   XY=            -21.6916   XZ=             87.3363   YZ=             28.8870

 Normal termination of Gaussian 16 at Thu Jun 30 19:47:48 2022.
