 Gaussian 16, Revision C.01,
 Gaussian 16:  ES64L-G16RevC.01  3-Jul-2019

 ----------------------------------------------------------------------
 # B3LYP/6-31G* empiricaldispersion=gd3bj guess=read geom=check nosymm
 integral(ultrafinegrid)
 ----------------------------------------------------------------------

 ------------------------------------------------------
 Candidate Structure: Conf:472 Charge calc in gas phase
 ------------------------------------------------------
 Structure from the checkpoint file:  "conf-472.chk"
 Charge =  1 Multiplicity = 1

                          Input orientation:
 ---------------------------------------------------------------------
 Center     Atomic      Atomic             Coordinates (Angstroms)
 Number     Number       Type             X           Y           Z
 ---------------------------------------------------------------------
      1          7           0       -2.890429    1.422192   -5.880335
      2          1           0       -2.204582    1.359886   -6.637979
      3          1           0       -3.592150    2.124111   -6.129397
      4          1           0       -3.321680    0.473092   -5.737670
      5          6           0       -2.253459    1.693174   -4.526282
      6          1           0       -1.337853    2.272036   -4.657184
      7          6           0       -1.972372    0.258355   -4.031056
      8          6           0       -3.273251    2.466817   -3.656300
      9          1           0       -4.226918    1.919490   -3.720398
     10          8           0       -2.741712   -0.637495   -4.412686
     11          6           0       -3.465425    3.893679   -4.214164
     12          1           0       -3.673090    3.872085   -5.297436
     13          1           0       -2.515747    4.433771   -4.106127
     14          6           0       -2.837368    2.494019   -2.186626
     15          1           0       -1.885076    3.022638   -2.085755
     16          1           0       -3.587548    3.017321   -1.589623
     17          1           0       -2.720487    1.490923   -1.772593
     18          6           0       -4.598247    4.676088   -3.544157
     19          1           0       -4.739828    5.641780   -4.038344
     20          1           0       -5.545913    4.127945   -3.599547
     21          1           0       -4.384642    4.874331   -2.490595
     22          7           0       -0.897382    0.098470   -3.262657
     23          1           0       -0.320461    0.937223   -3.084164
     24          6           0       -0.546723   -1.185731   -2.673554
     25          1           0       -1.115576   -1.947611   -3.215075
     26          6           0       -1.008589   -1.207293   -1.192444
     27          6           0        0.972968   -1.426829   -2.875437
     28          1           0        1.532097   -0.709405   -2.264561
     29          1           0        1.188462   -1.181262   -3.921349
     30          8           0       -1.780230   -0.349244   -0.758027
     31          6           0        1.447488   -2.831558   -2.572509
     32          6           0        0.956595   -3.922473   -3.303181
     33          1           0        0.259048   -3.754363   -4.120284
     34          6           0        2.352796   -3.071552   -1.528742
     35          1           0        2.720686   -2.238772   -0.934801
     36          6           0        1.354054   -5.222140   -2.993459
     37          1           0        0.964510   -6.056547   -3.568594
     38          6           0        2.750168   -4.373078   -1.216416
     39          1           0        3.448152   -4.541580   -0.401918
     40          6           0        2.250307   -5.451109   -1.946885
     41          1           0        2.556537   -6.463938   -1.704330
     42          7           0       -0.497820   -2.190871   -0.415907
     43          1           0        0.199077   -2.808771   -0.815049
     44          6           0       -0.555293   -2.161828    1.055022
     45          1           0       -1.548706   -1.801727    1.338620
     46          6           0        0.520850   -1.126508    1.452698
     47          6           0       -0.303642   -3.552443    1.645858
     48          1           0        0.729231   -3.827029    1.394660
     49          8           0        1.690006   -1.460108    1.710546
     50          6           0       -0.430441   -3.495606    3.173172
     51          1           0       -1.448747   -3.219113    3.472019
     52          1           0       -0.210749   -4.474328    3.610830
     53          1           0        0.262027   -2.768661    3.608775
     54          6           0       -1.257480   -4.594736    1.050538
     55          1           0       -2.303133   -4.325848    1.242401
     56          1           0       -1.130894   -4.699413   -0.031331
     57          1           0       -1.075430   -5.573922    1.504624
     58          7           0        0.122109    0.153030    1.304042
     59          1           0       -0.833588    0.278959    0.983766
     60          6           0        1.064253    1.206572    0.952984
     61          1           0        1.984291    0.677724    0.665805
     62          6           0        1.521636    2.053744    2.160051
     63          6           0        0.558633    2.008479   -0.266009
     64          1           0       -0.245214    1.453028   -0.750666
     65          1           0        0.120736    2.958059    0.060657
     66          8           0        1.479982    1.554819    3.303544
     67          6           0        1.669135    2.280800   -1.299523
     68          1           0        2.004573    1.335479   -1.740096
     69          1           0        2.528258    2.772925   -0.841199
     70          6           0        1.109994    3.144979   -2.410715
     71          7           0        1.437379    4.436573   -2.358127
     72          1           0        1.974636    4.821574   -1.560427
     73          1           0        1.037704    5.066486   -3.041433
     74          8           0        0.349656    2.646176   -3.273430
     75          7           0        2.094178    3.189991    1.773435
     76          1           0        1.936714    3.551601    0.817084
     77          6           0        3.050035    4.157264    2.333827
     78          1           0        2.648865    4.610438    3.244320
     79          6           0        3.193805    5.252427    1.196756
     80          6           0        4.462618    3.549507    2.625437
     81          1           0        4.962798    4.198853    3.348561
     82          1           0        5.068304    3.559845    1.711526
     83          8           0        3.892936    6.223393    1.457996
     84          6           0        4.260369    2.122954    3.117409
     85          1           0        3.534987    2.171454    3.931295
     86          1           0        3.754284    1.637053    2.278063
     87          6           0        5.352778    1.132946    3.522890
     88          1           0        5.659350    1.257332    4.567506
     89          1           0        6.257615    1.222601    2.910190
     90          6           0        4.785818   -0.277880    3.269091
     91          1           0        4.741938   -0.464657    2.193507
     92          1           0        5.370178   -1.074959    3.734106
     93          7           0        3.347451   -0.448939    3.743005
     94          1           0        2.846936   -1.154543    3.171051
     95          1           0        2.736509    0.404915    3.605408
     96          1           0        3.296062   -0.702858    4.732230
     97          8           0        2.585959    4.937588    0.105630
 ---------------------------------------------------------------------

 SCF Done:  E(RB3LYP) =  -2122.54044184     A.U. after    3 cycles

 Alpha  occ. eigenvalues --  -19.24803 -19.23087 -19.22817 -19.21208 -19.19684
 Alpha  occ. eigenvalues --  -19.13688 -19.11405 -14.58621 -14.53631 -14.47542
 Alpha  occ. eigenvalues --  -14.46592 -14.45849 -14.43082 -14.41758 -10.41504
 Alpha  occ. eigenvalues --  -10.39853 -10.39440 -10.37930 -10.37705 -10.36836
 Alpha  occ. eigenvalues --  -10.35254 -10.34888 -10.33186 -10.32729 -10.31909
 Alpha  occ. eigenvalues --  -10.30699 -10.30591 -10.29883 -10.29879 -10.28906
 Alpha  occ. eigenvalues --  -10.28716 -10.28709 -10.28684 -10.28531 -10.28432
 Alpha  occ. eigenvalues --  -10.28369 -10.28274 -10.28094 -10.27488 -10.27017
 Alpha  occ. eigenvalues --  -10.26620 -10.26053 -10.26028 -10.25700 -10.24916
 Alpha  occ. eigenvalues --   -1.17353  -1.15022  -1.13954  -1.12395  -1.11888
 Alpha  occ. eigenvalues --   -1.10997  -1.08470  -1.05966  -1.04713  -1.03583
 Alpha  occ. eigenvalues --   -1.02537  -0.99624  -0.98568  -0.96862  -0.95611
 Alpha  occ. eigenvalues --   -0.93488  -0.90855  -0.89719  -0.89081  -0.88814
 Alpha  occ. eigenvalues --   -0.86194  -0.84179  -0.84088  -0.83660  -0.82508
 Alpha  occ. eigenvalues --   -0.80957  -0.79553  -0.77585  -0.76957  -0.76574
 Alpha  occ. eigenvalues --   -0.75214  -0.73562  -0.72542  -0.72098  -0.71302
 Alpha  occ. eigenvalues --   -0.70652  -0.70192  -0.69909  -0.69128  -0.68569
 Alpha  occ. eigenvalues --   -0.67882  -0.67552  -0.67251  -0.66964  -0.66141
 Alpha  occ. eigenvalues --   -0.64457  -0.64002  -0.63362  -0.62268  -0.61698
 Alpha  occ. eigenvalues --   -0.61428  -0.61035  -0.60586  -0.59646  -0.59620
 Alpha  occ. eigenvalues --   -0.59093  -0.58427  -0.57435  -0.56971  -0.56873
 Alpha  occ. eigenvalues --   -0.56518  -0.55729  -0.54983  -0.54813  -0.54617
 Alpha  occ. eigenvalues --   -0.54378  -0.54205  -0.53346  -0.53020  -0.52710
 Alpha  occ. eigenvalues --   -0.52399  -0.52303  -0.51860  -0.51516  -0.51297
 Alpha  occ. eigenvalues --   -0.50939  -0.50668  -0.50527  -0.50402  -0.49815
 Alpha  occ. eigenvalues --   -0.49613  -0.49259  -0.48958  -0.48814  -0.48464
 Alpha  occ. eigenvalues --   -0.47993  -0.47353  -0.47193  -0.46808  -0.46691
 Alpha  occ. eigenvalues --   -0.46427  -0.46217  -0.46146  -0.45261  -0.44956
 Alpha  occ. eigenvalues --   -0.44543  -0.44381  -0.44130  -0.43884  -0.43734
 Alpha  occ. eigenvalues --   -0.43607  -0.43363  -0.43231  -0.42954  -0.42566
 Alpha  occ. eigenvalues --   -0.42514  -0.42101  -0.41862  -0.41053  -0.39838
 Alpha  occ. eigenvalues --   -0.39261  -0.39230  -0.38735  -0.37998  -0.37098
 Alpha  occ. eigenvalues --   -0.36269  -0.35419  -0.35145  -0.35096  -0.34451
 Alpha  occ. eigenvalues --   -0.34048  -0.33572  -0.32527  -0.28895  -0.28188
 Alpha  occ. eigenvalues --   -0.25447
 Alpha virt. eigenvalues --   -0.11196  -0.10999  -0.09920  -0.09765  -0.09189
 Alpha virt. eigenvalues --   -0.07996  -0.07622  -0.06147  -0.05227  -0.04856
 Alpha virt. eigenvalues --   -0.02463  -0.01268  -0.00982  -0.00551  -0.00076

 Mulliken charges:
               1
     1  N   -0.754173
     2  H    0.412085
     3  H    0.406689
     4  H    0.423826
     5  C   -0.126965
     6  H    0.239186
     7  C    0.624871
     8  C   -0.093774
     9  H    0.148735
    10  O   -0.552498
    11  C   -0.274717
    12  H    0.105566
    13  H    0.168229
    14  C   -0.514619
    15  H    0.172719
    16  H    0.171632
    17  H    0.215060
    18  C   -0.453294
    19  H    0.171686
    20  H    0.156228
    21  H    0.174529
    22  N   -0.609725
    23  H    0.413363
    24  C   -0.096512
    25  H    0.216468
    26  C    0.634250
    27  C   -0.377466
    28  H    0.168347
    29  H    0.183797
    30  O   -0.528219
    31  C    0.106894
    32  C   -0.169182
    33  H    0.142634
    34  C   -0.208393
    35  H    0.144741
    36  C   -0.126395
    37  H    0.157942
    38  C   -0.119167
    39  H    0.149000
    40  C   -0.126952
    41  H    0.157355
    42  N   -0.615825
    43  H    0.375869
    44  C   -0.043475
    45  H    0.182434
    46  C    0.616432
    47  C   -0.104148
    48  H    0.148453
    49  O   -0.591761
    50  C   -0.456847
    51  H    0.157123
    52  H    0.163601
    53  H    0.140407
    54  C   -0.451293
    55  H    0.154562
    56  H    0.151323
    57  H    0.161579
    58  N   -0.564644
    59  H    0.374234
    60  C   -0.050375
    61  H    0.173696
    62  C    0.598202
    63  C   -0.369559
    64  H    0.181089
    65  H    0.191467
    66  O   -0.578084
    67  C   -0.389243
    68  H    0.156559
    69  H    0.202177
    70  C    0.599852
    71  N   -0.734732
    72  H    0.425706
    73  H    0.337616
    74  O   -0.584771
    75  N   -0.627462
    76  H    0.407333
    77  C   -0.060900
    78  H    0.173932
    79  C    0.593141
    80  C   -0.269928
    81  H    0.175832
    82  H    0.153215
    83  O   -0.529222
    84  C   -0.308087
    85  H    0.173663
    86  H    0.125953
    87  C   -0.265922
    88  H    0.167507
    89  H    0.177289
    90  C   -0.194043
    91  H    0.200241
    92  H    0.191943
    93  N   -0.800952
    94  H    0.431481
    95  H    0.451642
    96  H    0.389406
    97  O   -0.647464
 Sum of Mulliken charges =   1.00000

 Dipole moment (field-independent basis, Debye):
    X=             -2.6211    Y=             -7.8980    Z=            -11.2874  Tot=             14.0233
 Quadrupole moment (field-independent basis, Debye-Ang):
   XX=           -219.2583   YY=           -278.5082   ZZ=           -127.3817
   XY=            -66.6829   XZ=             74.4571   YZ=            -50.2927

 Normal termination of Gaussian 16 at Thu Jun 30 19:48:50 2022.
