 Gaussian 16, Revision C.01,
 Gaussian 16:  ES64L-G16RevC.01  3-Jul-2019

 ----------------------------------------------------------------------
 # B3LYP/6-31G* empiricaldispersion=gd3bj guess=read geom=check nosymm
 integral(ultrafinegrid)
 ----------------------------------------------------------------------

 -----------------------------------------------------
 Candidate Structure: Conf:95 Charge calc in gas phase
 -----------------------------------------------------
 Structure from the checkpoint file:  "conf-95.chk"
 Charge =  1 Multiplicity = 1

                          Input orientation:
 ---------------------------------------------------------------------
 Center     Atomic      Atomic             Coordinates (Angstroms)
 Number     Number       Type             X           Y           Z
 ---------------------------------------------------------------------
      1          7           0       -4.266249    2.339318   -5.279091
      2          1           0       -3.818872    3.053972   -5.858582
      3          1           0       -5.253161    2.581613   -5.159194
      4          1           0       -4.158420    1.385573   -5.748942
      5          6           0       -3.552482    2.104993   -3.961189
      6          1           0       -2.833205    2.914497   -3.818915
      7          6           0       -2.837766    0.753645   -4.221039
      8          6           0       -4.567974    2.074740   -2.794069
      9          1           0       -5.144054    3.009415   -2.882469
     10          8           0       -3.182254    0.107851   -5.226255
     11          6           0       -3.847832    2.126976   -1.429960
     12          1           0       -3.048819    2.880187   -1.474811
     13          1           0       -3.364708    1.165945   -1.221840
     14          6           0       -5.528824    0.882567   -2.904994
     15          1           0       -4.996516   -0.063642   -2.763637
     16          1           0       -6.303668    0.949706   -2.138697
     17          1           0       -6.042777    0.829775   -3.872733
     18          6           0       -4.788029    2.476289   -0.272234
     19          1           0       -4.221652    2.554635    0.659949
     20          1           0       -5.290379    3.435581   -0.441481
     21          1           0       -5.556120    1.711017   -0.124865
     22          7           0       -1.928901    0.378408   -3.337514
     23          1           0       -1.733441    0.908957   -2.486616
     24          6           0       -1.265997   -0.921841   -3.335385
     25          1           0       -1.989152   -1.680871   -3.646542
     26          6           0       -0.882756   -1.144903   -1.856220
     27          6           0       -0.062453   -0.938834   -4.315825
     28          1           0        0.597277   -0.101188   -4.066979
     29          1           0       -0.472402   -0.754784   -5.315812
     30          8           0       -0.947438   -0.192714   -1.062081
     31          6           0        0.705440   -2.238150   -4.258163
     32          6           0        2.024057   -2.255869   -3.796015
     33          1           0        2.555533   -1.334516   -3.580554
     34          6           0        0.072137   -3.453999   -4.563237
     35          1           0       -0.944005   -3.456114   -4.953577
     36          6           0        2.690579   -3.465422   -3.600895
     37          1           0        3.705476   -3.445315   -3.220164
     38          6           0        0.738122   -4.664861   -4.364355
     39          1           0        0.238151   -5.600299   -4.598716
     40          6           0        2.045802   -4.671937   -3.870361
     41          1           0        2.557766   -5.614640   -3.703466
     42          7           0       -0.532088   -2.391464   -1.516331
     43          1           0       -0.347794   -3.054131   -2.264183
     44          6           0       -0.029438   -2.747988   -0.181692
     45          1           0       -0.593380   -2.145894    0.537730
     46          6           0        1.462631   -2.352538   -0.151852
     47          6           0       -0.243520   -4.241338    0.093020
     48          1           0        0.381471   -4.788673   -0.624547
     49          8           0        2.351650   -3.150407   -0.425761
     50          6           0        0.241108   -4.587354    1.506347
     51          1           0       -0.324982   -4.028589    2.262609
     52          1           0        0.096352   -5.654038    1.705123
     53          1           0        1.303518   -4.362918    1.626785
     54          6           0       -1.711456   -4.640935   -0.096728
     55          1           0       -2.359817   -4.091126    0.597181
     56          1           0       -2.068112   -4.445621   -1.113427
     57          1           0       -1.841207   -5.709394    0.103010
     58          7           0        1.670572   -1.038642    0.120661
     59          1           0        0.872982   -0.437270    0.287385
     60          6           0        2.960103   -0.410988   -0.079396
     61          1           0        3.636160   -1.210238   -0.391370
     62          6           0        3.434989    0.249030    1.215412
     63          6           0        2.872492    0.664664   -1.183194
     64          1           0        2.385565    0.208878   -2.049262
     65          1           0        2.235471    1.482422   -0.826750
     66          8           0        2.669404    0.896792    1.923393
     67          6           0        4.244889    1.206703   -1.604308
     68          1           0        4.745016    1.721565   -0.778988
     69          1           0        4.111898    1.933999   -2.413298
     70          6           0        5.107051    0.069781   -2.147804
     71          7           0        6.313981   -0.089000   -1.542017
     72          1           0        6.684528    0.599809   -0.890298
     73          1           0        6.943876   -0.776790   -1.934876
     74          8           0        4.699699   -0.679633   -3.032449
     75          7           0        4.764577    0.126239    1.470962
     76          1           0        5.351959   -0.295887    0.762011
     77          6           0        5.397716    0.977476    2.470087
     78          1           0        4.842770    1.926894    2.465989
     79          6           0        6.810266    1.321163    1.955761
     80          6           0        5.301632    0.401550    3.888700
     81          1           0        6.072128   -0.363306    4.032437
     82          1           0        4.339744   -0.111774    3.967186
     83          8           0        7.814898    1.427210    2.802450
     84          6           0        5.373892    1.502117    4.966590
     85          1           0        6.004198    2.331878    4.619324
     86          1           0        4.369242    1.922848    5.083300
     87          6           0        5.909247    1.017076    6.323837
     88          1           0        5.615049   -0.028414    6.492379
     89          1           0        5.461018    1.593366    7.141298
     90          6           0        7.427518    1.161250    6.441434
     91          1           0        7.690437    2.224395    6.403482
     92          1           0        7.773411    0.773791    7.409983
     93          7           0        8.122888    0.512304    5.307239
     94          1           0        9.124978    0.693631    5.364731
     95          1           0        7.705540    1.075342    3.753143
     96          1           0        8.017847   -0.500606    5.370581
     97          8           0        6.980726    1.535667    0.763767
 ---------------------------------------------------------------------

 SCF Done:  E(RB3LYP) =  -2122.57247290     A.U. after    1 cycles

 Alpha  occ. eigenvalues --  -19.26939 -19.23144 -19.22380 -19.19103 -19.17641
 Alpha  occ. eigenvalues --  -19.17524 -19.16782 -14.59885 -14.49368 -14.45506
 Alpha  occ. eigenvalues --  -14.42157 -14.42012 -14.41785 -14.40691 -10.43537
 Alpha  occ. eigenvalues --  -10.40528 -10.39091 -10.37909 -10.34882 -10.34558
 Alpha  occ. eigenvalues --  -10.34422 -10.34393 -10.34297 -10.30540 -10.30471
 Alpha  occ. eigenvalues --  -10.30397 -10.29840 -10.29100 -10.28653 -10.28569
 Alpha  occ. eigenvalues --  -10.27785 -10.26841 -10.25982 -10.25888 -10.25788
 Alpha  occ. eigenvalues --  -10.25784 -10.25264 -10.25134 -10.25103 -10.24916
 Alpha  occ. eigenvalues --  -10.24777 -10.24711 -10.24554 -10.24068 -10.23143
 Alpha  occ. eigenvalues --   -1.19420  -1.14858  -1.14278  -1.13639  -1.09956
 Alpha  occ. eigenvalues --   -1.09262  -1.08480  -1.06462  -1.06250  -1.02204
 Alpha  occ. eigenvalues --   -0.98772  -0.98696  -0.97450  -0.95603  -0.95526
 Alpha  occ. eigenvalues --   -0.92748  -0.89437  -0.87625  -0.86944  -0.86317
 Alpha  occ. eigenvalues --   -0.85795  -0.84033  -0.82007  -0.81870  -0.80810
 Alpha  occ. eigenvalues --   -0.79667  -0.77188  -0.76904  -0.75569  -0.75218
 Alpha  occ. eigenvalues --   -0.74667  -0.73994  -0.73463  -0.71108  -0.70097
 Alpha  occ. eigenvalues --   -0.69191  -0.68780  -0.68311  -0.67069  -0.66896
 Alpha  occ. eigenvalues --   -0.66500  -0.65284  -0.65105  -0.65040  -0.64505
 Alpha  occ. eigenvalues --   -0.63548  -0.63243  -0.62479  -0.62118  -0.60562
 Alpha  occ. eigenvalues --   -0.59817  -0.59060  -0.58373  -0.57965  -0.57748
 Alpha  occ. eigenvalues --   -0.57411  -0.56998  -0.56264  -0.55674  -0.55321
 Alpha  occ. eigenvalues --   -0.55047  -0.54092  -0.53952  -0.53761  -0.53242
 Alpha  occ. eigenvalues --   -0.53061  -0.52888  -0.52401  -0.51976  -0.51658
 Alpha  occ. eigenvalues --   -0.50732  -0.50660  -0.50307  -0.50198  -0.49855
 Alpha  occ. eigenvalues --   -0.49724  -0.49238  -0.48992  -0.48725  -0.48655
 Alpha  occ. eigenvalues --   -0.48265  -0.48097  -0.47724  -0.47516  -0.47333
 Alpha  occ. eigenvalues --   -0.46875  -0.46655  -0.46140  -0.45836  -0.45279
 Alpha  occ. eigenvalues --   -0.45013  -0.44944  -0.44875  -0.44727  -0.44348
 Alpha  occ. eigenvalues --   -0.43718  -0.43580  -0.43136  -0.42478  -0.42084
 Alpha  occ. eigenvalues --   -0.42020  -0.41704  -0.41316  -0.41122  -0.40793
 Alpha  occ. eigenvalues --   -0.40530  -0.40281  -0.40117  -0.40016  -0.39805
 Alpha  occ. eigenvalues --   -0.39645  -0.39454  -0.38932  -0.36690  -0.36338
 Alpha  occ. eigenvalues --   -0.35999  -0.34406  -0.33037  -0.32580  -0.32306
 Alpha  occ. eigenvalues --   -0.31648  -0.31381  -0.31142  -0.30828  -0.30625
 Alpha  occ. eigenvalues --   -0.30222
 Alpha virt. eigenvalues --   -0.12393  -0.11211  -0.08437  -0.07197  -0.06857
 Alpha virt. eigenvalues --   -0.06666  -0.05330  -0.04356  -0.04019  -0.03474
 Alpha virt. eigenvalues --   -0.03064  -0.01559  -0.00919  -0.00478   0.00113

 Mulliken charges:
               1
     1  N   -0.763132
     2  H    0.416179
     3  H    0.411293
     4  H    0.436094
     5  C   -0.113043
     6  H    0.210786
     7  C    0.651260
     8  C   -0.099898
     9  H    0.151756
    10  O   -0.550932
    11  C   -0.293040
    12  H    0.149327
    13  H    0.179061
    14  C   -0.477703
    15  H    0.184050
    16  H    0.197325
    17  H    0.140208
    18  C   -0.459251
    19  H    0.182728
    20  H    0.157179
    21  H    0.165676
    22  N   -0.604948
    23  H    0.384155
    24  C   -0.074324
    25  H    0.195456
    26  C    0.634522
    27  C   -0.341329
    28  H    0.163908
    29  H    0.179588
    30  O   -0.570312
    31  C    0.134442
    32  C   -0.201134
    33  H    0.187817
    34  C   -0.233038
    35  H    0.129589
    36  C   -0.107857
    37  H    0.167839
    38  C   -0.129519
    39  H    0.144565
    40  C   -0.129316
    41  H    0.148330
    42  N   -0.606503
    43  H    0.374119
    44  C   -0.053183
    45  H    0.168217
    46  C    0.629955
    47  C   -0.100065
    48  H    0.160871
    49  O   -0.525646
    50  C   -0.462883
    51  H    0.140488
    52  H    0.156197
    53  H    0.178204
    54  C   -0.447769
    55  H    0.143129
    56  H    0.133681
    57  H    0.160869
    58  N   -0.598886
    59  H    0.358985
    60  C   -0.083918
    61  H    0.198380
    62  C    0.628240
    63  C   -0.277229
    64  H    0.159558
    65  H    0.152296
    66  O   -0.543390
    67  C   -0.375485
    68  H    0.173926
    69  H    0.170911
    70  C    0.577895
    71  N   -0.783356
    72  H    0.408053
    73  H    0.341738
    74  O   -0.513969
    75  N   -0.612223
    76  H    0.346892
    77  C   -0.036827
    78  H    0.197519
    79  C    0.568598
    80  C   -0.283441
    81  H    0.132124
    82  H    0.178250
    83  O   -0.607430
    84  C   -0.283545
    85  H    0.142716
    86  H    0.164205
    87  C   -0.271705
    88  H    0.144228
    89  H    0.156766
    90  C   -0.144530
    91  H    0.165127
    92  H    0.150283
    93  N   -0.776105
    94  H    0.340948
    95  H    0.493966
    96  H    0.328320
    97  O   -0.491923
 Sum of Mulliken charges =   1.00000

 Dipole moment (field-independent basis, Debye):
    X=             -8.5797    Y=              6.7694    Z=             -8.7876  Tot=             14.0235
 Quadrupole moment (field-independent basis, Debye-Ang):
   XX=           -127.5473   YY=           -226.4477   ZZ=           -144.5780
   XY=            -41.7543   XZ=            132.5737   YZ=            -40.8268

 Normal termination of Gaussian 16 at Thu Jun 30 19:47:14 2022.
