 Gaussian 16, Revision C.01,
 Gaussian 16:  ES64L-G16RevC.01  3-Jul-2019

 ----------------------------------------------------------------------
 # B3LYP/6-31G* empiricaldispersion=gd3bj guess=read geom=check nosymm
 integral(ultrafinegrid)
 ----------------------------------------------------------------------

 ------------------------------------------------------
 Candidate Structure: Conf:797 Charge calc in gas phase
 ------------------------------------------------------
 Structure from the checkpoint file:  "conf-797.chk"
 Charge =  1 Multiplicity = 1

                          Input orientation:
 ---------------------------------------------------------------------
 Center     Atomic      Atomic             Coordinates (Angstroms)
 Number     Number       Type             X           Y           Z
 ---------------------------------------------------------------------
      1          7           0       -3.530114   -0.397146   -5.741839
      2          1           0       -2.674387   -0.857128   -6.101676
      3          1           0       -3.861847    0.306119   -6.405688
      4          1           0       -4.231649   -1.154863   -5.594594
      5          6           0       -3.297518    0.151667   -4.348136
      6          1           0       -2.285062    0.556376   -4.307943
      7          6           0       -3.413075   -1.135577   -3.510499
      8          6           0       -4.352595    1.226512   -4.008807
      9          1           0       -4.275931    1.989460   -4.800873
     10          8           0       -4.235433   -1.988915   -3.879246
     11          6           0       -4.001818    1.917561   -2.672563
     12          1           0       -3.758267    1.157320   -1.919869
     13          1           0       -4.908083    2.418871   -2.313637
     14          6           0       -5.788218    0.681744   -3.999737
     15          1           0       -5.937038   -0.038242   -3.190784
     16          1           0       -6.487192    1.510408   -3.854391
     17          1           0       -6.067943    0.183010   -4.935649
     18          6           0       -2.869992    2.942202   -2.783212
     19          1           0       -2.653196    3.382461   -1.804938
     20          1           0       -1.943906    2.490187   -3.145601
     21          1           0       -3.147779    3.758773   -3.460487
     22          7           0       -2.575508   -1.240760   -2.483205
     23          1           0       -1.832969   -0.527580   -2.390686
     24          6           0       -2.353242   -2.521726   -1.842372
     25          1           0       -3.274326   -3.102273   -1.939709
     26          6           0       -2.039525   -2.257650   -0.361194
     27          6           0       -1.179643   -3.284299   -2.550277
     28          1           0       -1.243231   -4.345617   -2.284388
     29          1           0       -0.227591   -2.916760   -2.154380
     30          8           0       -2.126577   -1.132627    0.115653
     31          6           0       -1.211798   -3.137497   -4.054489
     32          6           0       -1.979486   -3.997271   -4.850175
     33          1           0       -2.530735   -4.807776   -4.381441
     34          6           0       -0.522576   -2.087017   -4.673588
     35          1           0        0.051341   -1.392004   -4.069655
     36          6           0       -2.061579   -3.817623   -6.230150
     37          1           0       -2.656719   -4.500509   -6.829081
     38          6           0       -0.598441   -1.901043   -6.058478
     39          1           0       -0.029982   -1.099501   -6.523863
     40          6           0       -1.368965   -2.768196   -6.843305
     41          1           0       -1.406492   -2.644813   -7.922504
     42          7           0       -1.624074   -3.338869    0.364314
     43          1           0       -1.323616   -4.144690   -0.171008
     44          6           0       -0.784913   -3.092766    1.545903
     45          1           0       -1.310737   -2.369050    2.173714
     46          6           0        0.531020   -2.501812    1.004710
     47          6           0       -0.544521   -4.394319    2.325267
     48          1           0       -0.042785   -5.088900    1.636179
     49          8           0        1.157716   -3.105642    0.129493
     50          6           0        0.399081   -4.138670    3.507031
     51          1           0       -0.034129   -3.407511    4.201341
     52          1           0        0.571235   -5.065225    4.064007
     53          1           0        1.370984   -3.758936    3.176599
     54          6           0       -1.865533   -5.012606    2.794829
     55          1           0       -2.376077   -4.345208    3.500074
     56          1           0       -2.547858   -5.197612    1.959923
     57          1           0       -1.683657   -5.963941    3.305946
     58          7           0        0.887665   -1.298664    1.490195
     59          1           0        0.328348   -0.819385    2.188283
     60          6           0        1.950791   -0.492764    0.917726
     61          1           0        2.892587   -1.054039    0.953873
     62          6           0        2.058663    0.772442    1.793516
     63          6           0        1.665412   -0.123481   -0.557384
     64          1           0        2.555823    0.338365   -0.994333
     65          1           0        1.488280   -1.054114   -1.102112
     66          8           0        1.335971    0.920541    2.783350
     67          6           0        0.471478    0.835612   -0.714260
     68          1           0        0.658155    1.746701   -0.141242
     69          1           0       -0.445274    0.368103   -0.349759
     70          6           0        0.275951    1.209823   -2.168564
     71          7           0        1.020606    2.218988   -2.620199
     72          1           0        1.731230    2.689955   -2.017058
     73          1           0        0.951902    2.458906   -3.600298
     74          8           0       -0.529243    0.584109   -2.904211
     75          7           0        2.942148    1.698035    1.354591
     76          1           0        3.261451    1.597039    0.387079
     77          6           0        2.693621    3.126333    1.566262
     78          1           0        1.678062    3.237394    1.964608
     79          6           0        2.725456    3.839833    0.164218
     80          6           0        3.667944    3.771811    2.545334
     81          1           0        3.474014    4.849480    2.521769
     82          1           0        4.696762    3.616032    2.192593
     83          8           0        2.877558    3.040070   -0.823322
     84          6           0        3.513591    3.213807    3.960724
     85          1           0        2.474911    3.337567    4.292291
     86          1           0        3.706236    2.134219    3.953753
     87          6           0        4.458975    3.906104    4.953083
     88          1           0        4.261965    4.987493    4.950977
     89          1           0        5.500410    3.762454    4.632061
     90          6           0        4.268743    3.350718    6.352130
     91          1           0        3.256782    3.509414    6.731496
     92          1           0        4.513240    2.288295    6.420003
     93          7           0        5.203340    4.061698    7.341407
     94          1           0        5.102562    3.714425    8.302513
     95          1           0        5.016191    5.071586    7.347886
     96          1           0        6.183691    3.939201    7.060957
     97          8           0        2.587248    5.064498    0.176997
 ---------------------------------------------------------------------

 SCF Done:  E(RB3LYP) =  -2122.53760771     A.U. after    3 cycles

 Alpha  occ. eigenvalues --  -19.20815 -19.18763 -19.17849 -19.17090 -19.16566
 Alpha  occ. eigenvalues --  -19.11417 -19.09966 -14.63567 -14.54702 -14.43383
 Alpha  occ. eigenvalues --  -14.42342 -14.41042 -14.39372 -14.38875 -10.40063
 Alpha  occ. eigenvalues --  -10.37597 -10.35649 -10.34372 -10.34126 -10.33663
 Alpha  occ. eigenvalues --  -10.33561 -10.31913 -10.30991 -10.29066 -10.28873
 Alpha  occ. eigenvalues --  -10.28710 -10.28659 -10.27404 -10.27288 -10.27175
 Alpha  occ. eigenvalues --  -10.27087 -10.26950 -10.26847 -10.26640 -10.26326
 Alpha  occ. eigenvalues --  -10.25696 -10.25333 -10.25280 -10.25121 -10.24158
 Alpha  occ. eigenvalues --  -10.23822 -10.23340 -10.23189 -10.23089 -10.22806
 Alpha  occ. eigenvalues --   -1.17436  -1.13527  -1.10877  -1.08966  -1.08643
 Alpha  occ. eigenvalues --   -1.08441  -1.08095  -1.04028  -1.01038  -0.99049
 Alpha  occ. eigenvalues --   -0.97644  -0.96846  -0.95324  -0.94478  -0.93481
 Alpha  occ. eigenvalues --   -0.93285  -0.90321  -0.87308  -0.85925  -0.85406
 Alpha  occ. eigenvalues --   -0.84165  -0.82726  -0.82205  -0.80639  -0.79628
 Alpha  occ. eigenvalues --   -0.79197  -0.78095  -0.76105  -0.76056  -0.75055
 Alpha  occ. eigenvalues --   -0.73983  -0.73369  -0.71332  -0.71090  -0.69207
 Alpha  occ. eigenvalues --   -0.69087  -0.68558  -0.67645  -0.67076  -0.66606
 Alpha  occ. eigenvalues --   -0.66096  -0.65031  -0.64325  -0.63947  -0.63517
 Alpha  occ. eigenvalues --   -0.63354  -0.62382  -0.61031  -0.60810  -0.60621
 Alpha  occ. eigenvalues --   -0.59409  -0.58798  -0.58133  -0.57403  -0.56466
 Alpha  occ. eigenvalues --   -0.55803  -0.55297  -0.54581  -0.54486  -0.53954
 Alpha  occ. eigenvalues --   -0.53740  -0.53432  -0.53311  -0.52466  -0.52181
 Alpha  occ. eigenvalues --   -0.51450  -0.51300  -0.50780  -0.50635  -0.50241
 Alpha  occ. eigenvalues --   -0.49779  -0.49610  -0.49387  -0.48989  -0.48908
 Alpha  occ. eigenvalues --   -0.48321  -0.48045  -0.47671  -0.47304  -0.47276
 Alpha  occ. eigenvalues --   -0.46697  -0.46447  -0.46231  -0.45546  -0.45349
 Alpha  occ. eigenvalues --   -0.45105  -0.45007  -0.44703  -0.44089  -0.44064
 Alpha  occ. eigenvalues --   -0.43951  -0.43713  -0.43545  -0.43138  -0.42762
 Alpha  occ. eigenvalues --   -0.42188  -0.41718  -0.41544  -0.41150  -0.41020
 Alpha  occ. eigenvalues --   -0.40899  -0.40507  -0.40247  -0.39913  -0.39750
 Alpha  occ. eigenvalues --   -0.39718  -0.39445  -0.39367  -0.38920  -0.38460
 Alpha  occ. eigenvalues --   -0.37392  -0.35553  -0.34498  -0.33560  -0.32962
 Alpha  occ. eigenvalues --   -0.32543  -0.31975  -0.31939  -0.31650  -0.31524
 Alpha  occ. eigenvalues --   -0.30699  -0.30359  -0.29565  -0.26674  -0.26202
 Alpha  occ. eigenvalues --   -0.23905
 Alpha virt. eigenvalues --   -0.14109  -0.08976  -0.08404  -0.07447  -0.07325
 Alpha virt. eigenvalues --   -0.07263  -0.05329  -0.05121  -0.04557  -0.04193
 Alpha virt. eigenvalues --   -0.02740  -0.02441  -0.01135   0.00373   0.00578

 Mulliken charges:
               1
     1  N   -0.766021
     2  H    0.411443
     3  H    0.394217
     4  H    0.418825
     5  C   -0.135862
     6  H    0.236182
     7  C    0.652480
     8  C   -0.093930
     9  H    0.133401
    10  O   -0.568934
    11  C   -0.275227
    12  H    0.172810
    13  H    0.154485
    14  C   -0.465654
    15  H    0.188268
    16  H    0.171671
    17  H    0.126507
    18  C   -0.474233
    19  H    0.168215
    20  H    0.170670
    21  H    0.143289
    22  N   -0.603464
    23  H    0.411553
    24  C   -0.078029
    25  H    0.205738
    26  C    0.624674
    27  C   -0.402588
    28  H    0.159268
    29  H    0.206765
    30  O   -0.511097
    31  C    0.158008
    32  C   -0.145372
    33  H    0.145240
    34  C   -0.179168
    35  H    0.179765
    36  C   -0.132608
    37  H    0.152590
    38  C   -0.202678
    39  H    0.151331
    40  C   -0.171133
    41  H    0.149245
    42  N   -0.598591
    43  H    0.341602
    44  C   -0.037164
    45  H    0.164821
    46  C    0.624237
    47  C   -0.101163
    48  H    0.144777
    49  O   -0.564596
    50  C   -0.460848
    51  H    0.142450
    52  H    0.155859
    53  H    0.162611
    54  C   -0.444602
    55  H    0.147096
    56  H    0.152592
    57  H    0.153177
    58  N   -0.606249
    59  H    0.358752
    60  C   -0.031385
    61  H    0.178960
    62  C    0.570563
    63  C   -0.315704
    64  H    0.171987
    65  H    0.181179
    66  O   -0.553716
    67  C   -0.385561
    68  H    0.177403
    69  H    0.204628
    70  C    0.595729
    71  N   -0.743295
    72  H    0.430411
    73  H    0.324226
    74  O   -0.596590
    75  N   -0.596191
    76  H    0.358747
    77  C   -0.086052
    78  H    0.160573
    79  C    0.592091
    80  C   -0.256722
    81  H    0.169766
    82  H    0.135079
    83  O   -0.644592
    84  C   -0.267425
    85  H    0.161268
    86  H    0.165188
    87  C   -0.291653
    88  H    0.165673
    89  H    0.162925
    90  C   -0.206342
    91  H    0.228553
    92  H    0.227397
    93  N   -0.731020
    94  H    0.426719
    95  H    0.425821
    96  H    0.425115
    97  O   -0.549158
 Sum of Mulliken charges =   1.00000

 Dipole moment (field-independent basis, Debye):
    X=              7.7222    Y=              6.2588    Z=             14.1315  Tot=             17.2773
 Quadrupole moment (field-independent basis, Debye-Ang):
   XX=           -141.8820   YY=           -223.9717   ZZ=             54.9073
   XY=             65.9056   XZ=            207.5822   YZ=            118.6286

 Normal termination of Gaussian 16 at Thu Jun 30 19:48:25 2022.
