 Gaussian 16, Revision C.01,
 Gaussian 16:  ES64L-G16RevC.01  3-Jul-2019

 ----------------------------------------------------------------------
 # B3LYP/6-31G* empiricaldispersion=gd3bj guess=read geom=check nosymm
 integral(ultrafinegrid)
 ----------------------------------------------------------------------

 ------------------------------------------------------
 Candidate Structure: Conf:121 Charge calc in gas phase
 ------------------------------------------------------
 Structure from the checkpoint file:  "conf-121.chk"
 Charge =  1 Multiplicity = 1

                          Input orientation:
 ---------------------------------------------------------------------
 Center     Atomic      Atomic             Coordinates (Angstroms)
 Number     Number       Type             X           Y           Z
 ---------------------------------------------------------------------
      1          7           0       -4.839493   -3.377855   -4.523935
      2          1           0       -4.726678   -3.763729   -5.465038
      3          1           0       -5.823387   -3.444814   -4.250939
      4          1           0       -4.217924   -3.918829   -3.852564
      5          6           0       -4.285373   -1.973535   -4.384141
      6          1           0       -4.209991   -1.536755   -5.380952
      7          6           0       -2.905819   -2.231703   -3.745549
      8          6           0       -5.221213   -1.133758   -3.477165
      9          1           0       -6.203585   -1.159805   -3.976020
     10          8           0       -2.731030   -3.326610   -3.186524
     11          6           0       -4.786768    0.342939   -3.404241
     12          1           0       -3.844979    0.409128   -2.848284
     13          1           0       -5.532176    0.850182   -2.781645
     14          6           0       -5.345700   -1.726355   -2.064459
     15          1           0       -4.401003   -1.641514   -1.519646
     16          1           0       -6.107577   -1.171941   -1.509430
     17          1           0       -5.652274   -2.780200   -2.057373
     18          6           0       -4.700067    1.062863   -4.753716
     19          1           0       -4.524383    2.132206   -4.602960
     20          1           0       -3.882561    0.700870   -5.389700
     21          1           0       -5.632993    0.960552   -5.320906
     22          7           0       -2.017803   -1.247097   -3.790797
     23          1           0       -2.208721   -0.407860   -4.328154
     24          6           0       -0.819075   -1.247104   -2.954813
     25          1           0       -0.151802   -2.044609   -3.297357
     26          6           0       -1.264341   -1.464878   -1.494211
     27          6           0       -0.105760    0.129492   -3.050665
     28          1           0        0.905176    0.007251   -2.654087
     29          1           0       -0.650056    0.827299   -2.405677
     30          8           0       -2.222591   -0.838963   -1.042396
     31          6           0       -0.045097    0.665678   -4.459548
     32          6           0        0.968815    0.263905   -5.338499
     33          1           0        1.776119   -0.358898   -4.967168
     34          6           0       -1.041929    1.536298   -4.924529
     35          1           0       -1.797286    1.902484   -4.231039
     36          6           0        0.966585    0.706412   -6.660687
     37          1           0        1.762845    0.396871   -7.331460
     38          6           0       -1.046453    1.975790   -6.250967
     39          1           0       -1.818916    2.658894   -6.592942
     40          6           0       -0.044391    1.553057   -7.123873
     41          1           0       -0.038558    1.896168   -8.154203
     42          7           0       -0.503659   -2.315847   -0.782392
     43          1           0        0.261741   -2.804807   -1.231166
     44          6           0       -0.570486   -2.451916    0.677890
     45          1           0       -1.266974   -1.685003    1.027078
     46          6           0        0.878315   -2.144201    1.081815
     47          6           0       -1.047312   -3.841413    1.118646
     48          1           0       -0.321413   -4.565726    0.727501
     49          8           0        1.770444   -2.946743    0.815659
     50          6           0       -1.039141   -3.929156    2.649185
     51          1           0       -1.719766   -3.189125    3.089067
     52          1           0       -1.367469   -4.919905    2.979069
     53          1           0       -0.037033   -3.757394    3.055499
     54          6           0       -2.432328   -4.148808    0.539578
     55          1           0       -3.177718   -3.437059    0.916178
     56          1           0       -2.433203   -4.091018   -0.553503
     57          1           0       -2.752122   -5.155076    0.830946
     58          7           0        1.114159   -0.894488    1.551168
     59          1           0        0.352538   -0.231939    1.661204
     60          6           0        2.402188   -0.260268    1.300745
     61          1           0        3.203258   -0.885729    1.704616
     62          6           0        2.352098    1.121778    1.955746
     63          6           0        2.560772   -0.070373   -0.227683
     64          1           0        2.271966   -1.001892   -0.716471
     65          1           0        1.833005    0.694468   -0.524952
     66          8           0        1.279454    1.706634    2.083438
     67          6           0        3.956622    0.316461   -0.724471
     68          1           0        4.608936   -0.564760   -0.722742
     69          1           0        4.411507    1.086709   -0.102021
     70          6           0        3.831696    0.822526   -2.155258
     71          7           0        4.356849    2.054636   -2.368378
     72          1           0        4.662401    2.632734   -1.592801
     73          1           0        4.223426    2.477545   -3.276885
     74          8           0        3.267538    0.164799   -3.030944
     75          7           0        3.550790    1.661674    2.302994
     76          1           0        4.387725    1.153333    2.052884
     77          6           0        3.695813    3.079319    2.583528
     78          1           0        2.686771    3.463065    2.751213
     79          6           0        4.316697    3.807775    1.396384
     80          6           0        4.546943    3.341514    3.849561
     81          1           0        4.156882    2.669714    4.621196
     82          1           0        4.346948    4.363669    4.184784
     83          8           0        4.384599    5.109979    1.590927
     84          6           0        6.076256    3.140815    3.723513
     85          1           0        6.435335    2.855033    4.717469
     86          1           0        6.301316    2.277932    3.080510
     87          6           0        6.907731    4.372718    3.260723
     88          1           0        7.782243    4.449400    3.914506
     89          1           0        6.322323    5.282245    3.437525
     90          6           0        7.411315    4.377612    1.794572
     91          1           0        8.508466    4.376389    1.777202
     92          1           0        7.079040    3.481335    1.267188
     93          7           0        6.880157    5.535196    1.025000
     94          1           0        7.196715    5.483008    0.057637
     95          1           0        7.247912    6.406952    1.406182
     96          1           0        5.271692    5.438111    1.154333
     97          8           0        4.806163    3.224238    0.433659
 ---------------------------------------------------------------------

 SCF Done:  E(RB3LYP) =  -2122.56266584     A.U. after    2 cycles

 Alpha  occ. eigenvalues --  -19.26105 -19.23101 -19.20761 -19.20293 -19.18947
 Alpha  occ. eigenvalues --  -19.18330 -19.17014 -14.59349 -14.48765 -14.44973
 Alpha  occ. eigenvalues --  -14.43427 -14.42506 -14.42398 -14.41105 -10.42569
 Alpha  occ. eigenvalues --  -10.39566 -10.38317 -10.37643 -10.36077 -10.35382
 Alpha  occ. eigenvalues --  -10.34706 -10.33707 -10.33060 -10.30396 -10.30205
 Alpha  occ. eigenvalues --  -10.30114 -10.29120 -10.28843 -10.28359 -10.28159
 Alpha  occ. eigenvalues --  -10.27718 -10.27685 -10.27051 -10.26943 -10.26545
 Alpha  occ. eigenvalues --  -10.26450 -10.26034 -10.25814 -10.25794 -10.25774
 Alpha  occ. eigenvalues --  -10.25647 -10.25605 -10.24970 -10.23607 -10.23405
 Alpha  occ. eigenvalues --   -1.18655  -1.15815  -1.13354  -1.12257  -1.11202
 Alpha  occ. eigenvalues --   -1.10216  -1.08583  -1.07063  -1.05620  -1.01212
 Alpha  occ. eigenvalues --   -1.00040  -0.99289  -0.97707  -0.95934  -0.94546
 Alpha  occ. eigenvalues --   -0.93446  -0.89025  -0.87590  -0.87052  -0.85859
 Alpha  occ. eigenvalues --   -0.85801  -0.83637  -0.82410  -0.82201  -0.81975
 Alpha  occ. eigenvalues --   -0.79871  -0.77417  -0.76131  -0.75471  -0.74594
 Alpha  occ. eigenvalues --   -0.74085  -0.73415  -0.73058  -0.72014  -0.70578
 Alpha  occ. eigenvalues --   -0.69877  -0.68350  -0.67899  -0.67452  -0.67216
 Alpha  occ. eigenvalues --   -0.66573  -0.66522  -0.64827  -0.64751  -0.64419
 Alpha  occ. eigenvalues --   -0.63792  -0.63516  -0.61830  -0.61536  -0.60484
 Alpha  occ. eigenvalues --   -0.59761  -0.59500  -0.58423  -0.58264  -0.57870
 Alpha  occ. eigenvalues --   -0.57174  -0.56104  -0.55709  -0.55038  -0.54757
 Alpha  occ. eigenvalues --   -0.54364  -0.54146  -0.54066  -0.53802  -0.53554
 Alpha  occ. eigenvalues --   -0.53032  -0.52917  -0.52613  -0.52367  -0.51625
 Alpha  occ. eigenvalues --   -0.51402  -0.51167  -0.50910  -0.50363  -0.50049
 Alpha  occ. eigenvalues --   -0.49682  -0.49596  -0.49366  -0.48948  -0.48752
 Alpha  occ. eigenvalues --   -0.48317  -0.48170  -0.47942  -0.47187  -0.46996
 Alpha  occ. eigenvalues --   -0.46526  -0.46225  -0.46117  -0.45736  -0.45430
 Alpha  occ. eigenvalues --   -0.45304  -0.44973  -0.44932  -0.44625  -0.44516
 Alpha  occ. eigenvalues --   -0.44281  -0.44091  -0.43986  -0.43331  -0.43119
 Alpha  occ. eigenvalues --   -0.42199  -0.41915  -0.41564  -0.41369  -0.41113
 Alpha  occ. eigenvalues --   -0.40599  -0.40450  -0.40245  -0.40007  -0.39931
 Alpha  occ. eigenvalues --   -0.39466  -0.39441  -0.38628  -0.37405  -0.34758
 Alpha  occ. eigenvalues --   -0.34623  -0.34341  -0.34276  -0.33655  -0.32915
 Alpha  occ. eigenvalues --   -0.32542  -0.32355  -0.32232  -0.32084  -0.31236
 Alpha  occ. eigenvalues --   -0.30638
 Alpha virt. eigenvalues --   -0.11746  -0.10434  -0.08818  -0.08490  -0.07047
 Alpha virt. eigenvalues --   -0.06371  -0.05982  -0.04985  -0.04496  -0.03488
 Alpha virt. eigenvalues --   -0.02785  -0.00891  -0.00362  -0.00326   0.00194

 Mulliken charges:
               1
     1  N   -0.758210
     2  H    0.414488
     3  H    0.412359
     4  H    0.434675
     5  C   -0.124209
     6  H    0.208400
     7  C    0.675817
     8  C   -0.106196
     9  H    0.146526
    10  O   -0.550383
    11  C   -0.289890
    12  H    0.188268
    13  H    0.173306
    14  C   -0.500976
    15  H    0.236478
    16  H    0.184039
    17  H    0.124830
    18  C   -0.481726
    19  H    0.182354
    20  H    0.142347
    21  H    0.158309
    22  N   -0.605441
    23  H    0.370240
    24  C   -0.026565
    25  H    0.177440
    26  C    0.636446
    27  C   -0.431219
    28  H    0.225522
    29  H    0.180573
    30  O   -0.540451
    31  C    0.146450
    32  C   -0.174631
    33  H    0.181682
    34  C   -0.238787
    35  H    0.142666
    36  C   -0.134395
    37  H    0.150313
    38  C   -0.131823
    39  H    0.141870
    40  C   -0.130106
    41  H    0.147010
    42  N   -0.604059
    43  H    0.353576
    44  C   -0.041976
    45  H    0.172932
    46  C    0.608491
    47  C   -0.071423
    48  H    0.150974
    49  O   -0.533968
    50  C   -0.463439
    51  H    0.144191
    52  H    0.158518
    53  H    0.167404
    54  C   -0.467100
    55  H    0.144116
    56  H    0.158122
    57  H    0.149706
    58  N   -0.601421
    59  H    0.354707
    60  C   -0.053842
    61  H    0.176247
    62  C    0.618748
    63  C   -0.280658
    64  H    0.175858
    65  H    0.156279
    66  O   -0.529481
    67  C   -0.395493
    68  H    0.176407
    69  H    0.172711
    70  C    0.597700
    71  N   -0.760990
    72  H    0.381680
    73  H    0.336816
    74  O   -0.536536
    75  N   -0.588505
    76  H    0.339229
    77  C   -0.077526
    78  H    0.215030
    79  C    0.618550
    80  C   -0.269630
    81  H    0.164200
    82  H    0.171477
    83  O   -0.593649
    84  C   -0.293037
    85  H    0.160747
    86  H    0.134368
    87  C   -0.284934
    88  H    0.157015
    89  H    0.162051
    90  C   -0.160948
    91  H    0.155224
    92  H    0.179442
    93  N   -0.777658
    94  H    0.337032
    95  H    0.334765
    96  H    0.458895
    97  O   -0.514332
 Sum of Mulliken charges =   1.00000

 Dipole moment (field-independent basis, Debye):
    X=             -6.0983    Y=             -1.1390    Z=            -15.1439  Tot=             16.3653
 Quadrupole moment (field-independent basis, Debye-Ang):
   XX=            -93.4155   YY=           -202.5381   ZZ=           -158.7417
   XY=            105.8686   XZ=            102.0083   YZ=             43.6440

 Normal termination of Gaussian 16 at Thu Jun 30 19:47:39 2022.
