 Gaussian 16, Revision C.01,
 Gaussian 16:  ES64L-G16RevC.01  3-Jul-2019

 ----------------------------------------------------------------------
 # B3LYP/6-31G* empiricaldispersion=gd3bj guess=read geom=check nosymm
 integral(ultrafinegrid)
 ----------------------------------------------------------------------

 ------------------------------------------------------
 Candidate Structure: Conf:224 Charge calc in gas phase
 ------------------------------------------------------
 Structure from the checkpoint file:  "conf-224.chk"
 Charge =  1 Multiplicity = 1

                          Input orientation:
 ---------------------------------------------------------------------
 Center     Atomic      Atomic             Coordinates (Angstroms)
 Number     Number       Type             X           Y           Z
 ---------------------------------------------------------------------
      1          7           0       -2.842769    0.798922   -5.124170
      2          1           0       -2.427341    0.144138   -5.807673
      3          1           0       -2.978671    1.719845   -5.547946
      4          1           0       -3.741201    0.377143   -4.811202
      5          6           0       -2.006367    0.854182   -3.860359
      6          1           0       -0.951741    0.852425   -4.146041
      7          6           0       -2.406231   -0.464030   -3.187076
      8          6           0       -2.374462    2.092438   -3.018735
      9          1           0       -3.470476    2.094143   -2.912344
     10          8           0       -3.583645   -0.830595   -3.282433
     11          6           0       -1.931212    3.391745   -3.720678
     12          1           0       -2.297591    3.410073   -4.762533
     13          1           0       -0.835792    3.409124   -3.769030
     14          6           0       -1.758394    1.972985   -1.616587
     15          1           0       -0.667615    1.987029   -1.679729
     16          1           0       -2.048678    2.833522   -1.012537
     17          1           0       -2.071905    1.066195   -1.093161
     18          6           0       -2.407334    4.664499   -3.014933
     19          1           0       -2.224362    5.538294   -3.648185
     20          1           0       -3.482356    4.623007   -2.798432
     21          1           0       -1.845771    4.812845   -2.090306
     22          7           0       -1.414319   -1.124686   -2.584751
     23          1           0       -0.463369   -0.781393   -2.758750
     24          6           0       -1.586962   -2.503416   -2.154726
     25          1           0       -2.662931   -2.694080   -2.194684
     26          6           0       -1.202807   -2.597186   -0.664049
     27          6           0       -0.873221   -3.430475   -3.172458
     28          1           0       -1.125700   -4.473426   -2.949682
     29          1           0        0.213951   -3.318283   -3.077920
     30          8           0       -1.705345   -1.809574    0.130801
     31          6           0       -1.296553   -3.053636   -4.578059
     32          6           0       -2.536997   -3.461787   -5.083825
     33          1           0       -3.155820   -4.140246   -4.502429
     34          6           0       -0.519321   -2.167783   -5.334592
     35          1           0        0.431446   -1.816266   -4.946716
     36          6           0       -3.000688   -2.989139   -6.310672
     37          1           0       -3.964346   -3.319467   -6.686579
     38          6           0       -0.978838   -1.689735   -6.566051
     39          1           0       -0.348570   -1.023826   -7.150451
     40          6           0       -2.225206   -2.096391   -7.057158
     41          1           0       -2.574187   -1.747758   -8.025674
     42          7           0       -0.325652   -3.569279   -0.300292
     43          1           0        0.179910   -4.066105   -1.020132
     44          6           0        0.259259   -3.610928    1.050756
     45          1           0       -0.529524   -3.273849    1.727764
     46          6           0        1.393022   -2.564855    1.034013
     47          6           0        0.691078   -5.035348    1.443250
     48          1           0        1.301622   -4.916872    2.347858
     49          8           0        2.535482   -2.828557    0.667326
     50          6           0       -0.540093   -5.882011    1.789757
     51          1           0       -1.207327   -5.969840    0.924105
     52          1           0       -0.243368   -6.893188    2.087459
     53          1           0       -1.114794   -5.441328    2.612294
     54          6           0        1.559542   -5.734678    0.386278
     55          1           0        0.975419   -5.985541   -0.510243
     56          1           0        2.409315   -5.112178    0.101213
     57          1           0        1.936280   -6.682842    0.783388
     58          7           0        0.977308   -1.298835    1.317013
     59          1           0       -0.019792   -1.135708    1.445863
     60          6           0        1.652712   -0.168622    0.694024
     61          1           0        2.716021   -0.182194    0.948314
     62          6           0        0.947771    1.107070    1.178845
     63          6           0        1.444446   -0.270531   -0.844130
     64          1           0        1.521897   -1.325617   -1.113484
     65          1           0        0.408644    0.027952   -1.022920
     66          8           0       -0.186529    1.051258    1.655330
     67          6           0        2.396250    0.529852   -1.744794
     68          1           0        3.257447   -0.092607   -2.016316
     69          1           0        2.785144    1.429223   -1.270133
     70          6           0        1.696457    0.940488   -3.027736
     71          7           0        1.921650    2.194148   -3.437250
     72          1           0        2.263169    2.903714   -2.755416
     73          1           0        1.432839    2.512942   -4.263933
     74          8           0        0.955062    0.141096   -3.646102
     75          7           0        1.591180    2.280716    0.941877
     76          1           0        2.458776    2.270955    0.410426
     77          6           0        0.825378    3.487776    0.615928
     78          1           0       -0.229524    3.208863    0.588166
     79          6           0        1.246157    3.966029   -0.810146
     80          6           0        1.012222    4.590616    1.659415
     81          1           0        0.450230    5.471220    1.325379
     82          1           0        2.072847    4.873217    1.700226
     83          8           0        0.399751    4.610307   -1.451453
     84          6           0        0.536354    4.130485    3.038699
     85          1           0       -0.524293    3.854513    2.987974
     86          1           0        1.078802    3.217994    3.312934
     87          6           0        0.745260    5.199806    4.120051
     88          1           0        0.188345    6.110183    3.857082
     89          1           0        1.809756    5.469245    4.169192
     90          6           0        0.281764    4.681551    5.469755
     91          1           0       -0.785835    4.451094    5.486192
     92          1           0        0.841243    3.801009    5.793378
     93          7           0        0.499562    5.740873    6.558495
     94          1           0        0.195714    5.421523    7.486103
     95          1           0       -0.017244    6.599817    6.334860
     96          1           0        1.492959    5.994257    6.621204
     97          8           0        2.417672    3.614524   -1.165457
 ---------------------------------------------------------------------

 SCF Done:  E(RB3LYP) =  -2122.53127834     A.U. after    1 cycles

 Alpha  occ. eigenvalues --  -19.20982 -19.18389 -19.18264 -19.17149 -19.16809
 Alpha  occ. eigenvalues --  -19.12823 -19.12016 -14.64197 -14.54811 -14.43914
 Alpha  occ. eigenvalues --  -14.43415 -14.40284 -14.40246 -14.40115 -10.40752
 Alpha  occ. eigenvalues --  -10.37642 -10.35794 -10.35169 -10.34042 -10.33629
 Alpha  occ. eigenvalues --  -10.33529 -10.32823 -10.31124 -10.30449 -10.28890
 Alpha  occ. eigenvalues --  -10.28851 -10.28169 -10.28133 -10.27737 -10.27582
 Alpha  occ. eigenvalues --  -10.27179 -10.27101 -10.26801 -10.26656 -10.26399
 Alpha  occ. eigenvalues --  -10.26371 -10.25835 -10.25489 -10.24977 -10.24907
 Alpha  occ. eigenvalues --  -10.24469 -10.23567 -10.22611 -10.22455 -10.22290
 Alpha  occ. eigenvalues --   -1.18067  -1.13600  -1.10589  -1.09240  -1.09160
 Alpha  occ. eigenvalues --   -1.08733  -1.08340  -1.05734  -1.01497  -0.99500
 Alpha  occ. eigenvalues --   -0.97829  -0.97265  -0.96496  -0.95485  -0.94091
 Alpha  occ. eigenvalues --   -0.93493  -0.89876  -0.87369  -0.86403  -0.85736
 Alpha  occ. eigenvalues --   -0.84776  -0.82850  -0.82177  -0.80650  -0.80483
 Alpha  occ. eigenvalues --   -0.78775  -0.77341  -0.76775  -0.76686  -0.75445
 Alpha  occ. eigenvalues --   -0.73861  -0.73499  -0.72174  -0.71651  -0.69777
 Alpha  occ. eigenvalues --   -0.68890  -0.68184  -0.67724  -0.67433  -0.66786
 Alpha  occ. eigenvalues --   -0.66230  -0.65887  -0.64882  -0.63865  -0.63646
 Alpha  occ. eigenvalues --   -0.63227  -0.62855  -0.62455  -0.61585  -0.61009
 Alpha  occ. eigenvalues --   -0.59657  -0.58857  -0.58396  -0.57761  -0.56522
 Alpha  occ. eigenvalues --   -0.56257  -0.55616  -0.55149  -0.54989  -0.54346
 Alpha  occ. eigenvalues --   -0.53805  -0.53765  -0.53242  -0.52981  -0.52835
 Alpha  occ. eigenvalues --   -0.51857  -0.51198  -0.51007  -0.50811  -0.50511
 Alpha  occ. eigenvalues --   -0.50106  -0.49645  -0.49479  -0.49158  -0.48827
 Alpha  occ. eigenvalues --   -0.48639  -0.47931  -0.47784  -0.47630  -0.47401
 Alpha  occ. eigenvalues --   -0.47057  -0.46659  -0.46378  -0.46043  -0.45864
 Alpha  occ. eigenvalues --   -0.45412  -0.45309  -0.44587  -0.44328  -0.43930
 Alpha  occ. eigenvalues --   -0.43790  -0.43446  -0.43352  -0.43043  -0.42726
 Alpha  occ. eigenvalues --   -0.42556  -0.42396  -0.42147  -0.41949  -0.41447
 Alpha  occ. eigenvalues --   -0.41355  -0.41059  -0.40618  -0.40381  -0.39896
 Alpha  occ. eigenvalues --   -0.39517  -0.39260  -0.39120  -0.38791  -0.38653
 Alpha  occ. eigenvalues --   -0.38576  -0.35410  -0.34761  -0.33816  -0.33298
 Alpha  occ. eigenvalues --   -0.33154  -0.32417  -0.32391  -0.32001  -0.31548
 Alpha  occ. eigenvalues --   -0.31202  -0.30485  -0.29045  -0.28147  -0.27530
 Alpha  occ. eigenvalues --   -0.25640
 Alpha virt. eigenvalues --   -0.14695  -0.08551  -0.08417  -0.08010  -0.07934
 Alpha virt. eigenvalues --   -0.07345  -0.05766  -0.05229  -0.04933  -0.04336
 Alpha virt. eigenvalues --   -0.03548  -0.02973  -0.01790  -0.00320   0.00234

 Mulliken charges:
               1
     1  N   -0.760848
     2  H    0.408223
     3  H    0.397390
     4  H    0.412850
     5  C   -0.147368
     6  H    0.230784
     7  C    0.644204
     8  C   -0.093074
     9  H    0.140267
    10  O   -0.556446
    11  C   -0.268916
    12  H    0.088016
    13  H    0.171725
    14  C   -0.487350
    15  H    0.171690
    16  H    0.178060
    17  H    0.194170
    18  C   -0.461117
    19  H    0.152068
    20  H    0.128322
    21  H    0.215118
    22  N   -0.609247
    23  H    0.417605
    24  C   -0.075741
    25  H    0.216958
    26  C    0.631463
    27  C   -0.403724
    28  H    0.172311
    29  H    0.167797
    30  O   -0.519902
    31  C    0.156314
    32  C   -0.151281
    33  H    0.145914
    34  C   -0.182262
    35  H    0.180375
    36  C   -0.127077
    37  H    0.152704
    38  C   -0.194201
    39  H    0.151195
    40  C   -0.167618
    41  H    0.147914
    42  N   -0.624078
    43  H    0.355546
    44  C   -0.059834
    45  H    0.174478
    46  C    0.600097
    47  C   -0.081718
    48  H    0.149231
    49  O   -0.526859
    50  C   -0.449397
    51  H    0.145461
    52  H    0.154762
    53  H    0.147177
    54  C   -0.482180
    55  H    0.122828
    56  H    0.196081
    57  H    0.156882
    58  N   -0.599621
    59  H    0.377206
    60  C   -0.057706
    61  H    0.174515
    62  C    0.594262
    63  C   -0.307496
    64  H    0.163851
    65  H    0.167123
    66  O   -0.540427
    67  C   -0.378833
    68  H    0.185939
    69  H    0.188425
    70  C    0.588569
    71  N   -0.740060
    72  H    0.414766
    73  H    0.325681
    74  O   -0.583204
    75  N   -0.604321
    76  H    0.352355
    77  C   -0.074137
    78  H    0.169550
    79  C    0.590213
    80  C   -0.265718
    81  H    0.157832
    82  H    0.145121
    83  O   -0.571185
    84  C   -0.267235
    85  H    0.164910
    86  H    0.171372
    87  C   -0.291850
    88  H    0.164586
    89  H    0.164567
    90  C   -0.206794
    91  H    0.230018
    92  H    0.230424
    93  N   -0.731276
    94  H    0.428638
    95  H    0.425853
    96  H    0.426130
    97  O   -0.627785
 Sum of Mulliken charges =   1.00000

 Dipole moment (field-independent basis, Debye):
    X=             -5.0770    Y=             16.8127    Z=             13.5106  Tot=             22.1580
 Quadrupole moment (field-independent basis, Debye-Ang):
   XX=           -262.1459   YY=           -136.7464   ZZ=             -9.3200
   XY=              3.2826   XZ=             54.8750   YZ=            154.6970

 Normal termination of Gaussian 16 at Thu Jun 30 19:47:23 2022.
