 Gaussian 16, Revision C.01,
 Gaussian 16:  ES64L-G16RevC.01  3-Jul-2019

 ----------------------------------------------------------------------
 # B3LYP/6-31G* empiricaldispersion=gd3bj guess=read geom=check nosymm
 integral(ultrafinegrid)
 ----------------------------------------------------------------------

 ------------------------------------------------------
 Candidate Structure: Conf:727 Charge calc in gas phase
 ------------------------------------------------------
 Structure from the checkpoint file:  "conf-727.chk"
 Charge =  1 Multiplicity = 1

                          Input orientation:
 ---------------------------------------------------------------------
 Center     Atomic      Atomic             Coordinates (Angstroms)
 Number     Number       Type             X           Y           Z
 ---------------------------------------------------------------------
      1          7           0       -6.789405   -2.443175   -2.367580
      2          1           0       -7.641596   -2.828440   -2.778840
      3          1           0       -7.035511   -1.638942   -1.780147
      4          1           0       -6.282704   -3.150952   -1.765727
      5          6           0       -5.732009   -2.060119   -3.383728
      6          1           0       -5.914716   -2.687071   -4.262562
      7          6           0       -4.431747   -2.560111   -2.701166
      8          6           0       -5.809817   -0.571526   -3.761647
      9          1           0       -4.977890   -0.400888   -4.459133
     10          8           0       -4.541469   -3.355880   -1.761792
     11          6           0       -5.601423    0.350044   -2.542365
     12          1           0       -4.770235   -0.020880   -1.933840
     13          1           0       -6.505491    0.336944   -1.909583
     14          6           0       -7.109519   -0.279612   -4.525878
     15          1           0       -7.991776   -0.388764   -3.881122
     16          1           0       -7.114398    0.747853   -4.895843
     17          1           0       -7.231989   -0.942561   -5.389713
     18          6           0       -5.306328    1.801665   -2.932098
     19          1           0       -5.136675    2.402789   -2.034374
     20          1           0       -4.399329    1.857120   -3.543116
     21          1           0       -6.128890    2.260766   -3.489740
     22          7           0       -3.277353   -2.142259   -3.224384
     23          1           0       -3.296467   -1.342948   -3.850012
     24          6           0       -2.020141   -2.319935   -2.513916
     25          1           0       -1.861184   -3.388116   -2.338821
     26          6           0       -2.087756   -1.577056   -1.160366
     27          6           0       -0.868733   -1.750127   -3.388874
     28          1           0       -0.748967   -2.400448   -4.261213
     29          1           0        0.059355   -1.809400   -2.812488
     30          8           0       -2.960889   -0.751994   -0.914663
     31          6           0       -1.142148   -0.328470   -3.829712
     32          6           0       -1.680732   -0.082910   -5.101854
     33          1           0       -1.803168   -0.909477   -5.799217
     34          6           0       -0.948070    0.754328   -2.960116
     35          1           0       -0.523502    0.597507   -1.973943
     36          6           0       -2.022750    1.213183   -5.497178
     37          1           0       -2.420083    1.387758   -6.492748
     38          6           0       -1.292885    2.046508   -3.350838
     39          1           0       -1.145700    2.868145   -2.658896
     40          6           0       -1.831470    2.279751   -4.618922
     41          1           0       -2.091304    3.289185   -4.923506
     42          7           0       -1.067174   -1.866892   -0.323448
     43          1           0       -0.351073   -2.527982   -0.603322
     44          6           0       -0.673654   -0.977271    0.769803
     45          1           0       -1.258936   -0.060058    0.661583
     46          6           0        0.815103   -0.716587    0.544679
     47          6           0       -0.925539   -1.584799    2.164680
     48          1           0       -0.332667   -2.510478    2.214054
     49          8           0        1.589768   -1.693897    0.434356
     50          6           0       -0.442371   -0.620599    3.257394
     51          1           0       -1.024544    0.308797    3.231834
     52          1           0       -0.584083   -1.065212    4.248325
     53          1           0        0.612262   -0.346578    3.144365
     54          6           0       -2.404318   -1.941284    2.339310
     55          1           0       -3.028281   -1.042761    2.272112
     56          1           0       -2.741889   -2.643248    1.570820
     57          1           0       -2.573430   -2.398807    3.319742
     58          7           0        1.186809    0.553960    0.437878
     59          1           0        0.483304    1.302878    0.435612
     60          6           0        2.569610    0.961344    0.259049
     61          1           0        2.943531    0.548531   -0.686061
     62          6           0        3.471612    0.438418    1.387903
     63          6           0        2.703820    2.495586    0.230328
     64          1           0        2.361606    2.896135    1.191716
     65          1           0        3.775277    2.716380    0.158532
     66          8           0        3.002036    0.148196    2.514883
     67          6           0        1.977774    3.199773   -0.935059
     68          1           0        1.944871    2.541427   -1.813763
     69          1           0        2.553471    4.080471   -1.235502
     70          6           0        0.543899    3.596988   -0.620928
     71          7           0        0.183894    4.853270   -0.975385
     72          1           0        0.859972    5.534648   -1.287380
     73          1           0       -0.736833    5.179955   -0.712890
     74          8           0       -0.277836    2.824782   -0.108149
     75          7           0        4.751668    0.402856    1.044803
     76          1           0        5.035736    0.942439    0.186213
     77          6           0        5.867206    0.672358    1.962305
     78          1           0        5.458277    1.041672    2.909001
     79          6           0        6.664841    1.850878    1.250703
     80          6           0        6.765166   -0.529514    2.243701
     81          1           0        7.581647   -0.151182    2.864560
     82          1           0        7.222742   -0.881030    1.309178
     83          8           0        7.658611    2.256379    1.854884
     84          6           0        6.034630   -1.686325    2.942972
     85          1           0        6.737237   -2.285495    3.535797
     86          1           0        5.322387   -1.257420    3.662720
     87          6           0        5.301881   -2.628035    1.965960
     88          1           0        6.004941   -3.368691    1.568992
     89          1           0        4.924727   -2.069199    1.102291
     90          6           0        4.141589   -3.374390    2.618180
     91          1           0        3.821560   -4.245494    2.040767
     92          1           0        4.398066   -3.703443    3.628904
     93          7           0        2.944812   -2.464591    2.731041
     94          1           0        2.279241   -2.775617    3.441509
     95          1           0        2.431306   -2.377239    1.826500
     96          1           0        3.192545   -1.450443    2.921965
     97          8           0        6.159606    2.208365    0.134823
 ---------------------------------------------------------------------

 SCF Done:  E(RB3LYP) =  -2122.54181117     A.U. after    2 cycles

 Alpha  occ. eigenvalues --  -19.27427 -19.22596 -19.21836 -19.21596 -19.19033
 Alpha  occ. eigenvalues --  -19.09225 -19.07726 -14.60333 -14.51231 -14.50011
 Alpha  occ. eigenvalues --  -14.46597 -14.45526 -14.44784 -14.39486 -10.44059
 Alpha  occ. eigenvalues --  -10.40813 -10.39650 -10.38881 -10.38377 -10.35830
 Alpha  occ. eigenvalues --  -10.35016 -10.34320 -10.32975 -10.32435 -10.31191
 Alpha  occ. eigenvalues --  -10.31110 -10.31034 -10.30352 -10.30294 -10.29389
 Alpha  occ. eigenvalues --  -10.29137 -10.28801 -10.28780 -10.28620 -10.28388
 Alpha  occ. eigenvalues --  -10.28302 -10.27853 -10.26802 -10.26673 -10.26169
 Alpha  occ. eigenvalues --  -10.25489 -10.25337 -10.24093 -10.23960 -10.21627
 Alpha  occ. eigenvalues --   -1.19976  -1.14904  -1.14214  -1.13312  -1.12995
 Alpha  occ. eigenvalues --   -1.09837  -1.07214  -1.06508  -1.03207  -1.02118
 Alpha  occ. eigenvalues --   -1.01727  -1.00113  -0.97105  -0.96249  -0.95616
 Alpha  occ. eigenvalues --   -0.93160  -0.91282  -0.89440  -0.87885  -0.87626
 Alpha  occ. eigenvalues --   -0.86944  -0.84849  -0.84481  -0.83804  -0.82580
 Alpha  occ. eigenvalues --   -0.81177  -0.79285  -0.77147  -0.76761  -0.76377
 Alpha  occ. eigenvalues --   -0.75086  -0.74914  -0.73964  -0.72222  -0.71896
 Alpha  occ. eigenvalues --   -0.70724  -0.70500  -0.70143  -0.69452  -0.68567
 Alpha  occ. eigenvalues --   -0.68372  -0.67001  -0.66688  -0.66057  -0.65230
 Alpha  occ. eigenvalues --   -0.64830  -0.63879  -0.63121  -0.62756  -0.62261
 Alpha  occ. eigenvalues --   -0.61500  -0.61114  -0.59983  -0.59441  -0.58751
 Alpha  occ. eigenvalues --   -0.58432  -0.58410  -0.58167  -0.57814  -0.57209
 Alpha  occ. eigenvalues --   -0.56749  -0.56131  -0.55688  -0.54892  -0.54760
 Alpha  occ. eigenvalues --   -0.53867  -0.53562  -0.53403  -0.53392  -0.53081
 Alpha  occ. eigenvalues --   -0.52341  -0.51923  -0.51324  -0.51241  -0.50790
 Alpha  occ. eigenvalues --   -0.50611  -0.50476  -0.50293  -0.50068  -0.49788
 Alpha  occ. eigenvalues --   -0.49471  -0.49164  -0.48964  -0.48729  -0.48426
 Alpha  occ. eigenvalues --   -0.48081  -0.47870  -0.47158  -0.46731  -0.46637
 Alpha  occ. eigenvalues --   -0.46246  -0.46105  -0.45787  -0.44859  -0.44559
 Alpha  occ. eigenvalues --   -0.44263  -0.44078  -0.43931  -0.43794  -0.43370
 Alpha  occ. eigenvalues --   -0.43276  -0.43069  -0.42327  -0.41971  -0.41837
 Alpha  occ. eigenvalues --   -0.41690  -0.41161  -0.40698  -0.39515  -0.38662
 Alpha  occ. eigenvalues --   -0.38160  -0.37421  -0.37279  -0.36879  -0.36380
 Alpha  occ. eigenvalues --   -0.36048  -0.35865  -0.35314  -0.35162  -0.34710
 Alpha  occ. eigenvalues --   -0.34445  -0.33058  -0.31277  -0.24208  -0.24042
 Alpha  occ. eigenvalues --   -0.21675
 Alpha virt. eigenvalues --   -0.13605  -0.11004  -0.10717  -0.10559  -0.09305
 Alpha virt. eigenvalues --   -0.07547  -0.07103  -0.06783  -0.05205  -0.04432
 Alpha virt. eigenvalues --   -0.04314  -0.03340  -0.02209  -0.01717  -0.01069

 Mulliken charges:
               1
     1  N   -0.756460
     2  H    0.415454
     3  H    0.415828
     4  H    0.433932
     5  C   -0.120908
     6  H    0.221125
     7  C    0.671271
     8  C   -0.122531
     9  H    0.170907
    10  O   -0.538606
    11  C   -0.326938
    12  H    0.225627
    13  H    0.119839
    14  C   -0.469521
    15  H    0.138326
    16  H    0.199623
    17  H    0.165772
    18  C   -0.462414
    19  H    0.174486
    20  H    0.170059
    21  H    0.155873
    22  N   -0.604552
    23  H    0.372121
    24  C   -0.076550
    25  H    0.194546
    26  C    0.655303
    27  C   -0.385677
    28  H    0.182077
    29  H    0.184624
    30  O   -0.525881
    31  C    0.132067
    32  C   -0.224719
    33  H    0.142826
    34  C   -0.166030
    35  H    0.146164
    36  C   -0.126531
    37  H    0.152684
    38  C   -0.134892
    39  H    0.162165
    40  C   -0.136626
    41  H    0.152894
    42  N   -0.608312
    43  H    0.346805
    44  C   -0.044431
    45  H    0.190868
    46  C    0.631803
    47  C   -0.077655
    48  H    0.109149
    49  O   -0.622160
    50  C   -0.495256
    51  H    0.159364
    52  H    0.152374
    53  H    0.185453
    54  C   -0.447394
    55  H    0.155849
    56  H    0.153408
    57  H    0.153831
    58  N   -0.620798
    59  H    0.411564
    60  C   -0.041948
    61  H    0.174921
    62  C    0.601823
    63  C   -0.337220
    64  H    0.173624
    65  H    0.235154
    66  O   -0.608972
    67  C   -0.373928
    68  H    0.185226
    69  H    0.175196
    70  C    0.627464
    71  N   -0.732947
    72  H    0.360915
    73  H    0.355161
    74  O   -0.554536
    75  N   -0.576492
    76  H    0.364896
    77  C   -0.101204
    78  H    0.155103
    79  C    0.598423
    80  C   -0.261689
    81  H    0.183427
    82  H    0.140777
    83  O   -0.550143
    84  C   -0.280704
    85  H    0.147961
    86  H    0.132888
    87  C   -0.289174
    88  H    0.169705
    89  H    0.181771
    90  C   -0.178338
    91  H    0.181675
    92  H    0.190464
    93  N   -0.807461
    94  H    0.380808
    95  H    0.440362
    96  H    0.448423
    97  O   -0.622633
 Sum of Mulliken charges =   1.00000

 Dipole moment (field-independent basis, Debye):
    X=            -31.0262    Y=            -12.2138    Z=            -12.0994  Tot=             35.4711
 Quadrupole moment (field-independent basis, Debye-Ang):
   XX=           -204.6831   YY=           -202.6414   ZZ=           -195.6439
   XY=            -18.7710   XZ=             72.7441   YZ=            -14.6707

 Normal termination of Gaussian 16 at Thu Jun 30 19:47:55 2022.
