 Gaussian 16, Revision C.01,
 Gaussian 16:  ES64L-G16RevC.01  3-Jul-2019

 ----------------------------------------------------------------------
 # B3LYP/6-31G* empiricaldispersion=gd3bj guess=read geom=check nosymm
 integral(ultrafinegrid)
 ----------------------------------------------------------------------

 ------------------------------------------------------
 Candidate Structure: Conf:950 Charge calc in gas phase
 ------------------------------------------------------
 Structure from the checkpoint file:  "conf-950.chk"
 Charge =  1 Multiplicity = 1

                          Input orientation:
 ---------------------------------------------------------------------
 Center     Atomic      Atomic             Coordinates (Angstroms)
 Number     Number       Type             X           Y           Z
 ---------------------------------------------------------------------
      1          7           0       -4.350958   -4.239498   -2.840016
      2          1           0       -4.364056   -4.777257   -3.710179
      3          1           0       -5.140277   -4.532656   -2.258249
      4          1           0       -3.427251   -4.406527   -2.334838
      5          6           0       -4.313196   -2.739776   -3.065076
      6          1           0       -4.474414   -2.562077   -4.129633
      7          6           0       -2.861200   -2.384326   -2.663025
      8          6           0       -5.407277   -2.043171   -2.222009
      9          1           0       -6.346310   -2.555446   -2.483852
     10          8           0       -2.185894   -3.270052   -2.104108
     11          6           0       -5.595649   -0.560656   -2.602669
     12          1           0       -4.731102    0.018933   -2.258034
     13          1           0       -6.442621   -0.198680   -2.009434
     14          6           0       -5.148409   -2.192391   -0.716667
     15          1           0       -4.238057   -1.663417   -0.419207
     16          1           0       -5.983212   -1.766674   -0.153476
     17          1           0       -5.041967   -3.234793   -0.391210
     18          6           0       -5.874854   -0.294436   -4.085648
     19          1           0       -6.153000    0.752986   -4.233922
     20          1           0       -5.008299   -0.480355   -4.732097
     21          1           0       -6.706021   -0.909295   -4.450922
     22          7           0       -2.449022   -1.155715   -2.929873
     23          1           0       -3.031915   -0.566348   -3.514751
     24          6           0       -1.065829   -0.686900   -2.716799
     25          1           0       -0.385600   -1.497382   -2.989060
     26          6           0       -0.854034   -0.317000   -1.232235
     27          6           0       -0.799678    0.524491   -3.624083
     28          1           0        0.279679    0.689542   -3.605819
     29          1           0       -1.274615    1.404938   -3.182147
     30          8           0       -0.851559    0.851633   -0.855347
     31          6           0       -1.291945    0.279847   -5.029927
     32          6           0       -0.618455   -0.610630   -5.878854
     33          1           0        0.310216   -1.060836   -5.538203
     34          6           0       -2.482374    0.871215   -5.474292
     35          1           0       -2.990801    1.593426   -4.837468
     36          6           0       -1.133650   -0.902128   -7.140972
     37          1           0       -0.599074   -1.584977   -7.795574
     38          6           0       -3.000464    0.575433   -6.739242
     39          1           0       -3.915521    1.055156   -7.075246
     40          6           0       -2.327822   -0.316909   -7.573111
     41          1           0       -2.720674   -0.543082   -8.560059
     42          7           0       -0.671393   -1.373286   -0.403973
     43          1           0       -0.629394   -2.302313   -0.805454
     44          6           0       -0.293929   -1.202047    1.005077
     45          1           0       -0.773835   -0.278391    1.342598
     46          6           0        1.242609   -1.031556    1.009017
     47          6           0       -0.748603   -2.383314    1.868997
     48          1           0       -0.154033   -3.253822    1.564102
     49          8           0        2.002597   -1.968746    1.241961
     50          6           0       -0.437579   -2.094959    3.343012
     51          1           0       -0.985908   -1.211538    3.693939
     52          1           0       -0.734851   -2.942638    3.968911
     53          1           0        0.631416   -1.925447    3.492990
     54          6           0       -2.237026   -2.691215    1.669108
     55          1           0       -2.854761   -1.815525    1.907184
     56          1           0       -2.455926   -2.991197    0.639416
     57          1           0       -2.547131   -3.506103    2.332105
     58          7           0        1.651305    0.197938    0.616480
     59          1           0        0.969363    0.918008    0.389487
     60          6           0        3.017724    0.487167    0.227744
     61          1           0        3.679187   -0.165163    0.804704
     62          6           0        3.274270    1.969334    0.526406
     63          6           0        3.220292    0.256059   -1.288489
     64          1           0        2.469151    0.860873   -1.810287
     65          1           0        4.203916    0.641194   -1.583948
     66          8           0        2.373928    2.795703    0.397078
     67          6           0        3.084300   -1.221963   -1.702181
     68          1           0        2.202881   -1.664535   -1.240398
     69          1           0        3.954008   -1.791421   -1.355820
     70          6           0        2.897560   -1.349008   -3.202964
     71          7           0        4.030793   -1.407560   -3.944896
     72          1           0        4.949231   -1.401250   -3.527749
     73          1           0        3.958173   -1.442446   -4.952306
     74          8           0        1.777801   -1.359007   -3.721057
     75          7           0        4.545693    2.280934    0.854761
     76          1           0        5.245768    1.566758    1.020923
     77          6           0        4.990449    3.644535    1.082701
     78          1           0        4.542754    4.296777    0.329891
     79          6           0        6.502368    3.673463    0.950772
     80          6           0        4.581842    4.149645    2.502972
     81          1           0        4.663648    3.296784    3.187640
     82          1           0        3.520390    4.406107    2.443905
     83          8           0        6.948066    4.872357    0.609274
     84          6           0        5.405948    5.330899    3.055571
     85          1           0        5.652140    6.016073    2.239479
     86          1           0        4.778295    5.896427    3.753021
     87          6           0        6.696508    4.888755    3.798541
     88          1           0        6.966746    3.864959    3.514272
     89          1           0        6.479877    4.842993    4.871780
     90          6           0        7.934559    5.782034    3.597548
     91          1           0        7.631925    6.817815    3.409746
     92          1           0        8.542078    5.784930    4.512645
     93          7           0        8.751993    5.340891    2.437146
     94          1           0        9.531303    5.980549    2.289296
     95          1           0        7.823650    5.054800    1.130304
     96          1           0        9.155756    4.424442    2.632397
     97          8           0        7.198877    2.712093    1.244971
 ---------------------------------------------------------------------

 SCF Done:  E(RB3LYP) =  -2122.56307735     A.U. after    3 cycles

 Alpha  occ. eigenvalues --  -19.27543 -19.20957 -19.20235 -19.19372 -19.18127
 Alpha  occ. eigenvalues --  -19.17607 -19.17008 -14.60177 -14.50063 -14.44552
 Alpha  occ. eigenvalues --  -14.43698 -14.41602 -14.41586 -14.40544 -10.43827
 Alpha  occ. eigenvalues --  -10.40686 -10.37370 -10.36811 -10.35926 -10.34792
 Alpha  occ. eigenvalues --  -10.34531 -10.34315 -10.32986 -10.30868 -10.30478
 Alpha  occ. eigenvalues --  -10.30125 -10.29623 -10.29061 -10.28276 -10.27823
 Alpha  occ. eigenvalues --  -10.27531 -10.27269 -10.27216 -10.27109 -10.26921
 Alpha  occ. eigenvalues --  -10.26868 -10.26618 -10.26318 -10.26247 -10.26213
 Alpha  occ. eigenvalues --  -10.25049 -10.23823 -10.23744 -10.23417 -10.23219
 Alpha  occ. eigenvalues --   -1.19787  -1.14158  -1.13373  -1.12281  -1.10874
 Alpha  occ. eigenvalues --   -1.09754  -1.08886  -1.06753  -1.04889  -1.00908
 Alpha  occ. eigenvalues --   -0.98518  -0.98268  -0.98125  -0.96012  -0.95875
 Alpha  occ. eigenvalues --   -0.93727  -0.89353  -0.87659  -0.86733  -0.86576
 Alpha  occ. eigenvalues --   -0.85068  -0.84945  -0.82545  -0.82255  -0.81328
 Alpha  occ. eigenvalues --   -0.79548  -0.77368  -0.76772  -0.75338  -0.74794
 Alpha  occ. eigenvalues --   -0.74674  -0.74136  -0.73975  -0.72662  -0.70393
 Alpha  occ. eigenvalues --   -0.68713  -0.68441  -0.68057  -0.67539  -0.67078
 Alpha  occ. eigenvalues --   -0.66124  -0.65968  -0.65303  -0.64596  -0.64170
 Alpha  occ. eigenvalues --   -0.63844  -0.62497  -0.62425  -0.61638  -0.61270
 Alpha  occ. eigenvalues --   -0.60853  -0.59577  -0.58991  -0.58361  -0.56980
 Alpha  occ. eigenvalues --   -0.56500  -0.56237  -0.56020  -0.55791  -0.55543
 Alpha  occ. eigenvalues --   -0.54628  -0.54486  -0.53438  -0.53313  -0.53077
 Alpha  occ. eigenvalues --   -0.53041  -0.52719  -0.52388  -0.52107  -0.51801
 Alpha  occ. eigenvalues --   -0.51024  -0.50676  -0.50406  -0.50225  -0.49831
 Alpha  occ. eigenvalues --   -0.49786  -0.49458  -0.49114  -0.48923  -0.48610
 Alpha  occ. eigenvalues --   -0.48217  -0.47899  -0.47791  -0.47677  -0.47266
 Alpha  occ. eigenvalues --   -0.46685  -0.46580  -0.46364  -0.46030  -0.45894
 Alpha  occ. eigenvalues --   -0.45521  -0.45353  -0.45331  -0.44901  -0.44613
 Alpha  occ. eigenvalues --   -0.44321  -0.43693  -0.43563  -0.42399  -0.42142
 Alpha  occ. eigenvalues --   -0.41960  -0.41907  -0.41754  -0.41481  -0.41318
 Alpha  occ. eigenvalues --   -0.40933  -0.40804  -0.40434  -0.40210  -0.39669
 Alpha  occ. eigenvalues --   -0.38840  -0.38435  -0.38073  -0.35160  -0.34720
 Alpha  occ. eigenvalues --   -0.34495  -0.33917  -0.33244  -0.33143  -0.32780
 Alpha  occ. eigenvalues --   -0.32458  -0.32278  -0.31865  -0.30716  -0.30433
 Alpha  occ. eigenvalues --   -0.30082
 Alpha virt. eigenvalues --   -0.12718  -0.11407  -0.08882  -0.08532  -0.07719
 Alpha virt. eigenvalues --   -0.07061  -0.05719  -0.04962  -0.04066  -0.03384
 Alpha virt. eigenvalues --   -0.02256  -0.01933  -0.01176  -0.00505  -0.00216

 Mulliken charges:
               1
     1  N   -0.763374
     2  H    0.417389
     3  H    0.412090
     4  H    0.437060
     5  C   -0.116024
     6  H    0.221074
     7  C    0.662704
     8  C   -0.111349
     9  H    0.154062
    10  O   -0.564307
    11  C   -0.282982
    12  H    0.166560
    13  H    0.179426
    14  C   -0.484550
    15  H    0.199347
    16  H    0.193740
    17  H    0.140065
    18  C   -0.487273
    19  H    0.188074
    20  H    0.154708
    21  H    0.160227
    22  N   -0.594415
    23  H    0.370864
    24  C   -0.077751
    25  H    0.225540
    26  C    0.634658
    27  C   -0.394471
    28  H    0.203351
    29  H    0.186983
    30  O   -0.520619
    31  C    0.125313
    32  C   -0.186209
    33  H    0.180133
    34  C   -0.229185
    35  H    0.139197
    36  C   -0.136689
    37  H    0.145133
    38  C   -0.132181
    39  H    0.144274
    40  C   -0.135190
    41  H    0.146031
    42  N   -0.621940
    43  H    0.361821
    44  C   -0.045093
    45  H    0.175323
    46  C    0.625675
    47  C   -0.091770
    48  H    0.153144
    49  O   -0.542906
    50  C   -0.461580
    51  H    0.143129
    52  H    0.152691
    53  H    0.180472
    54  C   -0.461323
    55  H    0.144091
    56  H    0.127731
    57  H    0.153468
    58  N   -0.606694
    59  H    0.378238
    60  C   -0.066455
    61  H    0.175443
    62  C    0.629425
    63  C   -0.273006
    64  H    0.174276
    65  H    0.152178
    66  O   -0.535342
    67  C   -0.355912
    68  H    0.183162
    69  H    0.160198
    70  C    0.580010
    71  N   -0.726108
    72  H    0.352283
    73  H    0.350573
    74  O   -0.518233
    75  N   -0.622323
    76  H    0.345737
    77  C   -0.003150
    78  H    0.187085
    79  C    0.571473
    80  C   -0.282173
    81  H    0.146170
    82  H    0.175921
    83  O   -0.601736
    84  C   -0.285344
    85  H    0.169580
    86  H    0.146001
    87  C   -0.292760
    88  H    0.162244
    89  H    0.151094
    90  C   -0.142436
    91  H    0.164503
    92  H    0.148191
    93  N   -0.778765
    94  H    0.333333
    95  H    0.457732
    96  H    0.341155
    97  O   -0.509931
 Sum of Mulliken charges =   1.00000

 Dipole moment (field-independent basis, Debye):
    X=             -9.5512    Y=             -9.8922    Z=            -11.8650  Tot=             18.1621
 Quadrupole moment (field-independent basis, Debye-Ang):
   XX=            -82.0627   YY=           -190.9537   ZZ=           -186.7025
   XY=            102.2508   XZ=             71.3213   YZ=             66.4561

 Normal termination of Gaussian 16 at Thu Jun 30 19:47:57 2022.
