 Gaussian 16, Revision C.01,
 Gaussian 16:  ES64L-G16RevC.01  3-Jul-2019

 ----------------------------------------------------------------------
 # B3LYP/6-31G* empiricaldispersion=gd3bj guess=read geom=check nosymm
 integral(ultrafinegrid)
 ----------------------------------------------------------------------

 ------------------------------------------------------
 Candidate Structure: Conf:883 Charge calc in gas phase
 ------------------------------------------------------
 Structure from the checkpoint file:  "conf-883.chk"
 Charge =  1 Multiplicity = 1

                          Input orientation:
 ---------------------------------------------------------------------
 Center     Atomic      Atomic             Coordinates (Angstroms)
 Number     Number       Type             X           Y           Z
 ---------------------------------------------------------------------
      1          7           0       -5.258851   -2.180809   -1.980913
      2          1           0       -5.572536   -3.085103   -2.342849
      3          1           0       -5.960621   -1.819670   -1.329708
      4          1           0       -4.319875   -2.309396   -1.498455
      5          6           0       -4.905575   -1.190188   -3.072810
      6          1           0       -5.378986   -1.522021   -3.998115
      7          6           0       -3.367999   -1.303956   -3.126987
      8          6           0       -5.397904    0.224272   -2.673503
      9          1           0       -6.487820    0.123617   -2.546317
     10          8           0       -2.796279   -1.812110   -2.150900
     11          6           0       -5.161017    1.259750   -3.790432
     12          1           0       -4.085003    1.447562   -3.875201
     13          1           0       -5.596837    2.199133   -3.432501
     14          6           0       -4.766656    0.707703   -1.358227
     15          1           0       -3.694198    0.882261   -1.483900
     16          1           0       -5.232104    1.652134   -1.062775
     17          1           0       -4.907684    0.010882   -0.521927
     18          6           0       -5.784878    0.915245   -5.146890
     19          1           0       -5.692628    1.762477   -5.832942
     20          1           0       -5.309346    0.060335   -5.644894
     21          1           0       -6.853036    0.687260   -5.049248
     22          7           0       -2.758057   -0.813653   -4.200192
     23          1           0       -3.305630   -0.454624   -4.973447
     24          6           0       -1.318347   -0.566109   -4.225386
     25          1           0       -0.797298   -1.528530   -4.202378
     26          6           0       -0.958835    0.292065   -2.992801
     27          6           0       -0.959305    0.215000   -5.511240
     28          1           0        0.131202    0.206499   -5.605252
     29          1           0       -1.265616    1.256281   -5.365928
     30          8           0       -1.696364    1.221982   -2.656411
     31          6           0       -1.624368   -0.354320   -6.741594
     32          6           0       -2.739105    0.288354   -7.296431
     33          1           0       -3.061489    1.244672   -6.889498
     34          6           0       -1.195322   -1.564472   -7.301825
     35          1           0       -0.327310   -2.071037   -6.886630
     36          6           0       -3.416146   -0.267354   -8.385369
     37          1           0       -4.271027    0.249735   -8.811356
     38          6           0       -1.865540   -2.118176   -8.390793
     39          1           0       -1.515448   -3.051479   -8.821718
     40          6           0       -2.980998   -1.473480   -8.932616
     41          1           0       -3.498980   -1.905035   -9.783664
     42          7           0        0.197460   -0.029400   -2.405895
     43          1           0        0.744027   -0.839704   -2.689934
     44          6           0        0.733554    0.632213   -1.225762
     45          1           0        0.728754    1.715070   -1.394310
     46          6           0        2.175046    0.113194   -1.116181
     47          6           0       -0.127170    0.325292    0.037288
     48          1           0       -1.137459    0.635801   -0.252551
     49          8           0        2.507028   -0.927521   -1.682576
     50          6           0       -0.144205   -1.169583    0.374638
     51          1           0        0.843406   -1.511389    0.698601
     52          1           0       -0.843823   -1.353953    1.197649
     53          1           0       -0.469148   -1.768802   -0.481780
     54          6           0        0.298126    1.163815    1.249593
     55          1           0        1.236725    0.795871    1.675481
     56          1           0        0.396817    2.227612    0.993386
     57          1           0       -0.462319    1.091696    2.034451
     58          7           0        3.033150    0.866809   -0.386111
     59          1           0        2.622168    1.566654    0.218028
     60          6           0        4.295592    0.292950    0.062908
     61          1           0        4.794218   -0.138278   -0.806008
     62          6           0        4.020167   -0.814310    1.099867
     63          6           0        5.152006    1.420795    0.667541
     64          1           0        5.273664    2.196197   -0.098380
     65          1           0        4.592749    1.867849    1.499554
     66          8           0        3.039379   -0.769351    1.843997
     67          6           0        6.530627    1.001757    1.217810
     68          1           0        6.404516    0.285614    2.037394
     69          1           0        7.011694    1.892279    1.637058
     70          6           0        7.421566    0.358273    0.168846
     71          7           0        8.485395    1.088771   -0.247848
     72          1           0        8.722935    1.979869    0.159509
     73          1           0        9.115022    0.681484   -0.926087
     74          8           0        7.193112   -0.759755   -0.305362
     75          7           0        4.951329   -1.787104    1.141375
     76          1           0        5.793780   -1.654973    0.576848
     77          6           0        4.976200   -2.730431    2.238958
     78          1           0        4.029181   -3.274826    2.279669
     79          6           0        5.158034   -2.034826    3.586033
     80          6           0        6.148819   -3.725635    2.025455
     81          1           0        7.005829   -3.161151    1.635677
     82          1           0        5.845010   -4.417027    1.232583
     83          8           0        4.609116   -2.741092    4.568123
     84          6           0        6.590910   -4.508005    3.281163
     85          1           0        5.714791   -4.729622    3.896845
     86          1           0        6.995963   -5.474343    2.961825
     87          6           0        7.670778   -3.775333    4.123101
     88          1           0        7.686738   -2.708581    3.873550
     89          1           0        8.655771   -4.159147    3.833648
     90          6           0        7.539812   -3.906560    5.650894
     91          1           0        7.110884   -4.879816    5.914361
     92          1           0        8.538486   -3.862062    6.107956
     93          7           0        6.657630   -2.860272    6.226061
     94          1           0        7.077388   -1.942266    6.078036
     95          1           0        6.571168   -2.987634    7.233191
     96          1           0        5.226598   -2.666699    5.382522
     97          8           0        5.850537   -1.040844    3.749696
 ---------------------------------------------------------------------

 SCF Done:  E(RB3LYP) =  -2122.57185338     A.U. after    2 cycles

 Alpha  occ. eigenvalues --  -19.26188 -19.20156 -19.19860 -19.18690 -19.18094
 Alpha  occ. eigenvalues --  -19.17144 -19.16122 -14.59386 -14.48986 -14.43826
 Alpha  occ. eigenvalues --  -14.42497 -14.42403 -14.39678 -14.39371 -10.42687
 Alpha  occ. eigenvalues --  -10.39669 -10.37179 -10.35624 -10.35436 -10.34833
 Alpha  occ. eigenvalues --  -10.33914 -10.33159 -10.32794 -10.30123 -10.29278
 Alpha  occ. eigenvalues --  -10.29129 -10.28750 -10.28655 -10.28444 -10.28428
 Alpha  occ. eigenvalues --  -10.27847 -10.27680 -10.27566 -10.27490 -10.27339
 Alpha  occ. eigenvalues --  -10.27322 -10.27036 -10.26162 -10.25430 -10.25081
 Alpha  occ. eigenvalues --  -10.23964 -10.23326 -10.23018 -10.22785 -10.22155
 Alpha  occ. eigenvalues --   -1.18774  -1.13380  -1.12461  -1.11854  -1.10618
 Alpha  occ. eigenvalues --   -1.09711  -1.07786  -1.05813  -1.03764  -1.00550
 Alpha  occ. eigenvalues --   -0.99090  -0.97152  -0.96616  -0.95275  -0.94858
 Alpha  occ. eigenvalues --   -0.94243  -0.89451  -0.87071  -0.86199  -0.85665
 Alpha  occ. eigenvalues --   -0.84593  -0.83912  -0.83085  -0.82397  -0.80230
 Alpha  occ. eigenvalues --   -0.79073  -0.77014  -0.75669  -0.74572  -0.74045
 Alpha  occ. eigenvalues --   -0.73679  -0.73611  -0.73142  -0.72145  -0.69785
 Alpha  occ. eigenvalues --   -0.69221  -0.67784  -0.67718  -0.67575  -0.67269
 Alpha  occ. eigenvalues --   -0.66429  -0.64927  -0.64642  -0.64308  -0.62567
 Alpha  occ. eigenvalues --   -0.61983  -0.61701  -0.61445  -0.61085  -0.60457
 Alpha  occ. eigenvalues --   -0.59959  -0.59588  -0.58526  -0.57557  -0.55994
 Alpha  occ. eigenvalues --   -0.55973  -0.55447  -0.55010  -0.54526  -0.54286
 Alpha  occ. eigenvalues --   -0.54137  -0.54039  -0.53508  -0.53359  -0.52856
 Alpha  occ. eigenvalues --   -0.52444  -0.52286  -0.51846  -0.51447  -0.51384
 Alpha  occ. eigenvalues --   -0.50965  -0.50797  -0.50545  -0.49972  -0.49803
 Alpha  occ. eigenvalues --   -0.49801  -0.48709  -0.48502  -0.48365  -0.48131
 Alpha  occ. eigenvalues --   -0.47719  -0.47403  -0.47033  -0.46706  -0.46410
 Alpha  occ. eigenvalues --   -0.45984  -0.45834  -0.45750  -0.45137  -0.45091
 Alpha  occ. eigenvalues --   -0.44793  -0.44653  -0.44241  -0.44013  -0.43831
 Alpha  occ. eigenvalues --   -0.43348  -0.43042  -0.42606  -0.42489  -0.42392
 Alpha  occ. eigenvalues --   -0.42313  -0.41674  -0.41126  -0.40767  -0.40672
 Alpha  occ. eigenvalues --   -0.39932  -0.39715  -0.39159  -0.38967  -0.38744
 Alpha  occ. eigenvalues --   -0.38189  -0.38141  -0.37515  -0.34189  -0.33833
 Alpha  occ. eigenvalues --   -0.33782  -0.33701  -0.33461  -0.33010  -0.32633
 Alpha  occ. eigenvalues --   -0.32257  -0.31930  -0.31666  -0.31237  -0.29674
 Alpha  occ. eigenvalues --   -0.29036
 Alpha virt. eigenvalues --   -0.11812  -0.10489  -0.09426  -0.09200  -0.06474
 Alpha virt. eigenvalues --   -0.05948  -0.04710  -0.04075  -0.03944  -0.03101
 Alpha virt. eigenvalues --   -0.02083  -0.00971  -0.00449   0.00423   0.00604

 Mulliken charges:
               1
     1  N   -0.758931
     2  H    0.414337
     3  H    0.412564
     4  H    0.436138
     5  C   -0.124923
     6  H    0.208135
     7  C    0.676299
     8  C   -0.105460
     9  H    0.147375
    10  O   -0.545099
    11  C   -0.290711
    12  H    0.188021
    13  H    0.173617
    14  C   -0.505059
    15  H    0.242369
    16  H    0.184525
    17  H    0.124193
    18  C   -0.482677
    19  H    0.182406
    20  H    0.140373
    21  H    0.160119
    22  N   -0.604693
    23  H    0.368413
    24  C   -0.026342
    25  H    0.178592
    26  C    0.649501
    27  C   -0.405142
    28  H    0.188748
    29  H    0.186281
    30  O   -0.553797
    31  C    0.152933
    32  C   -0.224806
    33  H    0.143564
    34  C   -0.176212
    35  H    0.142492
    36  C   -0.127666
    37  H    0.148836
    38  C   -0.127423
    39  H    0.154046
    40  C   -0.129863
    41  H    0.153093
    42  N   -0.617022
    43  H    0.362663
    44  C   -0.052348
    45  H    0.169949
    46  C    0.637544
    47  C   -0.074143
    48  H    0.151721
    49  O   -0.543745
    50  C   -0.474825
    51  H    0.194724
    52  H    0.136365
    53  H    0.144225
    54  C   -0.500059
    55  H    0.201544
    56  H    0.130036
    57  H    0.152378
    58  N   -0.603234
    59  H    0.340433
    60  C   -0.066630
    61  H    0.199738
    62  C    0.631673
    63  C   -0.292637
    64  H    0.158226
    65  H    0.162556
    66  O   -0.547056
    67  C   -0.406256
    68  H    0.241888
    69  H    0.142197
    70  C    0.614490
    71  N   -0.734831
    72  H    0.348645
    73  H    0.352367
    74  O   -0.531352
    75  N   -0.633733
    76  H    0.397000
    77  C   -0.001233
    78  H    0.177090
    79  C    0.605620
    80  C   -0.313510
    81  H    0.158150
    82  H    0.160353
    83  O   -0.598225
    84  C   -0.285844
    85  H    0.170901
    86  H    0.143726
    87  C   -0.289644
    88  H    0.164215
    89  H    0.147426
    90  C   -0.140620
    91  H    0.160199
    92  H    0.142668
    93  N   -0.773767
    94  H    0.338122
    95  H    0.328059
    96  H    0.452835
    97  O   -0.507177
 Sum of Mulliken charges =   1.00000

 Dipole moment (field-independent basis, Debye):
    X=             -8.9737    Y=             -5.1085    Z=            -10.2258  Tot=             14.5324
 Quadrupole moment (field-independent basis, Debye-Ang):
   XX=            -41.6741   YY=           -229.1391   ZZ=           -163.1357
   XY=             35.4188   XZ=             98.8675   YZ=              3.7371

 Normal termination of Gaussian 16 at Thu Jun 30 19:47:26 2022.
