 Gaussian 16, Revision C.01,
 Gaussian 16:  ES64L-G16RevC.01  3-Jul-2019

 ----------------------------------------------------------------------
 # B3LYP/6-31G* empiricaldispersion=gd3bj guess=read geom=check nosymm
 integral(ultrafinegrid)
 ----------------------------------------------------------------------

 ------------------------------------------------------
 Candidate Structure: Conf:474 Charge calc in gas phase
 ------------------------------------------------------
 Structure from the checkpoint file:  "conf-474.chk"
 Charge =  1 Multiplicity = 1

                          Input orientation:
 ---------------------------------------------------------------------
 Center     Atomic      Atomic             Coordinates (Angstroms)
 Number     Number       Type             X           Y           Z
 ---------------------------------------------------------------------
      1          7           0       -2.779146   -3.189149   -5.615318
      2          1           0       -2.813607   -2.374288   -6.261295
      3          1           0       -3.203690   -4.006900   -6.059178
      4          1           0       -1.772123   -3.350880   -5.392060
      5          6           0       -3.397819   -2.836708   -4.283794
      6          1           0       -4.220996   -2.154743   -4.496392
      7          6           0       -2.229499   -2.105395   -3.588184
      8          6           0       -3.890740   -4.093628   -3.538337
      9          1           0       -4.666770   -4.543976   -4.177253
     10          8           0       -1.085910   -2.460491   -3.870863
     11          6           0       -4.560868   -3.705153   -2.204594
     12          1           0       -3.812345   -3.252017   -1.542566
     13          1           0       -4.866713   -4.637543   -1.717535
     14          6           0       -2.774914   -5.123221   -3.309808
     15          1           0       -1.978301   -4.718995   -2.678955
     16          1           0       -3.188464   -6.005808   -2.814047
     17          1           0       -2.314242   -5.468627   -4.243106
     18          6           0       -5.782595   -2.789343   -2.327686
     19          1           0       -6.251856   -2.647041   -1.350015
     20          1           0       -5.536712   -1.789540   -2.707950
     21          1           0       -6.535839   -3.217212   -2.999349
     22          7           0       -2.552992   -1.109379   -2.744142
     23          1           0       -3.536750   -0.878352   -2.669189
     24          6           0       -1.618114   -0.000646   -2.503103
     25          1           0       -0.606185   -0.371224   -2.711524
     26          6           0       -1.644791    0.454216   -1.044100
     27          6           0       -1.892971    1.160609   -3.486980
     28          1           0       -1.026361    1.822136   -3.434453
     29          1           0       -2.766176    1.731535   -3.152505
     30          8           0       -1.404890    1.615269   -0.740633
     31          6           0       -2.104393    0.641777   -4.891813
     32          6           0       -1.021410    0.185272   -5.661387
     33          1           0       -0.017761    0.250990   -5.248837
     34          6           0       -3.399715    0.519288   -5.414013
     35          1           0       -4.244532    0.889684   -4.836906
     36          6           0       -1.239085   -0.377436   -6.919207
     37          1           0       -0.390307   -0.713320   -7.508521
     38          6           0       -3.623615   -0.048652   -6.672413
     39          1           0       -4.633376   -0.107276   -7.070247
     40          6           0       -2.538257   -0.503979   -7.432293
     41          1           0       -2.698595   -0.906000   -8.429813
     42          7           0       -1.919958   -0.534432   -0.138648
     43          1           0       -1.828185   -1.483596   -0.485845
     44          6           0       -1.490412   -0.392766    1.260687
     45          1           0       -1.567534    0.669000    1.506209
     46          6           0       -0.028316   -0.868765    1.236058
     47          6           0       -2.359423   -1.231750    2.204611
     48          1           0       -2.232558   -2.280505    1.903100
     49          8           0        0.221999   -2.050208    0.985546
     50          6           0       -1.850396   -1.088490    3.643925
     51          1           0       -1.913823   -0.045717    3.979672
     52          1           0       -2.452188   -1.695806    4.327887
     53          1           0       -0.809106   -1.413884    3.734387
     54          6           0       -3.837746   -0.847816    2.092067
     55          1           0       -3.995256    0.194719    2.395272
     56          1           0       -4.202696   -0.953700    1.065198
     57          1           0       -4.451053   -1.480840    2.742480
     58          7           0        0.905799    0.093616    1.355615
     59          1           0        0.659494    1.052984    1.575056
     60          6           0        2.289593   -0.107440    0.963838
     61          1           0        2.686207   -0.988335    1.481222
     62          6           0        3.062338    1.154205    1.389443
     63          6           0        2.406646   -0.330401   -0.563183
     64          1           0        3.419925   -0.661345   -0.811149
     65          1           0        1.732247   -1.147852   -0.834267
     66          8           0        2.492841    2.085451    1.963119
     67          6           0        2.082186    0.937287   -1.371762
     68          1           0        2.773030    1.734655   -1.089072
     69          1           0        1.062544    1.274794   -1.173064
     70          6           0        2.214780    0.675411   -2.861834
     71          7           0        3.453215    0.824877   -3.357404
     72          1           0        4.257567    1.060828   -2.751224
     73          1           0        3.603045    0.607393   -4.332974
     74          8           0        1.238286    0.322849   -3.547572
     75          7           0        4.365786    1.172767    1.020351
     76          1           0        4.636913    0.503025    0.295877
     77          6           0        5.026319    2.436766    0.701158
     78          1           0        4.257170    3.217501    0.648524
     79          6           0        5.666641    2.315370   -0.734023
     80          6           0        6.071511    2.862663    1.724708
     81          1           0        6.605683    3.689483    1.242780
     82          1           0        6.794998    2.047184    1.867421
     83          8           0        6.389285    3.258605   -1.078400
     84          6           0        5.469628    3.262660    3.072639
     85          1           0        4.701570    4.033503    2.929907
     86          1           0        4.951142    2.408073    3.517970
     87          6           0        6.526584    3.766192    4.072886
     88          1           0        7.282465    2.982742    4.228120
     89          1           0        6.062418    3.979903    5.045873
     90          6           0        7.201806    5.021116    3.542921
     91          1           0        7.702379    4.855743    2.588629
     92          1           0        6.506981    5.858002    3.441083
     93          7           0        8.292928    5.492043    4.510300
     94          1           0        8.767259    6.340896    4.180543
     95          1           0        9.003189    4.759997    4.629673
     96          1           0        7.899168    5.687063    5.438279
     97          8           0        5.343270    1.255732   -1.362674
 ---------------------------------------------------------------------

 SCF Done:  E(RB3LYP) =  -2122.51271246     A.U. after    2 cycles

 Alpha  occ. eigenvalues --  -19.23737 -19.18112 -19.15846 -19.15713 -19.14470
 Alpha  occ. eigenvalues --  -19.10178 -19.09006 -14.62437 -14.56826 -14.47124
 Alpha  occ. eigenvalues --  -14.42158 -14.40127 -14.37772 -14.36879 -10.40696
 Alpha  occ. eigenvalues --  -10.38497 -10.37439 -10.35258 -10.32892 -10.32324
 Alpha  occ. eigenvalues --  -10.32004 -10.31567 -10.30954 -10.30467 -10.28932
 Alpha  occ. eigenvalues --  -10.28325 -10.28107 -10.28075 -10.28038 -10.27926
 Alpha  occ. eigenvalues --  -10.27845 -10.27734 -10.27692 -10.27513 -10.27359
 Alpha  occ. eigenvalues --  -10.26057 -10.26001 -10.25991 -10.24503 -10.24157
 Alpha  occ. eigenvalues --  -10.23164 -10.22788 -10.22732 -10.22358 -10.21646
 Alpha  occ. eigenvalues --   -1.16484  -1.16324  -1.11092  -1.10148  -1.07976
 Alpha  occ. eigenvalues --   -1.07117  -1.05499  -1.03932  -1.02905  -0.98567
 Alpha  occ. eigenvalues --   -0.96716  -0.95671  -0.94196  -0.93985  -0.93293
 Alpha  occ. eigenvalues --   -0.92160  -0.92101  -0.87406  -0.85888  -0.84992
 Alpha  occ. eigenvalues --   -0.84104  -0.83165  -0.82800  -0.82745  -0.80960
 Alpha  occ. eigenvalues --   -0.78699  -0.77387  -0.75515  -0.74965  -0.74597
 Alpha  occ. eigenvalues --   -0.74275  -0.73579  -0.72823  -0.71915  -0.70368
 Alpha  occ. eigenvalues --   -0.70082  -0.69548  -0.68590  -0.67657  -0.66916
 Alpha  occ. eigenvalues --   -0.66246  -0.65452  -0.64668  -0.64028  -0.63737
 Alpha  occ. eigenvalues --   -0.62460  -0.61889  -0.60929  -0.60017  -0.59566
 Alpha  occ. eigenvalues --   -0.59256  -0.59127  -0.58578  -0.58132  -0.57201
 Alpha  occ. eigenvalues --   -0.55804  -0.55589  -0.54766  -0.54137  -0.53864
 Alpha  occ. eigenvalues --   -0.53527  -0.53389  -0.53121  -0.52786  -0.52193
 Alpha  occ. eigenvalues --   -0.51992  -0.51451  -0.51208  -0.51066  -0.50423
 Alpha  occ. eigenvalues --   -0.50147  -0.50059  -0.49868  -0.49317  -0.48856
 Alpha  occ. eigenvalues --   -0.48195  -0.48031  -0.47904  -0.47476  -0.47321
 Alpha  occ. eigenvalues --   -0.46662  -0.46444  -0.46116  -0.45595  -0.45191
 Alpha  occ. eigenvalues --   -0.45113  -0.44652  -0.44388  -0.44328  -0.44203
 Alpha  occ. eigenvalues --   -0.44054  -0.43978  -0.43502  -0.43446  -0.43284
 Alpha  occ. eigenvalues --   -0.43097  -0.42321  -0.41934  -0.41642  -0.41177
 Alpha  occ. eigenvalues --   -0.40931  -0.40473  -0.39696  -0.39212  -0.39075
 Alpha  occ. eigenvalues --   -0.38938  -0.38604  -0.38310  -0.38212  -0.37941
 Alpha  occ. eigenvalues --   -0.37449  -0.36852  -0.36405  -0.33771  -0.33374
 Alpha  occ. eigenvalues --   -0.33079  -0.31345  -0.30585  -0.29732  -0.29287
 Alpha  occ. eigenvalues --   -0.29011  -0.28844  -0.28218  -0.25497  -0.24886
 Alpha  occ. eigenvalues --   -0.23039
 Alpha virt. eigenvalues --   -0.13033  -0.11130  -0.09067  -0.09001  -0.07239
 Alpha virt. eigenvalues --   -0.06352  -0.06291  -0.05392  -0.03997  -0.03197
 Alpha virt. eigenvalues --   -0.02429  -0.01609  -0.01312  -0.00591   0.00095

 Mulliken charges:
               1
     1  N   -0.767520
     2  H    0.414980
     3  H    0.399177
     4  H    0.426468
     5  C   -0.112157
     6  H    0.195437
     7  C    0.655109
     8  C   -0.103549
     9  H    0.146640
    10  O   -0.515446
    11  C   -0.276686
    12  H    0.163657
    13  H    0.173183
    14  C   -0.473425
    15  H    0.198029
    16  H    0.183738
    17  H    0.135325
    18  C   -0.468596
    19  H    0.186084
    20  H    0.130279
    21  H    0.163920
    22  N   -0.612173
    23  H    0.347468
    24  C   -0.121310
    25  H    0.277241
    26  C    0.626459
    27  C   -0.350746
    28  H    0.216063
    29  H    0.154209
    30  O   -0.517951
    31  C    0.125267
    32  C   -0.160329
    33  H    0.221097
    34  C   -0.202946
    35  H    0.137179
    36  C   -0.145376
    37  H    0.158116
    38  C   -0.154566
    39  H    0.149946
    40  C   -0.213515
    41  H    0.152466
    42  N   -0.604110
    43  H    0.341534
    44  C   -0.041963
    45  H    0.168960
    46  C    0.619927
    47  C   -0.084168
    48  H    0.140124
    49  O   -0.559737
    50  C   -0.461171
    51  H    0.144343
    52  H    0.152440
    53  H    0.166661
    54  C   -0.444478
    55  H    0.149276
    56  H    0.132531
    57  H    0.148700
    58  N   -0.604344
    59  H    0.359679
    60  C   -0.038952
    61  H    0.181164
    62  C    0.574624
    63  C   -0.307438
    64  H    0.171157
    65  H    0.175307
    66  O   -0.549994
    67  C   -0.378013
    68  H    0.175012
    69  H    0.174577
    70  C    0.569475
    71  N   -0.753000
    72  H    0.419517
    73  H    0.322462
    74  O   -0.549429
    75  N   -0.595154
    76  H    0.356287
    77  C   -0.077934
    78  H    0.158549
    79  C    0.590209
    80  C   -0.278293
    81  H    0.157392
    82  H    0.132648
    83  O   -0.565571
    84  C   -0.264156
    85  H    0.160038
    86  H    0.183186
    87  C   -0.293156
    88  H    0.158235
    89  H    0.155656
    90  C   -0.207484
    91  H    0.242922
    92  H    0.224586
    93  N   -0.731210
    94  H    0.427507
    95  H    0.424247
    96  H    0.421105
    97  O   -0.631527
 Sum of Mulliken charges =   1.00000

 Dipole moment (field-independent basis, Debye):
    X=              6.7932    Y=              4.9337    Z=              2.9223  Tot=              8.8898
 Quadrupole moment (field-independent basis, Debye-Ang):
   XX=            -11.7580   YY=           -131.0251   ZZ=            -82.6012
   XY=            188.8105   XZ=            224.6086   YZ=            161.9975

 Normal termination of Gaussian 16 at Thu Jun 30 19:47:59 2022.
