 Gaussian 16, Revision C.01,
 Gaussian 16:  ES64L-G16RevC.01  3-Jul-2019

 ----------------------------------------------------------------------
 # B3LYP/6-31G* empiricaldispersion=gd3bj guess=read geom=check nosymm
 integral(ultrafinegrid)
 ----------------------------------------------------------------------

 ------------------------------------------------------
 Candidate Structure: Conf:370 Charge calc in gas phase
 ------------------------------------------------------
 Structure from the checkpoint file:  "conf-370.chk"
 Charge =  1 Multiplicity = 1

                          Input orientation:
 ---------------------------------------------------------------------
 Center     Atomic      Atomic             Coordinates (Angstroms)
 Number     Number       Type             X           Y           Z
 ---------------------------------------------------------------------
      1          7           0       -5.116937    1.932572   -3.415015
      2          1           0       -5.669611    1.870797   -4.274086
      3          1           0       -5.349926    2.804230   -2.931932
      4          1           0       -5.333809    1.092956   -2.807270
      5          6           0       -3.625137    1.780896   -3.652447
      6          1           0       -3.434078    1.951678   -4.713135
      7          6           0       -3.384973    0.302902   -3.266052
      8          6           0       -2.854883    2.816002   -2.793582
      9          1           0       -3.251963    3.793229   -3.112498
     10          8           0       -4.251185   -0.272579   -2.596422
     11          6           0       -1.346773    2.828649   -3.108893
     12          1           0       -0.891919    1.900331   -2.748870
     13          1           0       -0.899485    3.623975   -2.503893
     14          6           0       -3.112463    2.630898   -1.291504
     15          1           0       -2.720833    1.672074   -0.944934
     16          1           0       -2.607179    3.428952   -0.740396
     17          1           0       -4.175173    2.685284   -1.019659
     18          6           0       -0.987500    3.084825   -4.574288
     19          1           0        0.079442    3.301996   -4.642345
     20          1           0       -1.188794    2.227976   -5.231930
     21          1           0       -1.537078    3.947754   -4.971249
     22          7           0       -2.262828   -0.258724   -3.723463
     23          1           0       -1.576726    0.328104   -4.188149
     24          6           0       -1.749888   -1.515610   -3.201989
     25          1           0       -2.594569   -2.205475   -3.109087
     26          6           0       -1.220461   -1.280537   -1.765590
     27          6           0       -0.712346   -2.102075   -4.198363
     28          1           0       -1.259947   -2.642039   -4.975661
     29          1           0       -0.097675   -2.847623   -3.681328
     30          8           0       -1.381637   -0.196166   -1.200147
     31          6           0        0.160662   -1.049163   -4.849934
     32          6           0        0.151848   -0.913723   -6.243120
     33          1           0       -0.440628   -1.600179   -6.842803
     34          6           0        0.921332   -0.147761   -4.087972
     35          1           0        0.944548   -0.234903   -3.004404
     36          6           0        0.896263    0.088431   -6.867814
     37          1           0        0.887407    0.170671   -7.950605
     38          6           0        1.637026    0.877092   -4.707323
     39          1           0        2.144430    1.629203   -4.113835
     40          6           0        1.630056    0.990413   -6.099319
     41          1           0        2.185584    1.791962   -6.576223
     42          7           0       -0.627438   -2.334527   -1.166713
     43          1           0       -0.469172   -3.185536   -1.687636
     44          6           0       -0.167702   -2.290604    0.229812
     45          1           0       -0.886566   -1.659440    0.763047
     46          6           0        1.216878   -1.595956    0.270273
     47          6           0       -0.139814   -3.681289    0.875958
     48          1           0        0.701853   -4.230937    0.435407
     49          8           0        2.274887   -2.229194    0.392253
     50          6           0        0.116504   -3.528731    2.382797
     51          1           0       -0.741643   -3.056282    2.875231
     52          1           0        0.267578   -4.508847    2.845955
     53          1           0        0.995721   -2.910533    2.584326
     54          6           0       -1.441827   -4.456888    0.638575
     55          1           0       -2.306333   -3.895587    1.012545
     56          1           0       -1.620935   -4.677700   -0.418974
     57          1           0       -1.410152   -5.413791    1.168795
     58          7           0        1.136869   -0.268978    0.084974
     59          1           0        0.209498    0.122723   -0.051882
     60          6           0        2.278965    0.623416    0.049525
     61          1           0        3.098773    0.060826   -0.416274
     62          6           0        2.764552    0.922693    1.492852
     63          6           0        1.960507    1.867902   -0.801167
     64          1           0        1.181586    1.615628   -1.526929
     65          1           0        1.543902    2.651683   -0.157142
     66          8           0        2.482631    0.112792    2.405898
     67          6           0        3.163376    2.430058   -1.582823
     68          1           0        3.442402    1.727348   -2.374861
     69          1           0        4.037832    2.580399   -0.948554
     70          6           0        2.746827    3.750113   -2.221902
     71          7           0        3.243995    4.848703   -1.626742
     72          1           0        3.789280    4.800901   -0.755567
     73          1           0        2.944914    5.749688   -1.975044
     74          8           0        1.965879    3.766698   -3.183688
     75          7           0        3.560404    1.979237    1.568467
     76          1           0        3.598678    2.686752    0.811127
     77          6           0        4.440675    2.543784    2.600036
     78          1           0        3.897613    2.648397    3.544226
     79          6           0        4.832257    3.970025    2.035663
     80          6           0        5.729708    1.699564    2.834416
     81          1           0        6.181348    2.035465    3.771403
     82          1           0        6.453946    1.893835    2.034266
     83          8           0        5.514029    4.675514    2.772235
     84          6           0        5.304535    0.237347    2.835756
     85          1           0        4.471901    0.159902    3.538549
     86          1           0        4.881226    0.100099    1.836910
     87          6           0        6.198649   -0.986141    3.037599
     88          1           0        6.370658   -1.207549    4.097159
     89          1           0        7.183233   -0.876318    2.568349
     90          6           0        5.495693   -2.160673    2.327809
     91          1           0        5.580352   -2.040430    1.245274
     92          1           0        5.892666   -3.141133    2.600556
     93          7           0        3.996514   -2.199138    2.591764
     94          1           0        3.484705   -2.708554    1.852961
     95          1           0        3.528099   -1.248273    2.556693
     96          1           0        3.780470   -2.611006    3.502678
     97          8           0        4.410484    4.173700    0.841237
 ---------------------------------------------------------------------

 SCF Done:  E(RB3LYP) =  -2122.52601781     A.U. after    1 cycles

 Alpha  occ. eigenvalues --  -19.26899 -19.24301 -19.22008 -19.19160 -19.16521
 Alpha  occ. eigenvalues --  -19.12072 -19.09992 -14.59842 -14.53411 -14.49777
 Alpha  occ. eigenvalues --  -14.48546 -14.45226 -14.41164 -14.39413 -10.43592
 Alpha  occ. eigenvalues --  -10.41193 -10.39903 -10.38823 -10.36341 -10.36140
 Alpha  occ. eigenvalues --  -10.34780 -10.34040 -10.33729 -10.33022 -10.31786
 Alpha  occ. eigenvalues --  -10.31373 -10.29542 -10.29382 -10.29284 -10.28809
 Alpha  occ. eigenvalues --  -10.28402 -10.28371 -10.28187 -10.28183 -10.27787
 Alpha  occ. eigenvalues --  -10.27517 -10.27351 -10.27111 -10.27049 -10.26910
 Alpha  occ. eigenvalues --  -10.26419 -10.26386 -10.25620 -10.25410 -10.24058
 Alpha  occ. eigenvalues --   -1.19438  -1.16255  -1.13798  -1.13383  -1.10333
 Alpha  occ. eigenvalues --   -1.08237  -1.07787  -1.06933  -1.04734  -1.04579
 Alpha  occ. eigenvalues --   -1.02062  -0.98650  -0.95752  -0.95343  -0.94564
 Alpha  occ. eigenvalues --   -0.94395  -0.91508  -0.89736  -0.89093  -0.87688
 Alpha  occ. eigenvalues --   -0.86156  -0.84121  -0.83436  -0.83297  -0.83135
 Alpha  occ. eigenvalues --   -0.81839  -0.79116  -0.78047  -0.77043  -0.76717
 Alpha  occ. eigenvalues --   -0.75247  -0.73934  -0.73357  -0.72662  -0.72428
 Alpha  occ. eigenvalues --   -0.71436  -0.70426  -0.69720  -0.69038  -0.68222
 Alpha  occ. eigenvalues --   -0.68128  -0.67682  -0.67271  -0.66794  -0.65174
 Alpha  occ. eigenvalues --   -0.63987  -0.63281  -0.62903  -0.62621  -0.62198
 Alpha  occ. eigenvalues --   -0.61572  -0.61036  -0.59994  -0.59534  -0.59300
 Alpha  occ. eigenvalues --   -0.58539  -0.58510  -0.58020  -0.57267  -0.56557
 Alpha  occ. eigenvalues --   -0.55800  -0.54899  -0.54807  -0.54628  -0.54424
 Alpha  occ. eigenvalues --   -0.54031  -0.53899  -0.53449  -0.53196  -0.52846
 Alpha  occ. eigenvalues --   -0.52234  -0.51847  -0.51524  -0.51407  -0.51230
 Alpha  occ. eigenvalues --   -0.50842  -0.50679  -0.50289  -0.49986  -0.49876
 Alpha  occ. eigenvalues --   -0.49229  -0.48869  -0.48708  -0.48457  -0.48249
 Alpha  occ. eigenvalues --   -0.48237  -0.47963  -0.47489  -0.46864  -0.46654
 Alpha  occ. eigenvalues --   -0.46173  -0.45825  -0.44965  -0.44479  -0.44430
 Alpha  occ. eigenvalues --   -0.44188  -0.43783  -0.43652  -0.43479  -0.43221
 Alpha  occ. eigenvalues --   -0.43070  -0.42979  -0.42785  -0.42608  -0.42140
 Alpha  occ. eigenvalues --   -0.41896  -0.41236  -0.41151  -0.40787  -0.40252
 Alpha  occ. eigenvalues --   -0.40229  -0.39351  -0.39132  -0.38132  -0.37694
 Alpha  occ. eigenvalues --   -0.35708  -0.35007  -0.34086  -0.33703  -0.32765
 Alpha  occ. eigenvalues --   -0.32268  -0.31362  -0.30421  -0.27255  -0.26676
 Alpha  occ. eigenvalues --   -0.24108
 Alpha virt. eigenvalues --   -0.12534  -0.11070  -0.10812  -0.09338  -0.09060
 Alpha virt. eigenvalues --   -0.08334  -0.06393  -0.06338  -0.05151  -0.04473
 Alpha virt. eigenvalues --   -0.03704  -0.02539  -0.01752  -0.00701  -0.00340

 Mulliken charges:
               1
     1  N   -0.758116
     2  H    0.415078
     3  H    0.413897
     4  H    0.432808
     5  C   -0.125878
     6  H    0.214286
     7  C    0.674058
     8  C   -0.104928
     9  H    0.149390
    10  O   -0.543121
    11  C   -0.291000
    12  H    0.169455
    13  H    0.186062
    14  C   -0.498650
    15  H    0.222087
    16  H    0.187961
    17  H    0.122680
    18  C   -0.494704
    19  H    0.236495
    20  H    0.128065
    21  H    0.143631
    22  N   -0.599414
    23  H    0.386706
    24  C   -0.087079
    25  H    0.212729
    26  C    0.661443
    27  C   -0.373724
    28  H    0.179290
    29  H    0.167949
    30  O   -0.546191
    31  C    0.110340
    32  C   -0.185759
    33  H    0.139865
    34  C   -0.227525
    35  H    0.142186
    36  C   -0.125658
    37  H    0.153390
    38  C   -0.132599
    39  H    0.197665
    40  C   -0.137545
    41  H    0.161068
    42  N   -0.613335
    43  H    0.348162
    44  C   -0.047775
    45  H    0.184363
    46  C    0.652909
    47  C   -0.106979
    48  H    0.150607
    49  O   -0.594034
    50  C   -0.460329
    51  H    0.161673
    52  H    0.161469
    53  H    0.141097
    54  C   -0.451068
    55  H    0.157503
    56  H    0.132725
    57  H    0.169901
    58  N   -0.604556
    59  H    0.378149
    60  C   -0.035313
    61  H    0.181215
    62  C    0.606897
    63  C   -0.346361
    64  H    0.168946
    65  H    0.176886
    66  O   -0.593765
    67  C   -0.378558
    68  H    0.155749
    69  H    0.192997
    70  C    0.584636
    71  N   -0.755731
    72  H    0.417052
    73  H    0.333842
    74  O   -0.553721
    75  N   -0.622923
    76  H    0.407535
    77  C   -0.069953
    78  H    0.166647
    79  C    0.596100
    80  C   -0.266174
    81  H    0.175849
    82  H    0.153054
    83  O   -0.538704
    84  C   -0.304038
    85  H    0.162402
    86  H    0.132367
    87  C   -0.266984
    88  H    0.164089
    89  H    0.179331
    90  C   -0.193287
    91  H    0.206564
    92  H    0.190871
    93  N   -0.800528
    94  H    0.430149
    95  H    0.458665
    96  H    0.387252
    97  O   -0.640230
 Sum of Mulliken charges =   1.00000

 Dipole moment (field-independent basis, Debye):
    X=            -13.3516    Y=             -9.9980    Z=            -12.6500  Tot=             20.9343
 Quadrupole moment (field-independent basis, Debye-Ang):
   XX=           -184.8686   YY=           -256.5284   ZZ=           -189.6593
   XY=           -100.2880   XZ=             65.2182   YZ=            -53.7343

 Normal termination of Gaussian 16 at Thu Jun 30 19:47:39 2022.
