 Gaussian 16, Revision C.01,
 Gaussian 16:  ES64L-G16RevC.01  3-Jul-2019

 ----------------------------------------------------------------------
 # B3LYP/6-31G* empiricaldispersion=gd3bj guess=read geom=check nosymm
 integral(ultrafinegrid)
 ----------------------------------------------------------------------

 ------------------------------------------------------
 Candidate Structure: Conf:112 Charge calc in gas phase
 ------------------------------------------------------
 Structure from the checkpoint file:  "conf-112.chk"
 Charge =  1 Multiplicity = 1

                          Input orientation:
 ---------------------------------------------------------------------
 Center     Atomic      Atomic             Coordinates (Angstroms)
 Number     Number       Type             X           Y           Z
 ---------------------------------------------------------------------
      1          7           0       -7.160118   -2.212353   -4.738769
      2          1           0       -7.799234   -1.422184   -4.854940
      3          1           0       -7.686719   -3.083087   -4.842437
      4          1           0       -6.376077   -2.142129   -5.465965
      5          6           0       -6.361566   -2.149731   -3.452191
      6          1           0       -6.823360   -1.403176   -2.805194
      7          6           0       -4.974368   -1.685347   -3.961351
      8          6           0       -6.343333   -3.536072   -2.764357
      9          1           0       -7.401768   -3.810652   -2.632200
     10          8           0       -4.766745   -1.747517   -5.187180
     11          6           0       -5.715964   -3.492232   -1.355099
     12          1           0       -4.634133   -3.335317   -1.427603
     13          1           0       -5.842539   -4.496164   -0.934187
     14          6           0       -5.652862   -4.597646   -3.632777
     15          1           0       -4.590064   -4.370105   -3.762217
     16          1           0       -5.729635   -5.575211   -3.149251
     17          1           0       -6.091434   -4.699692   -4.633164
     18          6           0       -6.329171   -2.468900   -0.395136
     19          1           0       -5.916945   -2.602158    0.608458
     20          1           0       -6.114111   -1.431991   -0.681311
     21          1           0       -7.418106   -2.580402   -0.328378
     22          7           0       -4.111620   -1.291418   -3.044261
     23          1           0       -4.315785   -1.314599   -2.042222
     24          6           0       -2.705435   -0.980152   -3.286301
     25          1           0       -2.331705   -1.637998   -4.074971
     26          6           0       -2.029279   -1.313925   -1.940564
     27          6           0       -2.531175    0.494704   -3.716655
     28          1           0       -2.948326    1.132353   -2.929524
     29          1           0       -3.147376    0.633961   -4.613511
     30          8           0       -2.731530   -1.390834   -0.920273
     31          6           0       -1.093898    0.869045   -3.988066
     32          6           0       -0.460675    1.854747   -3.223708
     33          1           0       -1.016006    2.356756   -2.434469
     34          6           0       -0.370244    0.228972   -5.003957
     35          1           0       -0.855391   -0.523634   -5.623590
     36          6           0        0.863570    2.209042   -3.478967
     37          1           0        1.360443    2.990338   -2.914592
     38          6           0        0.963353    0.563971   -5.241270
     39          1           0        1.514127    0.055207   -6.027171
     40          6           0        1.581514    1.557499   -4.481798
     41          1           0        2.611776    1.851003   -4.648512
     42          7           0       -0.714188   -1.536163   -1.982593
     43          1           0       -0.171579   -1.330052   -2.821331
     44          6           0        0.101716   -1.798262   -0.800889
     45          1           0       -0.393049   -1.347554    0.065111
     46          6           0        1.452475   -1.130218   -1.104374
     47          6           0        0.299419   -3.319764   -0.554110
     48          1           0        0.896736   -3.693827   -1.396629
     49          8           0        1.876316   -1.126989   -2.262403
     50          6           0        1.075841   -3.564975    0.746753
     51          1           0        0.520082   -3.174468    1.609457
     52          1           0        1.218454   -4.639315    0.904279
     53          1           0        2.060757   -3.090814    0.738991
     54          6           0       -1.034357   -4.075463   -0.531083
     55          1           0       -1.691480   -3.692445    0.256691
     56          1           0       -1.563278   -3.985587   -1.484676
     57          1           0       -0.856870   -5.140830   -0.346618
     58          7           0        2.111065   -0.601266   -0.062316
     59          1           0        1.774500   -0.652919    0.895241
     60          6           0        3.424217    0.001040   -0.201712
     61          1           0        4.049017   -0.662176   -0.811041
     62          6           0        3.996057    0.122198    1.222419
     63          6           0        3.360643    1.399175   -0.880023
     64          1           0        2.406565    1.479782   -1.403353
     65          1           0        3.379846    2.179138   -0.110182
     66          8           0        3.291881   -0.137140    2.209039
     67          6           0        4.492261    1.642778   -1.892044
     68          1           0        4.320574    1.014240   -2.771029
     69          1           0        5.467649    1.391187   -1.468657
     70          6           0        4.492831    3.105616   -2.328525
     71          7           0        5.356069    3.893172   -1.654311
     72          1           0        5.937291    3.541992   -0.880377
     73          1           0        5.342272    4.882045   -1.862841
     74          8           0        3.723419    3.521756   -3.201308
     75          7           0        5.258261    0.579023    1.278766
     76          1           0        5.681900    0.952323    0.419665
     77          6           0        5.768991    1.408696    2.367711
     78          1           0        4.921426    1.857235    2.900185
     79          6           0        6.602196    2.579245    1.705609
     80          6           0        6.637188    0.655640    3.368904
     81          1           0        7.107252    1.416879    4.001415
     82          1           0        7.440140    0.136715    2.827324
     83          8           0        7.120724    3.372457    2.497106
     84          6           0        5.852999   -0.345211    4.218163
     85          1           0        5.031083    0.172798    4.728775
     86          1           0        5.384368   -1.101270    3.578170
     87          6           0        6.763225   -1.016698    5.257106
     88          1           0        7.234465   -0.241558    5.878239
     89          1           0        7.570043   -1.559246    4.744081
     90          6           0        5.978570   -1.970553    6.136057
     91          1           0        5.186693   -1.468812    6.696736
     92          1           0        5.548971   -2.804961    5.577195
     93          7           0        6.903428   -2.599721    7.189795
     94          1           0        6.414446   -3.252695    7.813203
     95          1           0        7.331488   -1.867193    7.768653
     96          1           0        7.670469   -3.108113    6.733994
     97          8           0        6.636921    2.535566    0.434096
 ---------------------------------------------------------------------

 SCF Done:  E(RB3LYP) =  -2122.49262864     A.U. after    3 cycles

 Alpha  occ. eigenvalues --  -19.25542 -19.20044 -19.16488 -19.15624 -19.11199
 Alpha  occ. eigenvalues --  -19.09007 -19.07597 -14.62860 -14.58728 -14.47854
 Alpha  occ. eigenvalues --  -14.43213 -14.40534 -14.37106 -14.34304 -10.42103
 Alpha  occ. eigenvalues --  -10.39276 -10.39242 -10.36928 -10.33645 -10.33351
 Alpha  occ. eigenvalues --  -10.32614 -10.32039 -10.30881 -10.29691 -10.29393
 Alpha  occ. eigenvalues --  -10.29279 -10.28865 -10.27838 -10.26987 -10.26781
 Alpha  occ. eigenvalues --  -10.26621 -10.25786 -10.25749 -10.24460 -10.23576
 Alpha  occ. eigenvalues --  -10.23557 -10.23365 -10.23348 -10.22964 -10.22758
 Alpha  occ. eigenvalues --  -10.22267 -10.21829 -10.21793 -10.21598 -10.20424
 Alpha  occ. eigenvalues --   -1.18056  -1.16726  -1.12689  -1.11835  -1.08689
 Alpha  occ. eigenvalues --   -1.06849  -1.04758  -1.02631  -1.01757  -0.99926
 Alpha  occ. eigenvalues --   -0.97121  -0.94960  -0.94564  -0.92930  -0.92334
 Alpha  occ. eigenvalues --   -0.90389  -0.89474  -0.87722  -0.86604  -0.85028
 Alpha  occ. eigenvalues --   -0.84126  -0.83591  -0.82269  -0.79872  -0.78258
 Alpha  occ. eigenvalues --   -0.78124  -0.77837  -0.75546  -0.75378  -0.75347
 Alpha  occ. eigenvalues --   -0.74578  -0.73956  -0.73534  -0.73272  -0.72449
 Alpha  occ. eigenvalues --   -0.70014  -0.69525  -0.67438  -0.66890  -0.66264
 Alpha  occ. eigenvalues --   -0.65731  -0.65186  -0.64378  -0.63631  -0.63264
 Alpha  occ. eigenvalues --   -0.62553  -0.62249  -0.61197  -0.60621  -0.60018
 Alpha  occ. eigenvalues --   -0.59685  -0.58908  -0.58100  -0.57448  -0.56011
 Alpha  occ. eigenvalues --   -0.55457  -0.54868  -0.54580  -0.53901  -0.53700
 Alpha  occ. eigenvalues --   -0.53551  -0.53329  -0.53067  -0.52995  -0.52325
 Alpha  occ. eigenvalues --   -0.51910  -0.51248  -0.50977  -0.50803  -0.49995
 Alpha  occ. eigenvalues --   -0.49566  -0.49365  -0.48934  -0.48773  -0.48656
 Alpha  occ. eigenvalues --   -0.48282  -0.47750  -0.47542  -0.47319  -0.46830
 Alpha  occ. eigenvalues --   -0.46208  -0.45807  -0.45651  -0.45346  -0.45156
 Alpha  occ. eigenvalues --   -0.44994  -0.44696  -0.44517  -0.44395  -0.44264
 Alpha  occ. eigenvalues --   -0.44125  -0.43821  -0.43506  -0.43171  -0.42924
 Alpha  occ. eigenvalues --   -0.41617  -0.41133  -0.40381  -0.40116  -0.40020
 Alpha  occ. eigenvalues --   -0.39821  -0.39724  -0.39352  -0.39148  -0.38822
 Alpha  occ. eigenvalues --   -0.38559  -0.37941  -0.37780  -0.37447  -0.37155
 Alpha  occ. eigenvalues --   -0.36611  -0.36308  -0.35552  -0.34383  -0.33073
 Alpha  occ. eigenvalues --   -0.30696  -0.30160  -0.29545  -0.28866  -0.28781
 Alpha  occ. eigenvalues --   -0.28211  -0.26255  -0.25298  -0.23977  -0.23805
 Alpha  occ. eigenvalues --   -0.21714
 Alpha virt. eigenvalues --   -0.13469  -0.10899  -0.10176  -0.06843  -0.06647
 Alpha virt. eigenvalues --   -0.06007  -0.05808  -0.04590  -0.04147  -0.03816
 Alpha virt. eigenvalues --   -0.03731  -0.02715  -0.01271  -0.00600  -0.00367

 Mulliken charges:
               1
     1  N   -0.763911
     2  H    0.414189
     3  H    0.408487
     4  H    0.435248
     5  C   -0.111210
     6  H    0.212232
     7  C    0.652544
     8  C   -0.109853
     9  H    0.150623
    10  O   -0.555701
    11  C   -0.287831
    12  H    0.180109
    13  H    0.169452
    14  C   -0.475566
    15  H    0.187717
    16  H    0.190168
    17  H    0.138404
    18  C   -0.468790
    19  H    0.190827
    20  H    0.147692
    21  H    0.153883
    22  N   -0.613514
    23  H    0.391376
    24  C   -0.074988
    25  H    0.191612
    26  C    0.637163
    27  C   -0.342702
    28  H    0.156697
    29  H    0.172965
    30  O   -0.569513
    31  C    0.153659
    32  C   -0.190061
    33  H    0.122464
    34  C   -0.215430
    35  H    0.119015
    36  C   -0.137707
    37  H    0.176678
    38  C   -0.110852
    39  H    0.136257
    40  C   -0.120256
    41  H    0.177068
    42  N   -0.616184
    43  H    0.382911
    44  C   -0.040318
    45  H    0.166850
    46  C    0.623626
    47  C   -0.070853
    48  H    0.147917
    49  O   -0.546317
    50  C   -0.466219
    51  H    0.142902
    52  H    0.147890
    53  H    0.165548
    54  C   -0.445832
    55  H    0.156985
    56  H    0.132847
    57  H    0.144296
    58  N   -0.623457
    59  H    0.350312
    60  C   -0.027061
    61  H    0.177869
    62  C    0.572286
    63  C   -0.290626
    64  H    0.178129
    65  H    0.163386
    66  O   -0.573793
    67  C   -0.369053
    68  H    0.166125
    69  H    0.173564
    70  C    0.560986
    71  N   -0.763379
    72  H    0.411304
    73  H    0.324985
    74  O   -0.540299
    75  N   -0.610259
    76  H    0.377768
    77  C   -0.080566
    78  H    0.149810
    79  C    0.589260
    80  C   -0.257473
    81  H    0.169115
    82  H    0.133679
    83  O   -0.559839
    84  C   -0.264792
    85  H    0.154922
    86  H    0.167832
    87  C   -0.291852
    88  H    0.164677
    89  H    0.161688
    90  C   -0.205906
    91  H    0.226362
    92  H    0.224859
    93  N   -0.730735
    94  H    0.423872
    95  H    0.425402
    96  H    0.424134
    97  O   -0.627929
 Sum of Mulliken charges =   1.00000

 Dipole moment (field-independent basis, Debye):
    X=            -13.3419    Y=            -27.5455    Z=             13.5732  Tot=             33.4812
 Quadrupole moment (field-independent basis, Debye-Ang):
   XX=              2.3609   YY=           -235.4206   ZZ=            -25.8624
   XY=            -64.1795   XZ=            279.0539   YZ=            -45.5565

 Normal termination of Gaussian 16 at Thu Jun 30 19:48:01 2022.
