 Gaussian 16, Revision C.01,
 Gaussian 16:  ES64L-G16RevC.01  3-Jul-2019

 ----------------------------------------------------------------------
 # B3LYP/6-31G* empiricaldispersion=gd3bj guess=read geom=check nosymm
 integral(ultrafinegrid)
 ----------------------------------------------------------------------

 ------------------------------------------------------
 Candidate Structure: Conf:584 Charge calc in gas phase
 ------------------------------------------------------
 Structure from the checkpoint file:  "conf-584.chk"
 Charge =  1 Multiplicity = 1

                          Input orientation:
 ---------------------------------------------------------------------
 Center     Atomic      Atomic             Coordinates (Angstroms)
 Number     Number       Type             X           Y           Z
 ---------------------------------------------------------------------
      1          7           0       -3.975477   -0.156247   -5.450303
      2          1           0       -3.062626   -0.216852   -5.938522
      3          1           0       -4.567831    0.550844   -5.892204
      4          1           0       -4.402320   -1.104106   -5.509926
      5          6           0       -3.778872    0.066094   -3.964217
      6          1           0       -2.951162    0.765601   -3.839712
      7          6           0       -3.389244   -1.351254   -3.507579
      8          6           0       -5.078556    0.604723   -3.325838
      9          1           0       -5.294878    1.556773   -3.837138
     10          8           0       -3.950796   -2.307132   -4.059705
     11          6           0       -4.858937    0.924839   -1.832056
     12          1           0       -4.424547    0.050716   -1.330783
     13          1           0       -5.848265    1.070690   -1.384025
     14          6           0       -6.278982   -0.334071   -3.518681
     15          1           0       -6.134964   -1.282047   -2.994319
     16          1           0       -7.177850    0.145554   -3.121414
     17          1           0       -6.480890   -0.568286   -4.570999
     18          6           0       -4.001664    2.165971   -1.569300
     19          1           0       -3.928455    2.352485   -0.493155
     20          1           0       -2.983889    2.051258   -1.952386
     21          1           0       -4.450409    3.054616   -2.030022
     22          7           0       -2.434808   -1.432818   -2.582095
     23          1           0       -1.946989   -0.577329   -2.298745
     24          6           0       -1.765215   -2.693328   -2.318761
     25          1           0       -2.489884   -3.492400   -2.491932
     26          6           0       -1.299615   -2.671537   -0.856611
     27          6           0       -0.537288   -2.877684   -3.280582
     28          1           0       -0.284947   -3.943335   -3.314902
     29          1           0        0.327908   -2.366896   -2.847408
     30          8           0       -1.517243   -1.696598   -0.142736
     31          6           0       -0.800209   -2.370766   -4.679727
     32          6           0       -1.371154   -3.195476   -5.657223
     33          1           0       -1.600361   -4.229391   -5.415023
     34          6           0       -0.527735   -1.035936   -5.005826
     35          1           0       -0.108611   -0.375437   -4.253699
     36          6           0       -1.663730   -2.706019   -6.929438
     37          1           0       -2.097840   -3.365566   -7.674771
     38          6           0       -0.815676   -0.536821   -6.281333
     39          1           0       -0.561799    0.491639   -6.526467
     40          6           0       -1.384973   -1.373231   -7.250084
     41          1           0       -1.582040   -0.998688   -8.250995
     42          7           0       -0.572696   -3.740856   -0.431263
     43          1           0       -0.238630   -4.379108   -1.142743
     44          6           0        0.357409   -3.536695    0.686400
     45          1           0       -0.226359   -3.203150    1.548988
     46          6           0        1.341196   -2.434883    0.246637
     47          6           0        1.090830   -4.846963    1.024694
     48          1           0        1.624426   -5.155906    0.113623
     49          8           0        1.854471   -2.472420   -0.873982
     50          6           0        2.131669   -4.615251    2.127587
     51          1           0        1.656687   -4.244115    3.044270
     52          1           0        2.635842   -5.554820    2.373344
     53          1           0        2.896961   -3.893299    1.826855
     54          6           0        0.099257   -5.944710    1.427671
     55          1           0       -0.433138   -5.665956    2.344950
     56          1           0       -0.650218   -6.129393    0.652029
     57          1           0        0.628189   -6.883710    1.619925
     58          7           0        1.553841   -1.434105    1.125755
     59          1           0        1.170044   -1.450635    2.065018
     60          6           0        2.412446   -0.304121    0.836940
     61          1           0        3.188627   -0.637404    0.141811
     62          6           0        3.011747    0.152060    2.175948
     63          6           0        1.629484    0.879822    0.205947
     64          1           0        0.976015    1.303312    0.979432
     65          1           0        2.359702    1.651605   -0.071796
     66          8           0        2.439795   -0.108997    3.234118
     67          6           0        0.790500    0.436639   -0.993847
     68          1           0        0.111473   -0.353958   -0.672452
     69          1           0        1.427351   -0.004241   -1.769469
     70          6           0       -0.104761    1.451702   -1.668428
     71          7           0        0.059684    2.755434   -1.372022
     72          1           0        0.751059    3.073907   -0.710004
     73          1           0       -0.539591    3.441233   -1.810689
     74          8           0       -0.967418    1.080367   -2.485613
     75          7           0        4.139382    0.880747    2.082729
     76          1           0        4.552302    1.116936    1.186087
     77          6           0        4.760217    1.538696    3.221355
     78          1           0        3.984246    2.018530    3.827395
     79          6           0        5.712098    2.581509    2.658014
     80          6           0        5.538106    0.554927    4.130455
     81          1           0        4.835806   -0.249391    4.368794
     82          1           0        5.759547    1.072827    5.069100
     83          8           0        6.311381    3.285205    3.598739
     84          6           0        6.836879   -0.041840    3.545659
     85          1           0        6.971192   -1.021486    4.016372
     86          1           0        6.700989   -0.251164    2.475968
     87          6           0        8.145435    0.770957    3.771157
     88          1           0        8.921541    0.072365    4.100121
     89          1           0        7.994675    1.463861    4.606916
     90          6           0        8.702845    1.562179    2.559818
     91          1           0        9.691486    1.173895    2.283266
     92          1           0        8.054276    1.445021    1.689834
     93          7           0        8.775420    3.023565    2.830006
     94          1           0        9.078007    3.516717    1.991079
     95          1           0        9.471035    3.213752    3.551182
     96          1           0        7.282820    3.461496    3.266221
     97          8           0        5.960280    2.646626    1.459805
 ---------------------------------------------------------------------

 SCF Done:  E(RB3LYP) =  -2122.58897474     A.U. after    1 cycles

 Alpha  occ. eigenvalues --  -19.23240 -19.22250 -19.22144 -19.21094 -19.19696
 Alpha  occ. eigenvalues --  -19.19223 -19.19077 -14.57067 -14.46341 -14.46291
 Alpha  occ. eigenvalues --  -14.44722 -14.43777 -14.43110 -14.41569 -10.40174
 Alpha  occ. eigenvalues --  -10.39574 -10.38012 -10.37414 -10.36847 -10.36340
 Alpha  occ. eigenvalues --  -10.36226 -10.33382 -10.31610 -10.31389 -10.31066
 Alpha  occ. eigenvalues --  -10.29779 -10.29501 -10.29316 -10.29260 -10.28942
 Alpha  occ. eigenvalues --  -10.28811 -10.28642 -10.28612 -10.28600 -10.28020
 Alpha  occ. eigenvalues --  -10.27769 -10.27759 -10.27638 -10.27308 -10.25789
 Alpha  occ. eigenvalues --  -10.24773 -10.24723 -10.24701 -10.24547 -10.24457
 Alpha  occ. eigenvalues --   -1.16020  -1.14941  -1.13472  -1.13312  -1.11523
 Alpha  occ. eigenvalues --   -1.11077  -1.10660  -1.06356  -1.03628  -1.01389
 Alpha  occ. eigenvalues --   -1.00982  -1.00410  -0.99785  -0.96877  -0.95570
 Alpha  occ. eigenvalues --   -0.92689  -0.89572  -0.88562  -0.87665  -0.86223
 Alpha  occ. eigenvalues --   -0.85058  -0.84286  -0.83042  -0.82773  -0.81526
 Alpha  occ. eigenvalues --   -0.80620  -0.77915  -0.75942  -0.75750  -0.75432
 Alpha  occ. eigenvalues --   -0.73655  -0.72599  -0.71578  -0.70804  -0.69917
 Alpha  occ. eigenvalues --   -0.69810  -0.69535  -0.68490  -0.68145  -0.67864
 Alpha  occ. eigenvalues --   -0.66755  -0.66476  -0.66302  -0.65835  -0.65580
 Alpha  occ. eigenvalues --   -0.64384  -0.63294  -0.62808  -0.61344  -0.60808
 Alpha  occ. eigenvalues --   -0.59625  -0.58975  -0.58274  -0.57615  -0.57426
 Alpha  occ. eigenvalues --   -0.57085  -0.56929  -0.56639  -0.55906  -0.55539
 Alpha  occ. eigenvalues --   -0.55347  -0.54530  -0.54473  -0.53791  -0.53675
 Alpha  occ. eigenvalues --   -0.53446  -0.53093  -0.52860  -0.52325  -0.51960
 Alpha  occ. eigenvalues --   -0.51762  -0.51696  -0.51465  -0.51052  -0.50614
 Alpha  occ. eigenvalues --   -0.50402  -0.49936  -0.49694  -0.49525  -0.49238
 Alpha  occ. eigenvalues --   -0.48930  -0.48568  -0.48056  -0.47746  -0.47406
 Alpha  occ. eigenvalues --   -0.47154  -0.46775  -0.46486  -0.46393  -0.46173
 Alpha  occ. eigenvalues --   -0.45940  -0.45758  -0.45222  -0.45040  -0.44757
 Alpha  occ. eigenvalues --   -0.44220  -0.43813  -0.43483  -0.43412  -0.43306
 Alpha  occ. eigenvalues --   -0.43259  -0.42997  -0.42620  -0.42365  -0.42167
 Alpha  occ. eigenvalues --   -0.41257  -0.41166  -0.40475  -0.39554  -0.39424
 Alpha  occ. eigenvalues --   -0.38786  -0.38008  -0.37363  -0.36945  -0.36352
 Alpha  occ. eigenvalues --   -0.36161  -0.35759  -0.35031  -0.34577  -0.34140
 Alpha  occ. eigenvalues --   -0.34020  -0.33744  -0.33388  -0.32674  -0.32395
 Alpha  occ. eigenvalues --   -0.32117
 Alpha virt. eigenvalues --   -0.11168  -0.10527  -0.09710  -0.07964  -0.07375
 Alpha virt. eigenvalues --   -0.07283  -0.05780  -0.05375  -0.04625  -0.02000
 Alpha virt. eigenvalues --   -0.01637  -0.01110  -0.00325   0.00284   0.00440

 Mulliken charges:
               1
     1  N   -0.765309
     2  H    0.412388
     3  H    0.398309
     4  H    0.422201
     5  C   -0.131165
     6  H    0.229266
     7  C    0.654957
     8  C   -0.097977
     9  H    0.138301
    10  O   -0.558085
    11  C   -0.272834
    12  H    0.170475
    13  H    0.162086
    14  C   -0.468883
    15  H    0.192140
    16  H    0.178530
    17  H    0.127643
    18  C   -0.488082
    19  H    0.167035
    20  H    0.170076
    21  H    0.145405
    22  N   -0.603128
    23  H    0.403260
    24  C   -0.081687
    25  H    0.208075
    26  C    0.633304
    27  C   -0.402680
    28  H    0.161352
    29  H    0.212073
    30  O   -0.521262
    31  C    0.162576
    32  C   -0.146199
    33  H    0.150261
    34  C   -0.182110
    35  H    0.167027
    36  C   -0.132595
    37  H    0.159089
    38  C   -0.206109
    39  H    0.153452
    40  C   -0.169104
    41  H    0.155158
    42  N   -0.595595
    43  H    0.341804
    44  C   -0.028169
    45  H    0.170624
    46  C    0.623724
    47  C   -0.111927
    48  H    0.144328
    49  O   -0.563983
    50  C   -0.463417
    51  H    0.152958
    52  H    0.164439
    53  H    0.161263
    54  C   -0.445787
    55  H    0.154903
    56  H    0.149335
    57  H    0.161588
    58  N   -0.593583
    59  H    0.359694
    60  C   -0.058910
    61  H    0.182973
    62  C    0.626435
    63  C   -0.296508
    64  H    0.167197
    65  H    0.147890
    66  O   -0.538428
    67  C   -0.401481
    68  H    0.231962
    69  H    0.198491
    70  C    0.633000
    71  N   -0.736315
    72  H    0.364680
    73  H    0.356641
    74  O   -0.564326
    75  N   -0.619499
    76  H    0.351949
    77  C   -0.036884
    78  H    0.188179
    79  C    0.603315
    80  C   -0.268775
    81  H    0.174872
    82  H    0.164316
    83  O   -0.605201
    84  C   -0.288315
    85  H    0.152140
    86  H    0.140905
    87  C   -0.284615
    88  H    0.152015
    89  H    0.160412
    90  C   -0.161091
    91  H    0.150623
    92  H    0.183611
    93  N   -0.777176
    94  H    0.338973
    95  H    0.332367
    96  H    0.460119
    97  O   -0.514967
 Sum of Mulliken charges =   1.00000

 Dipole moment (field-independent basis, Debye):
    X=             -1.1371    Y=              1.1464    Z=            -13.6573  Tot=             13.7525
 Quadrupole moment (field-independent basis, Debye-Ang):
   XX=           -129.2217   YY=           -224.0417   ZZ=           -166.6828
   XY=             10.5621   XZ=             90.4670   YZ=             -1.8838

 Normal termination of Gaussian 16 at Thu Jun 30 19:47:43 2022.
