 Gaussian 16, Revision C.01,
 Gaussian 16:  ES64L-G16RevC.01  3-Jul-2019

 -------------------------------------------------------------------
 # B3LYP/6-31G* guess=read geom=check nosymm integral(ultrafinegrid)
 -------------------------------------------------------------------

 ------------------------------------------------------
 Candidate Structure: Conf:333 Charge calc in gas phase
 ------------------------------------------------------
 Structure from the checkpoint file:  "conf-333.chk"
 Charge =  1 Multiplicity = 1

                          Input orientation:
 ---------------------------------------------------------------------
 Center     Atomic      Atomic             Coordinates (Angstroms)
 Number     Number       Type             X           Y           Z
 ---------------------------------------------------------------------
      1          7           0        8.863408    8.393882   -7.672224
      2          1           0        8.677690    7.633214   -8.385616
      3          1           0        9.648565    8.943279   -8.027004
      4          1           0        8.019592    9.014553   -7.604082
      5          6           0        9.065861    7.928886   -6.264473
      6          1           0        9.009059    6.841631   -6.220209
      7          1           0       10.036431    8.268242   -5.897631
      8          6           0        7.906175    8.551088   -5.457287
      9          8           0        7.101737    9.280855   -6.053931
     10          7           0        7.866097    8.263363   -4.159347
     11          1           0        8.419938    7.504609   -3.758287
     12          6           0        6.777936    8.680370   -3.291119
     13          1           0        5.808849    8.469305   -3.758275
     14          1           0        6.828798    9.755877   -3.088865
     15          6           0        6.898838    7.857672   -2.002139
     16          8           0        7.696164    6.919538   -1.934324
     17          7           0        6.088214    8.244414   -1.001333
     18          1           0        5.340840    8.913677   -1.174113
     19          6           0        5.833228    7.396837    0.144569
     20          1           0        5.993882    6.349750   -0.130991
     21          1           0        6.512633    7.630276    0.975316
     22          6           0        4.387406    7.641732    0.591059
     23          8           0        3.741079    8.591916    0.161516
     24          7           0        3.918064    6.762669    1.517169
     25          1           0        4.409645    5.887425    1.655283
     26          6           0        2.532977    6.762100    1.935969
     27          1           0        2.443185    7.000999    3.004671
     28          1           0        2.010129    7.545029    1.378838
     29          6           0        1.914856    5.381328    1.689590
     30          8           0        2.632095    4.406550    1.416640
     31          7           0        0.581417    5.299695    1.827343
     32          1           0       -0.003941    6.125730    1.929644
     33          6           0       -0.154841    4.066202    1.645575
     34          1           0        0.321334    3.460623    0.868153
     35          1           0       -0.156688    3.466871    2.566396
     36          6           0       -1.598407    4.420479    1.256824
     37          8           0       -2.006623    5.576092    1.318987
     38          7           0       -2.331866    3.359125    0.849542
     39          1           0       -1.895553    2.440652    0.793711
     40          6           0       -3.724230    3.448331    0.417109
     41          1           0       -4.423497    3.291473    1.243218
     42          1           0       -3.896222    4.448208    0.004227
     43          6           0       -3.983178    2.345142   -0.616235
     44          8           0       -4.901247    1.553102   -0.515394
     45          7           0       -3.056230    2.301109   -1.645385
     46          1           0       -2.267422    2.924877   -1.525007
     47          6           0       -2.722708    1.017442   -2.218565
     48          1           0       -3.616008    0.387936   -2.148725
     49          1           0       -2.459544    1.114342   -3.278512
     50          6           0       -1.569488    0.361126   -1.435931
     51          8           0       -1.223760    0.781608   -0.320140
     52          7           0       -0.963366   -0.686611   -2.028647
     53          1           0       -1.242205   -0.943836   -2.966349
     54          6           0        0.072999   -1.494344   -1.379512
     55          1           0        0.118487   -2.462100   -1.878548
     56          1           0       -0.217775   -1.645802   -0.334631
     57          6           0        1.491579   -0.886808   -1.439538
     58          8           0        2.419060   -1.475796   -1.970105
     59          7           0        1.597328    0.321342   -0.809631
     60          1           0        0.756969    0.702944   -0.384300
     61          6           0        2.831379    1.080597   -0.786594
     62          1           0        3.009787    1.470544    0.221832
     63          1           0        3.638100    0.393865   -1.055312
     64          6           0        2.812654    2.210849   -1.823112
     65          8           0        2.827731    1.979140   -3.037089
     66          7           0        2.757215    3.473566   -1.329978
     67          1           0        2.785033    3.650861   -0.325159
     68          6           0        2.623869    4.626093   -2.213203
     69          1           0        1.921017    4.371693   -3.015005
     70          1           0        2.229444    5.466221   -1.640684
     71          6           0        3.954356    5.086002   -2.829291
     72          8           0        4.443904    6.183857   -2.584002
     73          7           0        4.535712    4.181228   -3.676870
     74          1           0        4.095489    3.258958   -3.729441
     75          6           0        5.911128    4.364109   -4.103448
     76          1           0        6.371453    3.384487   -4.266780
     77          1           0        6.486249    4.879346   -3.326534
     78          6           0        6.106214    5.184180   -5.377919
     79          8           0        7.251217    5.529057   -5.716592
     80          7           0        5.009044    5.476027   -6.099759
     81          1           0        4.127106    5.142558   -5.730561
     82          6           0        4.985184    6.419179   -7.216949
     83          1           0        3.946881    6.682791   -7.418650
     84          1           0        5.510955    7.337055   -6.922893
     85          6           0        5.574591    5.941351   -8.555535
     86          8           0        5.041609    6.231888   -9.618043
     87          7           0        6.745465    5.244795   -8.485715
     88          1           0        7.200515    5.142917   -7.581596
     89          6           0        7.392312    4.818093   -9.701983
     90          1           0        6.668505    4.311547  -10.347846
     91          1           0        8.178400    4.099771   -9.444511
     92          6           0        8.048686    5.976113  -10.464774
     93          8           0        8.604472    6.929434   -9.890210
     94          7           0        8.051773    5.865724  -11.797969
     95          1           0        7.541098    5.124604  -12.268748
     96          6           0        8.661920    6.846502  -12.672961
     97          1           0        9.738626    6.933207  -12.486732
     98          1           0        8.229186    7.842177  -12.518243
     99          6           0        8.425849    6.408906  -14.107726
    100          8           0        7.810891    5.412335  -14.417280
    101          8           0        8.981840    7.265905  -14.974892
    102          1           0        8.793330    6.937501  -15.875304
 ---------------------------------------------------------------------

 SCF Done:  E(RB3LYP) =  -2989.01570701     A.U. after    3 cycles

 Alpha  occ. eigenvalues --  -19.29172 -19.24180 -19.23866 -19.23592 -19.22468
 Alpha  occ. eigenvalues --  -19.22215 -19.21613 -19.21135 -19.20546 -19.20390
 Alpha  occ. eigenvalues --  -19.20213 -19.20085 -19.20077 -19.19272 -19.18169
 Alpha  occ. eigenvalues --  -14.54773 -14.47033 -14.46935 -14.46880 -14.46321
 Alpha  occ. eigenvalues --  -14.45451 -14.44826 -14.44787 -14.44765 -14.44476
 Alpha  occ. eigenvalues --  -14.44165 -14.44005 -14.43486 -14.42762 -10.42122
 Alpha  occ. eigenvalues --  -10.40989 -10.40118 -10.39401 -10.38794 -10.38669
 Alpha  occ. eigenvalues --  -10.37944 -10.37731 -10.37677 -10.37450 -10.37389
 Alpha  occ. eigenvalues --  -10.37167 -10.36607 -10.36339 -10.35617 -10.33544
 Alpha  occ. eigenvalues --  -10.33115 -10.32620 -10.32226 -10.32127 -10.31858
 Alpha  occ. eigenvalues --  -10.31759 -10.31585 -10.31579 -10.30950 -10.30930
 Alpha  occ. eigenvalues --  -10.30287 -10.30108  -1.20344  -1.16188  -1.14913
 Alpha  occ. eigenvalues --   -1.14139  -1.13671  -1.13398  -1.12846  -1.12560
 Alpha  occ. eigenvalues --   -1.12271  -1.11975  -1.11783  -1.11742  -1.11593
 Alpha  occ. eigenvalues --   -1.11066  -1.09995  -1.09423  -1.03454  -1.03332
 Alpha  occ. eigenvalues --   -1.03140  -1.01995  -1.01738  -1.01377  -1.01180
 Alpha  occ. eigenvalues --   -1.00996  -1.00945  -1.00581  -1.00321  -0.99486
 Alpha  occ. eigenvalues --   -0.98996  -0.87257  -0.87034  -0.85820  -0.85554
 Alpha  occ. eigenvalues --   -0.84718  -0.83818  -0.83254  -0.81981  -0.81131
 Alpha  occ. eigenvalues --   -0.80056  -0.79214  -0.78114  -0.76891  -0.75893
 Alpha  occ. eigenvalues --   -0.72409  -0.70445  -0.70082  -0.69703  -0.69561
 Alpha  occ. eigenvalues --   -0.69053  -0.68595  -0.68188  -0.68045  -0.67423
 Alpha  occ. eigenvalues --   -0.67247  -0.66770  -0.66512  -0.66198  -0.65931
 Alpha  occ. eigenvalues --   -0.65451  -0.64574  -0.63426  -0.63372  -0.62945
 Alpha  occ. eigenvalues --   -0.62315  -0.62011  -0.61251  -0.60661  -0.60354
 Alpha  occ. eigenvalues --   -0.59306  -0.59070  -0.58723  -0.58412  -0.58292
 Alpha  occ. eigenvalues --   -0.58153  -0.57575  -0.57245  -0.57089  -0.56831
 Alpha  occ. eigenvalues --   -0.56682  -0.56494  -0.56287  -0.56039  -0.55675
 Alpha  occ. eigenvalues --   -0.55508  -0.55229  -0.55067  -0.54853  -0.54657
 Alpha  occ. eigenvalues --   -0.54425  -0.54064  -0.53795  -0.53542  -0.53187
 Alpha  occ. eigenvalues --   -0.52796  -0.52251  -0.52100  -0.51784  -0.51618
 Alpha  occ. eigenvalues --   -0.51395  -0.51257  -0.51039  -0.50545  -0.50236
 Alpha  occ. eigenvalues --   -0.50026  -0.49811  -0.49786  -0.49499  -0.49248
 Alpha  occ. eigenvalues --   -0.48976  -0.48789  -0.48469  -0.48324  -0.48307
 Alpha  occ. eigenvalues --   -0.48102  -0.47638  -0.47431  -0.47108  -0.46864
 Alpha  occ. eigenvalues --   -0.46819  -0.46671  -0.46202  -0.45875  -0.45567
 Alpha  occ. eigenvalues --   -0.45427  -0.45023  -0.44906  -0.44443  -0.44092
 Alpha  occ. eigenvalues --   -0.43772  -0.43471  -0.41410  -0.38962  -0.38731
 Alpha  occ. eigenvalues --   -0.38265  -0.37627  -0.37377  -0.36969  -0.36925
 Alpha  occ. eigenvalues --   -0.36847  -0.36612  -0.36475  -0.36201  -0.35640
 Alpha  occ. eigenvalues --   -0.35226  -0.35181  -0.34915  -0.34562  -0.34412
 Alpha  occ. eigenvalues --   -0.34240  -0.34133  -0.33967  -0.33365  -0.33239
 Alpha  occ. eigenvalues --   -0.33042  -0.32966  -0.32494  -0.31522  -0.31253
 Alpha virt. eigenvalues --   -0.09557  -0.09031  -0.08389  -0.08113  -0.08091
 Alpha virt. eigenvalues --   -0.07918  -0.07405  -0.06804  -0.06610  -0.06428
 Alpha virt. eigenvalues --   -0.06080  -0.05842  -0.05525  -0.05303  -0.04259

 Mulliken charges:
               1
     1  N   -0.776751
     2  H    0.442383
     3  H    0.398821
     4  H    0.415549
     5  C   -0.272042
     6  H    0.259147
     7  H    0.219497
     8  C    0.637012
     9  O   -0.536535
    10  N   -0.597681
    11  H    0.374099
    12  C   -0.212215
    13  H    0.215192
    14  H    0.199668
    15  C    0.630273
    16  O   -0.541722
    17  N   -0.598881
    18  H    0.364627
    19  C   -0.198317
    20  H    0.192028
    21  H    0.198282
    22  C    0.599672
    23  O   -0.515375
    24  N   -0.590858
    25  H    0.347297
    26  C   -0.232700
    27  H    0.202459
    28  H    0.217901
    29  C    0.606660
    30  O   -0.561738
    31  N   -0.593735
    32  H    0.368438
    33  C   -0.209299
    34  H    0.178773
    35  H    0.204374
    36  C    0.596195
    37  O   -0.513880
    38  N   -0.651232
    39  H    0.383374
    40  C   -0.200975
    41  H    0.204950
    42  H    0.208266
    43  C    0.552082
    44  O   -0.470787
    45  N   -0.545615
    46  H    0.325032
    47  C   -0.255692
    48  H    0.236112
    49  H    0.179970
    50  C    0.614876
    51  O   -0.556214
    52  N   -0.575801
    53  H    0.354227
    54  C   -0.246832
    55  H    0.198367
    56  H    0.204273
    57  C    0.599020
    58  O   -0.486270
    59  N   -0.603538
    60  H    0.368239
    61  C   -0.226951
    62  H    0.172044
    63  H    0.215850
    64  C    0.592153
    65  O   -0.536452
    66  N   -0.621772
    67  H    0.405838
    68  C   -0.241342
    69  H    0.186377
    70  H    0.187070
    71  C    0.579213
    72  O   -0.511588
    73  N   -0.629225
    74  H    0.389474
    75  C   -0.236230
    76  H    0.198887
    77  H    0.228875
    78  C    0.618245
    79  O   -0.583049
    80  N   -0.568799
    81  H    0.360362
    82  C   -0.257385
    83  H    0.200844
    84  H    0.203858
    85  C    0.590388
    86  O   -0.498988
    87  N   -0.603588
    88  H    0.373418
    89  C   -0.241349
    90  H    0.196292
    91  H    0.195388
    92  C    0.667224
    93  O   -0.588312
    94  N   -0.594875
    95  H    0.374458
    96  C   -0.184888
    97  H    0.211221
    98  H    0.216045
    99  C    0.575696
   100  O   -0.447989
   101  O   -0.552481
   102  H    0.433589
 Sum of Mulliken charges =   1.00000

 Dipole moment (field-independent basis, Debye):
    X=             30.0417    Y=             27.9205    Z=            -27.2362  Tot=             49.2328
 Quadrupole moment (field-independent basis, Debye-Ang):
   XX=            -66.5789   YY=           -132.6084   ZZ=            -27.8771
   XY=            238.1358   XZ=           -247.4391   YZ=           -187.8557

 Normal termination of Gaussian 16 at Thu Aug 11 11:21:29 2022.
