 Gaussian 16, Revision C.01,
 Gaussian 16:  ES64L-G16RevC.01  3-Jul-2019

 -------------------------------------------------------------------
 # B3LYP/6-31G* guess=read geom=check nosymm integral(ultrafinegrid)
 -------------------------------------------------------------------

 ------------------------------------------------------
 Candidate Structure: Conf:242 Charge calc in gas phase
 ------------------------------------------------------
 Structure from the checkpoint file:  "conf-242.chk"
 Charge =  1 Multiplicity = 1

                          Input orientation:
 ---------------------------------------------------------------------
 Center     Atomic      Atomic             Coordinates (Angstroms)
 Number     Number       Type             X           Y           Z
 ---------------------------------------------------------------------
      1          7           0        4.114150    6.825782    5.932516
      2          1           0        3.604827    6.197977    6.559487
      3          1           0        4.989630    7.112598    6.426794
      4          1           0        4.384218    6.292268    5.067586
      5          6           0        3.283584    8.004085    5.524197
      6          1           0        2.435827    7.656216    4.932291
      7          1           0        2.932561    8.506924    6.428908
      8          6           0        4.219539    8.935727    4.745156
      9          8           0        5.336936    9.170577    5.201728
     10          7           0        3.732186    9.412021    3.585314
     11          1           0        2.797961    9.120486    3.282415
     12          6           0        4.560847   10.188513    2.672433
     13          1           0        5.564953   10.232740    3.100252
     14          1           0        4.169396   11.202838    2.554118
     15          6           0        4.559317    9.540077    1.283571
     16          8           0        3.815398    9.959480    0.387156
     17          7           0        5.370824    8.474446    1.101423
     18          1           0        6.001321    8.158535    1.841719
     19          6           0        5.451667    7.839714   -0.205886
     20          1           0        5.830030    8.549604   -0.950632
     21          1           0        6.159471    7.011565   -0.129569
     22          6           0        4.103125    7.265665   -0.667818
     23          8           0        3.546278    6.320611   -0.080303
     24          7           0        3.552901    7.833602   -1.757938
     25          1           0        3.950396    8.705834   -2.080654
     26          6           0        2.228413    7.446136   -2.226626
     27          1           0        1.991639    8.041567   -3.112721
     28          1           0        2.221221    6.393230   -2.515638
     29          6           0        1.121131    7.618938   -1.173457
     30          8           0        0.159441    6.849755   -1.161721
     31          7           0        1.270303    8.647525   -0.304552
     32          1           0        2.150713    9.158408   -0.254751
     33          6           0        0.360388    8.803804    0.823608
     34          1           0        0.474271    9.809678    1.228668
     35          1           0       -0.666877    8.672424    0.471732
     36          6           0        0.677118    7.799345    1.942907
     37          8           0        1.254181    8.140557    2.985882
     38          7           0        0.311874    6.526245    1.689018
     39          1           0       -0.141570    6.340949    0.795658
     40          6           0        0.602476    5.435737    2.605176
     41          1           0        1.509378    5.697580    3.161410
     42          1           0       -0.207685    5.285001    3.325495
     43          6           0        0.827284    4.086043    1.926429
     44          8           0        0.432115    3.058119    2.483003
     45          7           0        1.504268    4.077333    0.753426
     46          1           0        1.876011    4.942939    0.375389
     47          6           0        1.680630    2.853817   -0.029635
     48          1           0        0.731597    2.305505   -0.033887
     49          1           0        1.929173    3.132926   -1.053433
     50          6           0        2.793812    1.908768    0.462707
     51          8           0        3.694839    1.529357   -0.286715
     52          7           0        2.681330    1.511732    1.753384
     53          1           0        1.874914    1.835933    2.286985
     54          6           0        3.637997    0.589898    2.343894
     55          1           0        3.720679   -0.312577    1.727583
     56          1           0        3.273579    0.310672    3.333870
     57          6           0        5.011198    1.256669    2.522027
     58          8           0        5.255909    2.003165    3.463177
     59          7           0        5.932093    0.937945    1.555003
     60          1           0        5.507803    0.652860    0.675023
     61          6           0        7.147951    1.734609    1.440626
     62          1           0        7.640097    1.455798    0.502819
     63          1           0        6.924473    2.803429    1.388989
     64          6           0        8.176430    1.529285    2.556157
     65          8           0        9.019376    2.403890    2.783220
     66          7           0        8.155559    0.336578    3.189221
     67          1           0        7.402549   -0.301088    2.968409
     68          6           0        9.229870   -0.114828    4.068252
     69          1           0        9.144514   -1.195753    4.179783
     70          1           0       10.189305    0.118048    3.591174
     71          6           0        9.238255    0.467110    5.496201
     72          8           0        9.060129   -0.240590    6.477424
     73          7           0        9.554599    1.796685    5.566462
     74          1           0        9.583667    2.318782    4.691425
     75          6           0        9.707086    2.447577    6.838898
     76          1           0       10.729951    2.829417    6.973311
     77          1           0        9.543003    1.675321    7.602039
     78          6           0        8.711283    3.580269    7.074269
     79          8           0        7.665929    3.704610    6.441852
     80          7           0        9.063251    4.490183    8.041970
     81          1           0        9.851335    4.271184    8.639333
     82          6           0        8.057143    5.413452    8.561301
     83          1           0        7.181940    4.880324    8.944479
     84          1           0        8.504319    5.977576    9.385772
     85          6           0        7.525075    6.403358    7.517252
     86          8           0        6.353300    6.785236    7.579152
     87          7           0        8.411770    6.822777    6.585558
     88          1           0        9.327538    6.391688    6.598325
     89          6           0        8.054291    7.677743    5.462968
     90          1           0        8.946425    8.200307    5.109726
     91          1           0        7.332373    8.429645    5.788964
     92          6           0        7.433258    6.951584    4.261410
     93          8           0        7.258091    7.550043    3.195370
     94          7           0        7.070175    5.664958    4.454233
     95          1           0        7.319807    5.169239    5.306512
     96          6           0        6.643617    4.841232    3.346787
     97          1           0        6.496092    3.818654    3.707371
     98          1           0        7.401648    4.817208    2.559334
     99          6           0        5.329698    5.300648    2.749313
    100          8           0        4.415755    5.833437    3.375662
    101          8           0        5.269493    5.034596    1.456471
    102          1           0        4.459890    5.441141    1.028344
 ---------------------------------------------------------------------

 SCF Done:  E(RB3LYP) =  -2989.05905032     A.U. after    3 cycles

 Alpha  occ. eigenvalues --  -19.28085 -19.25070 -19.24566 -19.23290 -19.23249
 Alpha  occ. eigenvalues --  -19.22462 -19.22425 -19.22017 -19.21734 -19.21363
 Alpha  occ. eigenvalues --  -19.20740 -19.20735 -19.20262 -19.19645 -19.18691
 Alpha  occ. eigenvalues --  -14.53782 -14.48448 -14.47882 -14.47496 -14.46452
 Alpha  occ. eigenvalues --  -14.46123 -14.45867 -14.45492 -14.45354 -14.45351
 Alpha  occ. eigenvalues --  -14.44816 -14.44459 -14.43455 -14.43031 -10.42254
 Alpha  occ. eigenvalues --  -10.41414 -10.40497 -10.40029 -10.39629 -10.39399
 Alpha  occ. eigenvalues --  -10.39043 -10.38776 -10.38704 -10.38156 -10.37475
 Alpha  occ. eigenvalues --  -10.37352 -10.36634 -10.35982 -10.35285 -10.34165
 Alpha  occ. eigenvalues --  -10.34067 -10.33449 -10.32465 -10.32295 -10.32265
 Alpha  occ. eigenvalues --  -10.31999 -10.31895 -10.31319 -10.31238 -10.31190
 Alpha  occ. eigenvalues --  -10.30992 -10.30730  -1.19975  -1.16331  -1.15471
 Alpha  occ. eigenvalues --   -1.14618  -1.14405  -1.13916  -1.13860  -1.13210
 Alpha  occ. eigenvalues --   -1.12966  -1.12743  -1.12534  -1.11816  -1.11102
 Alpha  occ. eigenvalues --   -1.11011  -1.10487  -1.08484  -1.04647  -1.04389
 Alpha  occ. eigenvalues --   -1.03202  -1.03005  -1.02545  -1.02144  -1.01489
 Alpha  occ. eigenvalues --   -1.01449  -1.01383  -1.00751  -1.00149  -0.99641
 Alpha  occ. eigenvalues --   -0.99413  -0.87598  -0.87121  -0.86277  -0.85384
 Alpha  occ. eigenvalues --   -0.84886  -0.84127  -0.83072  -0.82367  -0.81381
 Alpha  occ. eigenvalues --   -0.80473  -0.79558  -0.78890  -0.78013  -0.76771
 Alpha  occ. eigenvalues --   -0.72884  -0.71536  -0.70692  -0.69612  -0.69425
 Alpha  occ. eigenvalues --   -0.69247  -0.68977  -0.68776  -0.68171  -0.67851
 Alpha  occ. eigenvalues --   -0.67774  -0.67406  -0.67162  -0.66640  -0.65387
 Alpha  occ. eigenvalues --   -0.65206  -0.64510  -0.64247  -0.63989  -0.63767
 Alpha  occ. eigenvalues --   -0.63495  -0.61887  -0.61518  -0.60998  -0.60879
 Alpha  occ. eigenvalues --   -0.60544  -0.60419  -0.59902  -0.59781  -0.59559
 Alpha  occ. eigenvalues --   -0.58936  -0.58263  -0.57916  -0.57784  -0.57293
 Alpha  occ. eigenvalues --   -0.56945  -0.56771  -0.56351  -0.56211  -0.55909
 Alpha  occ. eigenvalues --   -0.55879  -0.55634  -0.54955  -0.54791  -0.54535
 Alpha  occ. eigenvalues --   -0.54492  -0.54312  -0.53676  -0.53556  -0.53329
 Alpha  occ. eigenvalues --   -0.53120  -0.53003  -0.52646  -0.52326  -0.52174
 Alpha  occ. eigenvalues --   -0.52062  -0.51683  -0.51194  -0.51172  -0.50884
 Alpha  occ. eigenvalues --   -0.50633  -0.50440  -0.50042  -0.49708  -0.49682
 Alpha  occ. eigenvalues --   -0.49267  -0.49161  -0.48856  -0.48653  -0.48561
 Alpha  occ. eigenvalues --   -0.48387  -0.48182  -0.47928  -0.47649  -0.47413
 Alpha  occ. eigenvalues --   -0.47186  -0.47091  -0.46820  -0.46496  -0.46421
 Alpha  occ. eigenvalues --   -0.46247  -0.45768  -0.45364  -0.45035  -0.44714
 Alpha  occ. eigenvalues --   -0.44419  -0.43634  -0.41530  -0.39692  -0.39570
 Alpha  occ. eigenvalues --   -0.39033  -0.38898  -0.38722  -0.38038  -0.37392
 Alpha  occ. eigenvalues --   -0.37133  -0.36685  -0.36514  -0.36219  -0.36027
 Alpha  occ. eigenvalues --   -0.35957  -0.35920  -0.35782  -0.35593  -0.35435
 Alpha  occ. eigenvalues --   -0.34980  -0.34733  -0.34555  -0.34290  -0.33982
 Alpha  occ. eigenvalues --   -0.33934  -0.32849  -0.32298  -0.32051  -0.31447
 Alpha virt. eigenvalues --   -0.10979  -0.10089  -0.09411  -0.09260  -0.08986
 Alpha virt. eigenvalues --   -0.08776  -0.07907  -0.07605  -0.07477  -0.07391
 Alpha virt. eigenvalues --   -0.07110  -0.06306  -0.05594  -0.05363  -0.03742

 Mulliken charges:
               1
     1  N   -0.791342
     2  H    0.395425
     3  H    0.449024
     4  H    0.439557
     5  C   -0.290308
     6  H    0.240515
     7  H    0.223155
     8  C    0.622804
     9  O   -0.522351
    10  N   -0.619993
    11  H    0.401571
    12  C   -0.218075
    13  H    0.215870
    14  H    0.197570
    15  C    0.585489
    16  O   -0.550303
    17  N   -0.603898
    18  H    0.420313
    19  C   -0.239850
    20  H    0.183099
    21  H    0.210069
    22  C    0.639002
    23  O   -0.566248
    24  N   -0.566235
    25  H    0.363629
    26  C   -0.231449
    27  H    0.206743
    28  H    0.212054
    29  C    0.613566
    30  O   -0.539356
    31  N   -0.605743
    32  H    0.400178
    33  C   -0.242719
    34  H    0.192638
    35  H    0.205506
    36  C    0.608495
    37  O   -0.546080
    38  N   -0.599124
    39  H    0.385609
    40  C   -0.209364
    41  H    0.203576
    42  H    0.201597
    43  C    0.585711
    44  O   -0.532907
    45  N   -0.602965
    46  H    0.383393
    47  C   -0.239179
    48  H    0.206581
    49  H    0.190184
    50  C    0.594273
    51  O   -0.530397
    52  N   -0.593848
    53  H    0.389265
    54  C   -0.222465
    55  H    0.180127
    56  H    0.190551
    57  C    0.581780
    58  O   -0.503134
    59  N   -0.601358
    60  H    0.370713
    61  C   -0.234999
    62  H    0.195200
    63  H    0.200097
    64  C    0.632567
    65  O   -0.560074
    66  N   -0.571019
    67  H    0.354018
    68  C   -0.237474
    69  H    0.193116
    70  H    0.192831
    71  C    0.597176
    72  O   -0.494133
    73  N   -0.591605
    74  H    0.372533
    75  C   -0.236598
    76  H    0.170945
    77  H    0.233596
    78  C    0.602495
    79  O   -0.511597
    80  N   -0.614954
    81  H    0.353262
    82  C   -0.220927
    83  H    0.208365
    84  H    0.201415
    85  C    0.611239
    86  O   -0.552051
    87  N   -0.579079
    88  H    0.351566
    89  C   -0.262613
    90  H    0.198601
    91  H    0.259886
    92  C    0.613394
    93  O   -0.551774
    94  N   -0.640010
    95  H    0.417600
    96  C   -0.261643
    97  H    0.261182
    98  H    0.202950
    99  C    0.636167
   100  O   -0.530510
   101  O   -0.588722
   102  H    0.458643
 Sum of Mulliken charges =   1.00000

 Dipole moment (field-independent basis, Debye):
    X=             27.3323    Y=             30.2414    Z=             16.7960  Tot=             44.0874
 Quadrupole moment (field-independent basis, Debye-Ang):
   XX=           -110.8892   YY=            -97.9763   ZZ=           -177.9385
   XY=            148.9215   XZ=            131.4863   YZ=            100.0487

 Normal termination of Gaussian 16 at Thu Aug 11 11:22:05 2022.
