 Gaussian 16, Revision C.01,
 Gaussian 16:  ES64L-G16RevC.01  3-Jul-2019

 -------------------------------------------------------------------
 # B3LYP/6-31G* guess=read geom=check nosymm integral(ultrafinegrid)
 -------------------------------------------------------------------

 ------------------------------------------------------
 Candidate Structure: Conf:558 Charge calc in gas phase
 ------------------------------------------------------
 Structure from the checkpoint file:  "conf-558.chk"
 Charge =  1 Multiplicity = 1

                          Input orientation:
 ---------------------------------------------------------------------
 Center     Atomic      Atomic             Coordinates (Angstroms)
 Number     Number       Type             X           Y           Z
 ---------------------------------------------------------------------
      1          7           0        7.531096    1.541805    4.309570
      2          1           0        7.637001    1.039129    3.404201
      3          1           0        7.012256    0.863755    4.903711
      4          1           0        8.441035    1.768245    4.758556
      5          6           0        6.831739    2.851079    4.172418
      6          1           0        6.958814    3.211069    3.148264
      7          1           0        5.764533    2.751096    4.371454
      8          6           0        7.523124    3.813587    5.158796
      9          8           0        8.603162    3.480230    5.653845
     10          7           0        6.872158    4.961848    5.380816
     11          1           0        5.950189    5.092610    4.951677
     12          6           0        7.391273    6.014903    6.256111
     13          1           0        7.977744    6.745795    5.692643
     14          1           0        8.032156    5.554108    7.013273
     15          6           0        6.184650    6.743776    6.853884
     16          8           0        5.817647    7.833380    6.420815
     17          7           0        5.506194    6.058516    7.815182
     18          1           0        5.782722    5.104401    8.007575
     19          6           0        4.146870    6.445239    8.197099
     20          1           0        3.893381    5.969498    9.144668
     21          1           0        4.122025    7.531145    8.314396
     22          6           0        3.149743    5.964184    7.128638
     23          8           0        2.466164    4.958165    7.267605
     24          7           0        3.141417    6.714290    5.986157
     25          1           0        3.848043    7.436664    5.882581
     26          6           0        2.431950    6.233240    4.825488
     27          1           0        1.382440    6.055190    5.080442
     28          1           0        2.464000    7.009957    4.054146
     29          6           0        3.040166    4.948783    4.239208
     30          8           0        4.248660    4.680001    4.312370
     31          7           0        2.180981    4.148029    3.587364
     32          1           0        1.182352    4.331959    3.542131
     33          6           0        2.606606    2.928034    2.945678
     34          1           0        3.346201    3.138658    2.161615
     35          1           0        3.087273    2.258450    3.671810
     36          6           0        1.377803    2.245879    2.332358
     37          8           0        0.273009    2.776843    2.340981
     38          7           0        1.632647    1.033435    1.789641
     39          1           0        2.548987    0.602638    1.846115
     40          6           0        0.627033    0.219801    1.142855
     41          1           0       -0.206332    0.006990    1.824988
     42          1           0        0.211109    0.728619    0.264216
     43          6           0        1.284504   -1.102669    0.748526
     44          8           0        2.419277   -1.394683    1.160989
     45          7           0        0.558717   -1.907306   -0.041145
     46          1           0       -0.376012   -1.622085   -0.298221
     47          6           0        0.959308   -3.281904   -0.298556
     48          1           0        1.002909   -3.831474    0.645422
     49          1           0        0.190850   -3.735366   -0.930154
     50          6           0        2.294780   -3.340124   -1.055611
     51          8           0        2.503251   -2.664173   -2.051683
     52          7           0        3.199893   -4.218079   -0.530194
     53          1           0        3.008586   -4.657398    0.366416
     54          6           0        4.521395   -4.360064   -1.108754
     55          1           0        4.442390   -4.256418   -2.194833
     56          1           0        4.907015   -5.360908   -0.900010
     57          6           0        5.569102   -3.333096   -0.662731
     58          8           0        6.725512   -3.418384   -1.041989
     59          7           0        5.137139   -2.329440    0.186288
     60          1           0        4.137588   -2.207081    0.336444
     61          6           0        5.976712   -1.164084    0.377848
     62          1           0        6.806975   -1.214427   -0.335571
     63          1           0        5.417561   -0.243889    0.180678
     64          6           0        6.601480   -1.032739    1.764344
     65          8           0        7.243933   -0.021381    2.067574
     66          7           0        6.416542   -2.093490    2.586528
     67          1           0        5.906874   -2.870015    2.177306
     68          6           0        7.053507   -2.235444    3.883738
     69          1           0        7.357585   -3.278575    4.019261
     70          1           0        7.952155   -1.614892    3.900073
     71          6           0        6.129870   -1.772918    5.022620
     72          8           0        6.060091   -0.593265    5.380653
     73          7           0        5.348822   -2.736828    5.573558
     74          1           0        5.506129   -3.698031    5.300274
     75          6           0        4.431961   -2.475957    6.677593
     76          1           0        4.731859   -1.535618    7.146256
     77          1           0        4.525453   -3.265153    7.428265
     78          6           0        2.940618   -2.348334    6.327204
     79          8           0        2.124245   -2.250684    7.227195
     80          7           0        2.614811   -2.359177    4.996440
     81          1           0        3.360744   -2.345403    4.313692
     82          6           0        1.274254   -2.032396    4.535291
     83          1           0        0.673209   -1.815958    5.424625
     84          1           0        1.292398   -1.143018    3.901172
     85          6           0        0.590477   -3.142955    3.732137
     86          8           0       -0.195968   -2.878602    2.828604
     87          7           0        0.874905   -4.411959    4.140511
     88          1           0        1.624858   -4.521740    4.809191
     89          6           0        0.427230   -5.570805    3.411592
     90          1           0       -0.391844   -5.242316    2.762145
     91          1           0        0.028034   -6.326681    4.098415
     92          6           0        1.542989   -6.166048    2.538649
     93          8           0        2.514305   -5.499147    2.173905
     94          7           0        1.389232   -7.467139    2.196763
     95          1           0        0.544626   -7.956872    2.458835
     96          6           0        2.362011   -8.141521    1.355664
     97          1           0        2.073573   -9.193871    1.273074
     98          1           0        3.355327   -8.099834    1.808598
     99          6           0        2.504825   -7.579558   -0.056270
    100          8           0        3.536605   -7.624645   -0.682875
    101          8           0        1.350319   -7.073018   -0.538889
    102          1           0        1.545872   -6.770087   -1.446832
 ---------------------------------------------------------------------

 SCF Done:  E(RB3LYP) =  -2989.01607838     A.U. after    3 cycles

 Alpha  occ. eigenvalues --  -19.29156 -19.26020 -19.24107 -19.23439 -19.23268
 Alpha  occ. eigenvalues --  -19.23043 -19.23011 -19.21800 -19.21604 -19.21417
 Alpha  occ. eigenvalues --  -19.21218 -19.20809 -19.19579 -19.19220 -19.19081
 Alpha  occ. eigenvalues --  -14.53141 -14.50355 -14.48752 -14.48005 -14.47084
 Alpha  occ. eigenvalues --  -14.46599 -14.46249 -14.46232 -14.45641 -14.45555
 Alpha  occ. eigenvalues --  -14.45507 -14.44498 -14.44054 -14.43329 -10.42938
 Alpha  occ. eigenvalues --  -10.41717 -10.40921 -10.40361 -10.40104 -10.39729
 Alpha  occ. eigenvalues --  -10.39467 -10.38695 -10.38592 -10.38484 -10.38033
 Alpha  occ. eigenvalues --  -10.36946 -10.36827 -10.36223 -10.36128 -10.35656
 Alpha  occ. eigenvalues --  -10.34420 -10.34056 -10.33624 -10.32846 -10.32707
 Alpha  occ. eigenvalues --  -10.32457 -10.32368 -10.31966 -10.31938 -10.31499
 Alpha  occ. eigenvalues --  -10.30769 -10.30264  -1.20011  -1.17589  -1.15552
 Alpha  occ. eigenvalues --   -1.15131  -1.15058  -1.14567  -1.13960  -1.13562
 Alpha  occ. eigenvalues --   -1.13076  -1.12882  -1.12685  -1.11866  -1.11189
 Alpha  occ. eigenvalues --   -1.11014  -1.10783  -1.08398  -1.06175  -1.04969
 Alpha  occ. eigenvalues --   -1.03917  -1.03341  -1.03018  -1.02781  -1.02115
 Alpha  occ. eigenvalues --   -1.01852  -1.01763  -1.01189  -1.01110  -0.99657
 Alpha  occ. eigenvalues --   -0.99623  -0.88791  -0.87161  -0.86869  -0.86511
 Alpha  occ. eigenvalues --   -0.85363  -0.84656  -0.83430  -0.82984  -0.81921
 Alpha  occ. eigenvalues --   -0.80769  -0.79769  -0.79310  -0.77856  -0.76634
 Alpha  occ. eigenvalues --   -0.72913  -0.72568  -0.70979  -0.70240  -0.69795
 Alpha  occ. eigenvalues --   -0.69558  -0.69459  -0.69264  -0.68702  -0.68668
 Alpha  occ. eigenvalues --   -0.68137  -0.67866  -0.67374  -0.66829  -0.66654
 Alpha  occ. eigenvalues --   -0.66571  -0.66072  -0.65249  -0.64235  -0.64088
 Alpha  occ. eigenvalues --   -0.63681  -0.62798  -0.62241  -0.61601  -0.61075
 Alpha  occ. eigenvalues --   -0.60438  -0.60169  -0.59823  -0.59721  -0.59045
 Alpha  occ. eigenvalues --   -0.58464  -0.58226  -0.57992  -0.57766  -0.57402
 Alpha  occ. eigenvalues --   -0.57171  -0.56980  -0.56727  -0.56482  -0.56355
 Alpha  occ. eigenvalues --   -0.56235  -0.55653  -0.55514  -0.55473  -0.55325
 Alpha  occ. eigenvalues --   -0.55172  -0.54821  -0.54459  -0.54156  -0.53904
 Alpha  occ. eigenvalues --   -0.53794  -0.53260  -0.53093  -0.52728  -0.52066
 Alpha  occ. eigenvalues --   -0.52005  -0.51870  -0.51684  -0.51633  -0.51285
 Alpha  occ. eigenvalues --   -0.51194  -0.50911  -0.50804  -0.50629  -0.50188
 Alpha  occ. eigenvalues --   -0.49811  -0.49726  -0.49403  -0.49310  -0.48980
 Alpha  occ. eigenvalues --   -0.48714  -0.48570  -0.48290  -0.48157  -0.47689
 Alpha  occ. eigenvalues --   -0.47331  -0.47186  -0.46979  -0.46526  -0.46477
 Alpha  occ. eigenvalues --   -0.46397  -0.46006  -0.45868  -0.45214  -0.44707
 Alpha  occ. eigenvalues --   -0.44026  -0.43938  -0.41417  -0.41142  -0.40666
 Alpha  occ. eigenvalues --   -0.39077  -0.38785  -0.37827  -0.37705  -0.37700
 Alpha  occ. eigenvalues --   -0.37510  -0.37407  -0.36856  -0.36795  -0.36502
 Alpha  occ. eigenvalues --   -0.36026  -0.35866  -0.35742  -0.35603  -0.35369
 Alpha  occ. eigenvalues --   -0.35254  -0.34976  -0.34501  -0.34457  -0.34369
 Alpha  occ. eigenvalues --   -0.34309  -0.33232  -0.32840  -0.31922  -0.31808
 Alpha virt. eigenvalues --   -0.12302  -0.09548  -0.09139  -0.08752  -0.08705
 Alpha virt. eigenvalues --   -0.08409  -0.07851  -0.07796  -0.07441  -0.07257
 Alpha virt. eigenvalues --   -0.06381  -0.06264  -0.06035  -0.05651  -0.05199

 Mulliken charges:
               1
     1  N   -0.806729
     2  H    0.440764
     3  H    0.432680
     4  H    0.403910
     5  C   -0.275440
     6  H    0.229262
     7  H    0.234385
     8  C    0.605268
     9  O   -0.523947
    10  N   -0.638457
    11  H    0.410046
    12  C   -0.195555
    13  H    0.207105
    14  H    0.201208
    15  C    0.563513
    16  O   -0.506744
    17  N   -0.558171
    18  H    0.343738
    19  C   -0.241303
    20  H    0.193771
    21  H    0.206495
    22  C    0.587609
    23  O   -0.508229
    24  N   -0.581371
    25  H    0.374147
    26  C   -0.239883
    27  H    0.196080
    28  H    0.197084
    29  C    0.647775
    30  O   -0.568479
    31  N   -0.596888
    32  H    0.370760
    33  C   -0.196118
    34  H    0.188833
    35  H    0.176738
    36  C    0.609687
    37  O   -0.510016
    38  N   -0.630685
    39  H    0.344115
    40  C   -0.203082
    41  H    0.219207
    42  H    0.201079
    43  C    0.647553
    44  O   -0.584596
    45  N   -0.560913
    46  H    0.355886
    47  C   -0.243955
    48  H    0.189356
    49  H    0.184991
    50  C    0.586126
    51  O   -0.499578
    52  N   -0.646822
    53  H    0.389247
    54  C   -0.243993
    55  H    0.223727
    56  H    0.211880
    57  C    0.586805
    58  O   -0.487390
    59  N   -0.674763
    60  H    0.405396
    61  C   -0.221950
    62  H    0.238750
    63  H    0.189012
    64  C    0.611881
    65  O   -0.560017
    66  N   -0.575140
    67  H    0.364627
    68  C   -0.237671
    69  H    0.187506
    70  H    0.200682
    71  C    0.619724
    72  O   -0.530771
    73  N   -0.599326
    74  H    0.350643
    75  C   -0.239773
    76  H    0.234742
    77  H    0.209094
    78  C    0.590583
    79  O   -0.478146
    80  N   -0.619183
    81  H    0.340926
    82  C   -0.233082
    83  H    0.235206
    84  H    0.185335
    85  C    0.617050
    86  O   -0.533143
    87  N   -0.557437
    88  H    0.340488
    89  C   -0.251518
    90  H    0.229765
    91  H    0.181592
    92  C    0.623911
    93  O   -0.547786
    94  N   -0.576423
    95  H    0.353895
    96  C   -0.217743
    97  H    0.207314
    98  H    0.210941
    99  C    0.595127
   100  O   -0.445568
   101  O   -0.562820
   102  H    0.425582
 Sum of Mulliken charges =   1.00000

 Dipole moment (field-independent basis, Debye):
    X=             18.5420    Y=             -9.7448    Z=             19.1698  Tot=             28.3945
 Quadrupole moment (field-independent basis, Debye-Ang):
   XX=           -221.6180   YY=           -177.3510   ZZ=           -251.2285
   XY=              9.2182   XZ=            121.3263   YZ=            -24.2339

 Normal termination of Gaussian 16 at Thu Aug 11 11:21:42 2022.
