 Gaussian 16, Revision C.01,
 Gaussian 16:  ES64L-G16RevC.01  3-Jul-2019

 -------------------------------------------------------------------
 # B3LYP/6-31G* guess=read geom=check nosymm integral(ultrafinegrid)
 -------------------------------------------------------------------

 ------------------------------------------------------
 Candidate Structure: Conf:497 Charge calc in gas phase
 ------------------------------------------------------
 Structure from the checkpoint file:  "conf-497.chk"
 Charge =  1 Multiplicity = 1

                          Input orientation:
 ---------------------------------------------------------------------
 Center     Atomic      Atomic             Coordinates (Angstroms)
 Number     Number       Type             X           Y           Z
 ---------------------------------------------------------------------
      1          7           0        3.627734   -1.654342   -6.109318
      2          1           0        4.162033   -1.644653   -5.202786
      3          1           0        3.074423   -2.527526   -6.154133
      4          1           0        2.967222   -0.848430   -6.119455
      5          6           0        4.537720   -1.542292   -7.285662
      6          1           0        5.339022   -2.277992   -7.175173
      7          1           0        3.964365   -1.772935   -8.185976
      8          6           0        5.107752   -0.121160   -7.282893
      9          8           0        5.409429    0.405926   -6.212340
     10          7           0        5.228274    0.479582   -8.486721
     11          1           0        4.796402    0.044150   -9.291931
     12          6           0        5.486649    1.921566   -8.587549
     13          1           0        5.836033    2.147999   -9.594665
     14          1           0        6.258938    2.184559   -7.861645
     15          6           0        4.160520    2.664042   -8.338702
     16          8           0        3.443223    3.027011   -9.256396
     17          7           0        3.843222    2.797171   -7.010121
     18          1           0        4.438480    2.299521   -6.355766
     19          6           0        2.481914    3.056633   -6.609370
     20          1           0        2.445972    3.795738   -5.800335
     21          1           0        1.967694    3.484251   -7.477036
     22          6           0        1.748010    1.772205   -6.188268
     23          8           0        2.129385    0.650268   -6.558344
     24          7           0        0.657630    1.964659   -5.427920
     25          1           0        0.448871    2.879395   -5.037059
     26          6           0       -0.175561    0.896516   -4.914170
     27          1           0       -1.029782    0.706094   -5.578555
     28          1           0        0.397970   -0.031141   -4.859544
     29          6           0       -0.694827    1.320124   -3.536179
     30          8           0       -0.643205    2.496149   -3.174462
     31          7           0       -1.223774    0.332572   -2.780760
     32          1           0       -1.149675   -0.642032   -3.081408
     33          6           0       -1.738651    0.647170   -1.462674
     34          1           0       -2.446488    1.478639   -1.535287
     35          1           0       -2.276499   -0.230029   -1.091595
     36          6           0       -0.610607    0.958886   -0.461811
     37          8           0        0.302181    0.160623   -0.254290
     38          7           0       -0.736981    2.131899    0.221443
     39          1           0       -1.375696    2.816774   -0.161649
     40          6           0        0.332524    2.625515    1.087069
     41          1           0        1.308655    2.512060    0.601310
     42          1           0        0.169774    3.691394    1.265251
     43          6           0        0.469656    1.924760    2.442377
     44          8           0        1.446841    2.163123    3.150221
     45          7           0       -0.480194    1.018557    2.776692
     46          1           0       -1.263656    0.888289    2.153554
     47          6           0       -0.308921    0.148385    3.930941
     48          1           0       -0.175680    0.739430    4.840243
     49          1           0       -1.213692   -0.453712    4.050990
     50          6           0        0.914175   -0.786632    3.852604
     51          8           0        1.360663   -1.286497    4.873634
     52          7           0        1.438798   -0.992582    2.607695
     53          1           0        1.005853   -0.563877    1.796611
     54          6           0        2.698389   -1.683007    2.412140
     55          1           0        2.623491   -2.419687    1.611180
     56          1           0        2.922725   -2.215952    3.342642
     57          6           0        3.877266   -0.749291    2.114551
     58          8           0        4.857626   -1.128495    1.456196
     59          7           0        3.812000    0.478515    2.672002
     60          1           0        2.944463    0.815650    3.079062
     61          6           0        4.919528    1.400114    2.600850
     62          1           0        4.626099    2.309042    3.134689
     63          1           0        5.795401    0.977537    3.107764
     64          6           0        5.275204    1.801392    1.168110
     65          8           0        4.415658    2.081780    0.327741
     66          7           0        6.605946    1.880272    0.915356
     67          1           0        7.247833    1.477215    1.583925
     68          6           0        7.152659    2.340502   -0.353617
     69          1           0        6.582365    3.220507   -0.672633
     70          1           0        8.193049    2.632156   -0.207377
     71          6           0        7.125811    1.299400   -1.485055
     72          8           0        8.124294    1.011336   -2.125772
     73          7           0        5.883077    0.760233   -1.721339
     74          1           0        5.097046    1.190097   -1.230130
     75          6           0        5.658090   -0.060775   -2.883328
     76          1           0        6.629162   -0.213394   -3.368499
     77          1           0        5.020497    0.437000   -3.623006
     78          6           0        5.054244   -1.430842   -2.628527
     79          8           0        4.623993   -2.098229   -3.606566
     80          7           0        4.997541   -1.906047   -1.382926
     81          1           0        5.250153   -1.314631   -0.589803
     82          6           0        4.553863   -3.264489   -1.061737
     83          1           0        4.976079   -3.956460   -1.798310
     84          1           0        4.931731   -3.508163   -0.070238
     85          6           0        3.023588   -3.430984   -1.014879
     86          8           0        2.445244   -3.878609   -0.036493
     87          7           0        2.367680   -3.049045   -2.160915
     88          1           0        2.948647   -2.611957   -2.874391
     89          6           0        0.948572   -2.742504   -2.125968
     90          1           0        0.755564   -1.698902   -1.850209
     91          1           0        0.499636   -3.367210   -1.344762
     92          6           0        0.250394   -3.031066   -3.446199
     93          8           0       -0.710937   -2.359940   -3.835921
     94          7           0        0.738992   -4.087593   -4.148867
     95          1           0        1.513383   -4.594656   -3.736892
     96          6           0        0.089967   -4.601169   -5.328728
     97          1           0       -0.812184   -4.003064   -5.498618
     98          1           0       -0.232188   -5.639808   -5.192075
     99          6           0        0.950094   -4.529273   -6.580628
    100          8           0        1.994694   -3.914769   -6.710836
    101          8           0        0.399588   -5.244858   -7.564328
    102          1           0        0.961325   -5.163433   -8.359060
 ---------------------------------------------------------------------

 SCF Done:  E(RB3LYP) =  -2989.04094565     A.U. after    2 cycles

 Alpha  occ. eigenvalues --  -19.32389 -19.27799 -19.24183 -19.24056 -19.23645
 Alpha  occ. eigenvalues --  -19.23424 -19.22603 -19.22041 -19.21255 -19.20623
 Alpha  occ. eigenvalues --  -19.20354 -19.20127 -19.19536 -19.19130 -19.17442
 Alpha  occ. eigenvalues --  -14.53225 -14.48746 -14.48443 -14.47088 -14.47035
 Alpha  occ. eigenvalues --  -14.46759 -14.45754 -14.45316 -14.45208 -14.45204
 Alpha  occ. eigenvalues --  -14.44860 -14.43578 -14.42824 -14.42391 -10.45646
 Alpha  occ. eigenvalues --  -10.41711 -10.40970 -10.40256 -10.39962 -10.39497
 Alpha  occ. eigenvalues --  -10.39093 -10.38340 -10.37879 -10.37737 -10.37440
 Alpha  occ. eigenvalues --  -10.37176 -10.36654 -10.35908 -10.35538 -10.35217
 Alpha  occ. eigenvalues --  -10.33369 -10.33317 -10.32937 -10.32605 -10.32589
 Alpha  occ. eigenvalues --  -10.32194 -10.32122 -10.31680 -10.31077 -10.30738
 Alpha  occ. eigenvalues --  -10.30474 -10.28424  -1.23812  -1.16386  -1.15648
 Alpha  occ. eigenvalues --   -1.14899  -1.14773  -1.14741  -1.14406  -1.13575
 Alpha  occ. eigenvalues --   -1.13004  -1.12493  -1.12349  -1.12206  -1.11253
 Alpha  occ. eigenvalues --   -1.10347  -1.09467  -1.08747  -1.04919  -1.04537
 Alpha  occ. eigenvalues --   -1.03345  -1.02988  -1.02948  -1.02214  -1.01589
 Alpha  occ. eigenvalues --   -1.01373  -1.01139  -1.01005  -0.99884  -0.99725
 Alpha  occ. eigenvalues --   -0.97817  -0.88292  -0.87816  -0.86864  -0.85695
 Alpha  occ. eigenvalues --   -0.85022  -0.84094  -0.83122  -0.82307  -0.81544
 Alpha  occ. eigenvalues --   -0.80429  -0.79463  -0.78448  -0.77769  -0.75968
 Alpha  occ. eigenvalues --   -0.74581  -0.71202  -0.70925  -0.70666  -0.70154
 Alpha  occ. eigenvalues --   -0.69853  -0.69114  -0.68464  -0.67983  -0.67881
 Alpha  occ. eigenvalues --   -0.67656  -0.67371  -0.67258  -0.66005  -0.65629
 Alpha  occ. eigenvalues --   -0.65175  -0.65029  -0.64530  -0.64052  -0.63354
 Alpha  occ. eigenvalues --   -0.62979  -0.62541  -0.62039  -0.61734  -0.61148
 Alpha  occ. eigenvalues --   -0.60885  -0.60569  -0.60268  -0.59845  -0.59659
 Alpha  occ. eigenvalues --   -0.59266  -0.59014  -0.58817  -0.58177  -0.57779
 Alpha  occ. eigenvalues --   -0.57473  -0.57263  -0.57016  -0.56683  -0.56121
 Alpha  occ. eigenvalues --   -0.55748  -0.55393  -0.55108  -0.54739  -0.54515
 Alpha  occ. eigenvalues --   -0.54409  -0.54205  -0.53785  -0.53468  -0.53371
 Alpha  occ. eigenvalues --   -0.53203  -0.52649  -0.52397  -0.52222  -0.52032
 Alpha  occ. eigenvalues --   -0.51701  -0.51482  -0.51178  -0.50955  -0.50778
 Alpha  occ. eigenvalues --   -0.50498  -0.50427  -0.50375  -0.50052  -0.49943
 Alpha  occ. eigenvalues --   -0.49715  -0.49349  -0.49310  -0.48873  -0.48837
 Alpha  occ. eigenvalues --   -0.48762  -0.48630  -0.48339  -0.47892  -0.47704
 Alpha  occ. eigenvalues --   -0.47165  -0.46904  -0.46663  -0.46382  -0.46114
 Alpha  occ. eigenvalues --   -0.45770  -0.45709  -0.45097  -0.45009  -0.44628
 Alpha  occ. eigenvalues --   -0.44467  -0.42604  -0.42226  -0.41675  -0.39237
 Alpha  occ. eigenvalues --   -0.38770  -0.38405  -0.38229  -0.38166  -0.38041
 Alpha  occ. eigenvalues --   -0.37804  -0.37771  -0.37674  -0.36973  -0.36201
 Alpha  occ. eigenvalues --   -0.36078  -0.35795  -0.35509  -0.34925  -0.34886
 Alpha  occ. eigenvalues --   -0.34673  -0.34293  -0.33958  -0.33615  -0.33596
 Alpha  occ. eigenvalues --   -0.33531  -0.32481  -0.32034  -0.30972  -0.30719
 Alpha virt. eigenvalues --   -0.12115  -0.11251  -0.09775  -0.09374  -0.09200
 Alpha virt. eigenvalues --   -0.08945  -0.07670  -0.07457  -0.07226  -0.06719
 Alpha virt. eigenvalues --   -0.06682  -0.05274  -0.05196  -0.04328  -0.03736

 Mulliken charges:
               1
     1  N   -0.824741
     2  H    0.435894
     3  H    0.427059
     4  H    0.429807
     5  C   -0.260962
     6  H    0.233889
     7  H    0.200710
     8  C    0.644265
     9  O   -0.525801
    10  N   -0.574675
    11  H    0.354130
    12  C   -0.248263
    13  H    0.205552
    14  H    0.209010
    15  C    0.585590
    16  O   -0.483641
    17  N   -0.571897
    18  H    0.359357
    19  C   -0.247308
    20  H    0.181918
    21  H    0.236902
    22  C    0.611747
    23  O   -0.573069
    24  N   -0.581173
    25  H    0.366226
    26  C   -0.211764
    27  H    0.207065
    28  H    0.181211
    29  C    0.599315
    30  O   -0.535477
    31  N   -0.616935
    32  H    0.399556
    33  C   -0.232052
    34  H    0.181496
    35  H    0.190992
    36  C    0.603018
    37  O   -0.511613
    38  N   -0.600674
    39  H    0.359185
    40  C   -0.234933
    41  H    0.229190
    42  H    0.199978
    43  C    0.607517
    44  O   -0.528893
    45  N   -0.594080
    46  H    0.343298
    47  C   -0.225898
    48  H    0.218034
    49  H    0.188390
    50  C    0.593592
    51  O   -0.498831
    52  N   -0.626559
    53  H    0.364543
    54  C   -0.261741
    55  H    0.215989
    56  H    0.223623
    57  C    0.601160
    58  O   -0.577921
    59  N   -0.585422
    60  H    0.409658
    61  C   -0.227166
    62  H    0.206277
    63  H    0.171750
    64  C    0.638408
    65  O   -0.552859
    66  N   -0.578670
    67  H    0.351753
    68  C   -0.244547
    69  H    0.199702
    70  H    0.197051
    71  C    0.589745
    72  O   -0.486586
    73  N   -0.632885
    74  H    0.378842
    75  C   -0.214666
    76  H    0.236535
    77  H    0.179112
    78  C    0.617232
    79  O   -0.610346
    80  N   -0.583871
    81  H    0.408189
    82  C   -0.240048
    83  H    0.196025
    84  H    0.220660
    85  C    0.593959
    86  O   -0.481919
    87  N   -0.639066
    88  H    0.360937
    89  C   -0.240109
    90  H    0.210366
    91  H    0.227548
    92  C    0.589329
    93  O   -0.541489
    94  N   -0.569938
    95  H    0.360737
    96  C   -0.230192
    97  H    0.245374
    98  H    0.219927
    99  C    0.594440
   100  O   -0.489853
   101  O   -0.527367
   102  H    0.433137
 Sum of Mulliken charges =   1.00000

 Dipole moment (field-independent basis, Debye):
    X=              8.5373    Y=             -4.2975    Z=            -22.9466  Tot=             24.8576
 Quadrupole moment (field-independent basis, Debye-Ang):
   XX=           -258.8079   YY=           -273.1358   ZZ=           -176.6277
   XY=             -7.0204   XZ=            -64.2970   YZ=             77.3180

 Normal termination of Gaussian 16 at Thu Aug 11 11:21:26 2022.
