 Gaussian 16, Revision C.01,
 Gaussian 16:  ES64L-G16RevC.01  3-Jul-2019

 ----------------------------------------------------------------------
 # B3LYP/6-31G* empiricaldispersion=gd3bj guess=read geom=check nosymm
 integral(ultrafinegrid)
 ----------------------------------------------------------------------

 ------------------------------------------------------
 Candidate Structure: Conf:703 Charge calc in gas phase
 ------------------------------------------------------
 Structure from the checkpoint file:  "conf-703.chk"
 Charge =  1 Multiplicity = 1

                          Input orientation:
 ---------------------------------------------------------------------
 Center     Atomic      Atomic             Coordinates (Angstroms)
 Number     Number       Type             X           Y           Z
 ---------------------------------------------------------------------
      1          7           0       -4.166723    0.264634    2.434142
      2          1           0       -4.943615    0.147842    1.752438
      3          1           0       -3.649598   -0.639425    2.452027
      4          1           0       -4.535768    0.509313    3.356310
      5          6           0       -3.145283    1.260495    1.919672
      6          1           0       -3.708952    2.071549    1.451128
      7          6           0       -2.415062    0.405505    0.863487
      8          6           0       -2.280534    1.782877    3.070813
      9          1           0       -2.952457    2.074128    3.890890
     10          1           0       -1.627202    0.977400    3.419155
     11          8           0       -2.292666   -0.808266    1.084164
     12          6           0       -1.428343    2.988212    2.661854
     13          1           0       -1.061957    3.488549    3.565288
     14          1           0       -2.027224    3.742029    2.135278
     15          6           0       -0.194732    2.635930    1.800278
     16          8           0        0.437704    3.643035    1.350006
     17          8           0        0.061584    1.428283    1.613233
     18          7           0       -2.150476    0.997493   -0.297215
     19          1           0       -2.244993    2.000355   -0.381860
     20          6           0       -1.757542    0.250092   -1.489250
     21          1           0       -2.092262   -0.775036   -1.319340
     22          6           0       -0.219391    0.293269   -1.514022
     23          6           0       -2.442947    0.845668   -2.734021
     24          1           0       -2.527956    0.048424   -3.481805
     25          1           0       -1.778964    1.605698   -3.158018
     26          8           0        0.376599    1.215898   -2.074176
     27          6           0       -3.779512    1.461622   -2.410574
     28          6           0       -4.171868    2.731697   -2.757015
     29          1           0       -3.662871    3.459804   -3.373383
     30          6           0       -4.830607    0.934818   -1.565139
     31          6           0       -5.817574    1.956850   -1.432271
     32          6           0       -5.021308   -0.271052   -0.869222
     33          1           0       -4.309813   -1.085008   -0.960635
     34          7           0       -5.392983    3.030932   -2.181285
     35          1           0       -5.912388    3.882684   -2.330329
     36          6           0       -7.093635    0.619492    0.078090
     37          1           0       -7.968785    0.469690    0.703100
     38          6           0       -6.944269    1.815147   -0.614926
     39          1           0       -7.680098    2.609031   -0.527661
     40          6           0       -6.142058   -0.419016   -0.051362
     41          1           0       -6.323471   -1.372239    0.440190
     42          7           0        0.341606   -0.658948   -0.755260
     43          1           0       -0.248810   -1.375982   -0.355277
     44          6           0        1.697173   -0.582016   -0.258979
     45          1           0        1.817370    0.382434    0.249695
     46          6           0        2.699342   -0.663548   -1.420186
     47          6           0        1.936977   -1.694048    0.779398
     48          1           0        3.017214   -1.706118    0.993875
     49          8           0        2.410152   -1.031273   -2.545608
     50          6           0        1.178795   -1.475970    2.087786
     51          1           0        1.450321   -0.521422    2.544919
     52          1           0        1.419189   -2.285250    2.788511
     53          1           0        0.098170   -1.464918    1.922977
     54          8           0        1.550513   -2.908072    0.140821
     55          1           0        1.667765   -3.629653    0.777842
     56          7           0        3.945487   -0.201379   -1.082248
     57          1           0        4.202782   -0.103149   -0.107628
     58          6           0        5.048730   -0.279117   -2.015071
     59          1           0        4.732331   -0.906729   -2.852458
     60          6           0        6.234818   -0.914281   -1.309126
     61          6           0        5.442660    1.125885   -2.530893
     62          1           0        6.258971    1.027147   -3.252829
     63          1           0        5.845787    1.678138   -1.671883
     64          8           0        6.325623   -1.038094   -0.106012
     65          6           0        4.250025    1.888450   -3.136386
     66          1           0        4.296860    1.863370   -4.230635
     67          1           0        3.313938    1.392537   -2.868132
     68          6           0        4.185423    3.361241   -2.707595
     69          1           0        5.048134    3.912131   -3.094018
     70          1           0        3.288358    3.837276   -3.115553
     71          7           0        4.183322    3.576199   -1.256214
     72          1           0        5.073132    3.701551   -0.796453
     73          7           0        1.910418    3.139536   -0.908604
     74          1           0        1.156348    3.195808   -0.199431
     75          1           0        1.773896    2.466778   -1.659658
     76          7           0        3.209006    3.857471    0.840674
     77          1           0        3.891105    4.551227    1.113254
     78          1           0        2.320636    3.824719    1.363003
     79          6           0        3.100448    3.513263   -0.460802
     80          8           0        7.200396   -1.272298   -2.174012
     81          1           0        7.937674   -1.636705   -1.647571
 ---------------------------------------------------------------------

 SCF Done:  E(RB3LYP) =  -2054.14074419     A.U. after    1 cycles

 Alpha  occ. eigenvalues --  -19.27574 -19.24090 -19.22038 -19.21970 -19.20211
 Alpha  occ. eigenvalues --  -19.18205 -19.16531 -19.16483 -14.57648 -14.47752
 Alpha  occ. eigenvalues --  -14.47637 -14.47186 -14.44817 -14.43656 -14.43275
 Alpha  occ. eigenvalues --  -14.43000 -10.41747 -10.41172 -10.39924 -10.38046
 Alpha  occ. eigenvalues --  -10.37049 -10.35445 -10.34744 -10.33024 -10.32181
 Alpha  occ. eigenvalues --  -10.32048 -10.31931 -10.31641 -10.31206 -10.30599
 Alpha  occ. eigenvalues --  -10.30156 -10.29142 -10.29129 -10.28972 -10.28774
 Alpha  occ. eigenvalues --  -10.28638 -10.28432 -10.28124 -10.27446 -10.27286
 Alpha  occ. eigenvalues --  -10.26846 -10.24228  -1.18579  -1.16721  -1.12172
 Alpha  occ. eigenvalues --   -1.11570  -1.10707  -1.10447  -1.09685  -1.09643
 Alpha  occ. eigenvalues --   -1.09408  -1.07739  -1.04612  -1.01318  -1.00509
 Alpha  occ. eigenvalues --   -1.00446  -0.99925  -0.97363  -0.94187  -0.91706
 Alpha  occ. eigenvalues --   -0.89963  -0.88408  -0.86712  -0.85051  -0.83812
 Alpha  occ. eigenvalues --   -0.83148  -0.82591  -0.81459  -0.78594  -0.76987
 Alpha  occ. eigenvalues --   -0.75804  -0.74168  -0.72823  -0.72362  -0.71813
 Alpha  occ. eigenvalues --   -0.70838  -0.70055  -0.69492  -0.69096  -0.68852
 Alpha  occ. eigenvalues --   -0.68002  -0.67519  -0.66458  -0.66198  -0.65817
 Alpha  occ. eigenvalues --   -0.63940  -0.63290  -0.62682  -0.61183  -0.60268
 Alpha  occ. eigenvalues --   -0.59734  -0.59597  -0.59054  -0.58754  -0.58373
 Alpha  occ. eigenvalues --   -0.57882  -0.57226  -0.57002  -0.56802  -0.56223
 Alpha  occ. eigenvalues --   -0.55395  -0.55189  -0.54684  -0.54561  -0.53704
 Alpha  occ. eigenvalues --   -0.53493  -0.53104  -0.52869  -0.52554  -0.52125
 Alpha  occ. eigenvalues --   -0.51502  -0.51241  -0.51133  -0.50781  -0.50446
 Alpha  occ. eigenvalues --   -0.49727  -0.49571  -0.49238  -0.49107  -0.48857
 Alpha  occ. eigenvalues --   -0.48497  -0.48039  -0.47762  -0.47193  -0.46883
 Alpha  occ. eigenvalues --   -0.46740  -0.46596  -0.46225  -0.45118  -0.44871
 Alpha  occ. eigenvalues --   -0.44582  -0.44367  -0.43787  -0.43717  -0.42873
 Alpha  occ. eigenvalues --   -0.42810  -0.42705  -0.42479  -0.41932  -0.40126
 Alpha  occ. eigenvalues --   -0.39632  -0.38668  -0.38445  -0.37004  -0.36627
 Alpha  occ. eigenvalues --   -0.36095  -0.35467  -0.34782  -0.34030  -0.33553
 Alpha  occ. eigenvalues --   -0.32800  -0.32619  -0.32137  -0.31680  -0.31284
 Alpha  occ. eigenvalues --   -0.30553  -0.30357
 Alpha virt. eigenvalues --   -0.11786  -0.10233  -0.08985  -0.07250  -0.06923
 Alpha virt. eigenvalues --   -0.06841  -0.06175  -0.04558  -0.03941  -0.03340
 Alpha virt. eigenvalues --   -0.03080  -0.02618  -0.01999  -0.00898  -0.00654

 Mulliken charges:
               1
     1  N   -0.757034
     2  H    0.409381
     3  H    0.417251
     4  H    0.399644
     5  C   -0.121968
     6  H    0.198274
     7  C    0.710595
     8  C   -0.263514
     9  H    0.138475
    10  H    0.196597
    11  O   -0.575124
    12  C   -0.371302
    13  H    0.184262
    14  H    0.150307
    15  C    0.583188
    16  O   -0.623781
    17  O   -0.555143
    18  N   -0.565748
    19  H    0.351891
    20  C   -0.091065
    21  H    0.189060
    22  C    0.689354
    23  C   -0.381074
    24  H    0.186878
    25  H    0.189688
    26  O   -0.568598
    27  C    0.046612
    28  C    0.003005
    29  H    0.177996
    30  C    0.087319
    31  C    0.314480
    32  C   -0.221800
    33  H    0.158463
    34  N   -0.681264
    35  H    0.346276
    36  C   -0.157305
    37  H    0.152085
    38  C   -0.160200
    39  H    0.152641
    40  C   -0.237047
    41  H    0.151905
    42  N   -0.582203
    43  H    0.362532
    44  C   -0.048281
    45  H    0.193383
    46  C    0.638607
    47  C    0.080846
    48  H    0.138588
    49  O   -0.508682
    50  C   -0.466912
    51  H    0.173929
    52  H    0.136476
    53  H    0.171102
    54  O   -0.620952
    55  H    0.403438
    56  N   -0.615128
    57  H    0.342667
    58  C   -0.055576
    59  H    0.217156
    60  C    0.584678
    61  C   -0.267183
    62  H    0.178265
    63  H    0.121188
    64  O   -0.469196
    65  C   -0.287549
    66  H    0.168178
    67  H    0.195986
    68  C   -0.169292
    69  H    0.173826
    70  H    0.187072
    71  N   -0.595875
    72  H    0.348076
    73  N   -0.802919
    74  H    0.411247
    75  H    0.408194
    76  N   -0.783521
    77  H    0.345466
    78  H    0.406178
    79  C    0.764410
    80  O   -0.556023
    81  H    0.424147
 Sum of Mulliken charges =   1.00000

 Dipole moment (field-independent basis, Debye):
    X=             -6.2703    Y=              9.6975    Z=              3.6733  Tot=             12.1183
 Quadrupole moment (field-independent basis, Debye-Ang):
   XX=            -84.3821   YY=           -195.5582   ZZ=           -211.3076
   XY=             -2.0946   XZ=            -33.0747   YZ=            -19.3513

 Normal termination of Gaussian 16 at Fri Jun 24 06:34:32 2022.
