 Gaussian 16, Revision C.01,
 Gaussian 16:  ES64L-G16RevC.01  3-Jul-2019

 ----------------------------------------------------------------------
 # B3LYP/6-31G* empiricaldispersion=gd3bj guess=read geom=check nosymm
 integral(ultrafinegrid)
 ----------------------------------------------------------------------

 -----------------------------------------------------
 Candidate Structure: Conf:34 Charge calc in gas phase
 -----------------------------------------------------
 Structure from the checkpoint file:  "conf-34.chk"
 Charge =  1 Multiplicity = 1

                          Input orientation:
 ---------------------------------------------------------------------
 Center     Atomic      Atomic             Coordinates (Angstroms)
 Number     Number       Type             X           Y           Z
 ---------------------------------------------------------------------
      1          7           0       -1.829664    1.192262    4.142329
      2          1           0       -2.039021    0.190163    4.195533
      3          1           0       -0.529403    1.312387    3.699501
      4          1           0       -2.021925    1.613623    5.049036
      5          6           0       -2.686442    1.770712    3.078052
      6          1           0       -3.659718    2.040841    3.505864
      7          6           0       -2.904789    0.629453    2.057093
      8          6           0       -2.051345    3.052211    2.448442
      9          1           0       -1.752730    2.845379    1.416482
     10          1           0       -2.815126    3.834491    2.411024
     11          8           0       -2.701435   -0.532205    2.383127
     12          6           0       -0.773614    3.594561    3.126465
     13          1           0       -0.884516    3.627965    4.216426
     14          1           0       -0.592728    4.613329    2.778133
     15          6           0        0.449422    2.758425    2.749810
     16          8           0        1.358310    3.206450    2.066669
     17          8           0        0.420645    1.510370    3.178878
     18          7           0       -3.243478    0.990463    0.776079
     19          1           0       -3.318708    1.989332    0.621563
     20          6           0       -2.586189    0.314577   -0.371340
     21          1           0       -2.917906   -0.724200   -0.421913
     22          6           0       -1.076745    0.420416   -0.091049
     23          6           0       -2.968607    1.071777   -1.644292
     24          1           0       -2.847257    2.147010   -1.436812
     25          1           0       -4.039240    0.921088   -1.822509
     26          8           0       -0.520447    1.531518   -0.150215
     27          6           0       -2.191461    0.711334   -2.881390
     28          6           0       -0.936012    0.148920   -3.013239
     29          1           0       -0.231745   -0.221106   -2.281011
     30          6           0       -2.648468    1.007276   -4.222018
     31          6           0       -1.622944    0.593713   -5.119898
     32          6           0       -3.813175    1.604442   -4.743022
     33          1           0       -4.616453    1.922229   -4.083453
     34          7           0       -0.603127    0.076410   -4.349754
     35          1           0        0.245552   -0.344060   -4.697968
     36          6           0       -2.898502    1.342364   -6.987669
     37          1           0       -3.020662    1.476843   -8.057758
     38          6           0       -1.737502    0.751954   -6.505130
     39          1           0       -0.950946    0.424293   -7.178089
     40          6           0       -3.925218    1.766404   -6.116959
     41          1           0       -4.821544    2.215115   -6.533764
     42          7           0       -0.487647   -0.706980    0.307218
     43          1           0       -1.009279   -1.570946    0.232291
     44          6           0        0.834399   -0.824424    0.908588
     45          1           0        0.826617   -0.321873    1.878292
     46          6           0        1.907414   -0.219998    0.012001
     47          6           0        1.133557   -2.339720    1.069999
     48          1           0        2.203859   -2.433587    1.307017
     49          8           0        2.033381   -0.597359   -1.162660
     50          6           0        0.319327   -2.979575    2.185615
     51          1           0        0.621247   -2.574777    3.156482
     52          1           0        0.491740   -4.058976    2.185476
     53          1           0       -0.754894   -2.804572    2.060136
     54          8           0        0.824950   -3.007191   -0.143464
     55          1           0        1.294172   -2.516746   -0.847165
     56          7           0        2.728184    0.652424    0.625010
     57          1           0        2.482692    1.007745    1.542275
     58          6           0        3.824931    1.314804   -0.056612
     59          1           0        4.081912    0.704832   -0.926969
     60          6           0        5.017723    1.372552    0.885574
     61          6           0        3.427891    2.741715   -0.504359
     62          1           0        4.271394    3.206691   -1.023058
     63          1           0        3.216745    3.318080    0.400609
     64          8           0        4.986618    1.104457    2.063660
     65          6           0        2.173865    2.681966   -1.372815
     66          1           0        2.416491    2.398933   -2.403493
     67          1           0        1.516996    1.914678   -0.969780
     68          6           0        1.350991    3.965448   -1.361059
     69          1           0        1.200500    4.304331   -0.330174
     70          1           0        1.834913    4.759550   -1.939270
     71          7           0        0.049827    3.649027   -1.973084
     72          1           0       -0.337741    2.749012   -1.679854
     73          7           0       -0.394320    5.746558   -2.880006
     74          1           0       -0.696814    6.258164   -3.695784
     75          1           0        0.300302    6.179551   -2.291015
     76          7           0       -1.710465    3.929657   -3.443545
     77          1           0       -1.821868    2.928275   -3.583229
     78          1           0       -2.385047    4.535279   -3.885693
     79          6           0       -0.674094    4.432553   -2.755125
     80          8           0        6.121659    1.805671    0.239922
     81          1           0        6.837038    1.845332    0.903134
 ---------------------------------------------------------------------

 SCF Done:  E(RB3LYP) =  -2054.15005917     A.U. after    1 cycles

 Alpha  occ. eigenvalues --  -19.27287 -19.23949 -19.23000 -19.22813 -19.21610
 Alpha  occ. eigenvalues --  -19.21581 -19.20762 -19.19830 -14.51037 -14.49726
 Alpha  occ. eigenvalues --  -14.49590 -14.47582 -14.47164 -14.46962 -14.46498
 Alpha  occ. eigenvalues --  -14.44591 -10.46629 -10.40528 -10.39689 -10.39625
 Alpha  occ. eigenvalues --  -10.38259 -10.37650 -10.35111 -10.34812 -10.33516
 Alpha  occ. eigenvalues --  -10.32306 -10.31986 -10.31664 -10.31644 -10.31559
 Alpha  occ. eigenvalues --  -10.30813 -10.30231 -10.28846 -10.28825 -10.28280
 Alpha  occ. eigenvalues --  -10.28186 -10.28139 -10.27561 -10.27366 -10.27363
 Alpha  occ. eigenvalues --  -10.27291 -10.25037  -1.18220  -1.16037  -1.15199
 Alpha  occ. eigenvalues --   -1.14846  -1.14538  -1.12491  -1.09483  -1.09275
 Alpha  occ. eigenvalues --   -1.07606  -1.06827  -1.04370  -1.03992  -1.03391
 Alpha  occ. eigenvalues --   -1.03119  -1.02520  -1.01510  -0.93405  -0.91428
 Alpha  occ. eigenvalues --   -0.89797  -0.89131  -0.87455  -0.85848  -0.84630
 Alpha  occ. eigenvalues --   -0.82965  -0.81968  -0.80666  -0.80152  -0.79017
 Alpha  occ. eigenvalues --   -0.76252  -0.76122  -0.73295  -0.72948  -0.71753
 Alpha  occ. eigenvalues --   -0.71197  -0.69995  -0.69506  -0.68733  -0.68506
 Alpha  occ. eigenvalues --   -0.68128  -0.67324  -0.66835  -0.66624  -0.65217
 Alpha  occ. eigenvalues --   -0.65155  -0.64662  -0.63620  -0.63271  -0.62578
 Alpha  occ. eigenvalues --   -0.61834  -0.61160  -0.60031  -0.59723  -0.59437
 Alpha  occ. eigenvalues --   -0.58272  -0.57828  -0.57332  -0.56948  -0.56771
 Alpha  occ. eigenvalues --   -0.56493  -0.56361  -0.55465  -0.55103  -0.54884
 Alpha  occ. eigenvalues --   -0.54370  -0.53912  -0.53530  -0.52870  -0.52594
 Alpha  occ. eigenvalues --   -0.52483  -0.52360  -0.52060  -0.51544  -0.50969
 Alpha  occ. eigenvalues --   -0.50621  -0.50509  -0.50028  -0.49676  -0.49330
 Alpha  occ. eigenvalues --   -0.49021  -0.48833  -0.48423  -0.48197  -0.47242
 Alpha  occ. eigenvalues --   -0.46805  -0.46419  -0.46343  -0.46144  -0.45746
 Alpha  occ. eigenvalues --   -0.44956  -0.44790  -0.44647  -0.44546  -0.43978
 Alpha  occ. eigenvalues --   -0.43482  -0.42910  -0.42795  -0.42748  -0.41912
 Alpha  occ. eigenvalues --   -0.41176  -0.39362  -0.39084  -0.38823  -0.37771
 Alpha  occ. eigenvalues --   -0.37386  -0.37110  -0.36904  -0.36644  -0.35653
 Alpha  occ. eigenvalues --   -0.35223  -0.34689  -0.34422  -0.33766  -0.33314
 Alpha  occ. eigenvalues --   -0.31896  -0.30136
 Alpha virt. eigenvalues --   -0.11263  -0.10918  -0.10718  -0.09338  -0.07077
 Alpha virt. eigenvalues --   -0.07038  -0.06575  -0.06490  -0.05671  -0.04455
 Alpha virt. eigenvalues --   -0.03455  -0.03160  -0.01463  -0.01011  -0.00551

 Mulliken charges:
               1
     1  N   -0.812132
     2  H    0.379137
     3  H    0.484830
     4  H    0.355443
     5  C   -0.059002
     6  H    0.195235
     7  C    0.610006
     8  C   -0.347140
     9  H    0.180926
    10  H    0.163207
    11  O   -0.495947
    12  C   -0.367098
    13  H    0.161956
    14  H    0.176054
    15  C    0.624396
    16  O   -0.507075
    17  O   -0.628432
    18  N   -0.588319
    19  H    0.335129
    20  C   -0.039133
    21  H    0.189092
    22  C    0.619215
    23  C   -0.371675
    24  H    0.134205
    25  H    0.188125
    26  O   -0.577909
    27  C    0.015609
    28  C   -0.008243
    29  H    0.212907
    30  C   -0.004096
    31  C    0.336202
    32  C   -0.223217
    33  H    0.133867
    34  N   -0.695301
    35  H    0.349396
    36  C   -0.149928
    37  H    0.152164
    38  C   -0.160027
    39  H    0.149798
    40  C   -0.139833
    41  H    0.145918
    42  N   -0.571287
    43  H    0.366134
    44  C   -0.079342
    45  H    0.209272
    46  C    0.647995
    47  C    0.087504
    48  H    0.156259
    49  O   -0.579121
    50  C   -0.460994
    51  H    0.157177
    52  H    0.184958
    53  H    0.159110
    54  O   -0.636921
    55  H    0.414896
    56  N   -0.584719
    57  H    0.378787
    58  C   -0.067199
    59  H    0.204659
    60  C    0.591411
    61  C   -0.288275
    62  H    0.169224
    63  H    0.190892
    64  O   -0.449189
    65  C   -0.310994
    66  H    0.150756
    67  H    0.209854
    68  C   -0.159204
    69  H    0.208581
    70  H    0.153071
    71  N   -0.621283
    72  H    0.407227
    73  N   -0.761890
    74  H    0.374671
    75  H    0.382948
    76  N   -0.795516
    77  H    0.417979
    78  H    0.366605
    79  C    0.800203
    80  O   -0.566736
    81  H    0.424187
 Sum of Mulliken charges =   1.00000

 Dipole moment (field-independent basis, Debye):
    X=             -6.0130    Y=             17.2688    Z=             -6.5312  Tot=             19.4171
 Quadrupole moment (field-independent basis, Debye-Ang):
   XX=           -200.4845   YY=           -160.8941   ZZ=           -161.1198
   XY=            -21.1068   XZ=             -6.4037   YZ=            -36.6791

 Normal termination of Gaussian 16 at Fri Jun 24 06:34:47 2022.
