 Gaussian 16, Revision C.01,
 Gaussian 16:  ES64L-G16RevC.01  3-Jul-2019

 ----------------------------------------------------------------------
 # B3LYP/6-31G* empiricaldispersion=gd3bj guess=read geom=check nosymm
 integral(ultrafinegrid)
 ----------------------------------------------------------------------

 ------------------------------------------------------
 Candidate Structure: Conf:123 Charge calc in gas phase
 ------------------------------------------------------
 Structure from the checkpoint file:  "conf-123.chk"
 Charge =  1 Multiplicity = 1

                          Input orientation:
 ---------------------------------------------------------------------
 Center     Atomic      Atomic             Coordinates (Angstroms)
 Number     Number       Type             X           Y           Z
 ---------------------------------------------------------------------
      1          7           0       -2.506326    0.825983    3.538949
      2          1           0       -3.383779    0.756855    4.057599
      3          1           0       -2.222459   -0.123526    3.144015
      4          1           0       -1.767764    1.165537    4.162970
      5          6           0       -2.591755    1.673468    2.281190
      6          1           0       -3.650439    1.864578    2.080257
      7          6           0       -2.074671    0.682983    1.203145
      8          6           0       -1.858876    3.000027    2.524241
      9          1           0       -2.384631    3.489764    3.353309
     10          1           0       -0.833805    2.804774    2.851333
     11          8           0       -1.847732   -0.488552    1.564536
     12          6           0       -1.841169    3.932615    1.308681
     13          1           0       -1.769278    4.962541    1.678061
     14          1           0       -2.777184    3.883222    0.744498
     15          6           0       -0.628490    3.744868    0.373236
     16          8           0        0.505373    3.571778    0.913155
     17          8           0       -0.870343    3.782358   -0.860815
     18          7           0       -1.949756    1.103786   -0.046912
     19          1           0       -2.109478    2.078119   -0.280030
     20          6           0       -1.551366    0.230444   -1.160185
     21          1           0       -1.850187   -0.786407   -0.888551
     22          6           0       -0.017915    0.304020   -1.276320
     23          6           0       -2.279633    0.670606   -2.438802
     24          1           0       -1.992023   -0.013671   -3.242943
     25          1           0       -1.911126    1.661566   -2.721238
     26          8           0        0.548571    0.770249   -2.269935
     27          6           0       -3.765034    0.698945   -2.238404
     28          6           0       -4.645151   -0.346633   -2.378211
     29          1           0       -4.469123   -1.353314   -2.731869
     30          6           0       -4.530060    1.819629   -1.747107
     31          6           0       -5.873997    1.376229   -1.599192
     32          6           0       -4.209991    3.152804   -1.427755
     33          1           0       -3.198321    3.529026   -1.561224
     34          7           0       -5.909625    0.051230   -1.987101
     35          1           0       -6.744745   -0.507572   -2.073019
     36          6           0       -6.540483    3.522526   -0.805141
     37          1           0       -7.306002    4.202177   -0.443223
     38          6           0       -6.888387    2.216418   -1.129106
     39          1           0       -7.911044    1.864937   -1.026397
     40          6           0       -5.216779    3.986798   -0.955288
     41          1           0       -4.985262    5.020277   -0.715010
     42          7           0        0.626745   -0.106532   -0.159393
     43          1           0        0.049507   -0.449098    0.603143
     44          6           0        1.921312    0.452076    0.251949
     45          1           0        1.961867    1.471442   -0.143934
     46          6           0        3.105357   -0.315659   -0.364835
     47          6           0        1.961095    0.547083    1.790790
     48          1           0        1.968946   -0.465749    2.206643
     49          8           0        3.941317   -0.923923    0.292678
     50          6           0        3.182497    1.315405    2.284303
     51          1           0        4.105145    0.822470    1.972295
     52          1           0        3.160719    1.372723    3.375941
     53          1           0        3.168070    2.342393    1.897633
     54          8           0        0.750681    1.162018    2.248329
     55          1           0        0.737442    2.066709    1.852762
     56          7           0        3.186622   -0.162886   -1.712647
     57          1           0        2.378239    0.228915   -2.192160
     58          6           0        4.291116   -0.714577   -2.465199
     59          1           0        4.351418   -1.797080   -2.309198
     60          6           0        5.643628   -0.191367   -1.985810
     61          6           0        4.121025   -0.452099   -3.980008
     62          1           0        3.127713   -0.812334   -4.273751
     63          1           0        4.852792   -1.079901   -4.495934
     64          8           0        6.684003   -0.777841   -2.125184
     65          6           0        4.319933    0.999609   -4.472502
     66          1           0        5.300319    1.380129   -4.160947
     67          1           0        4.366561    0.952615   -5.565823
     68          6           0        3.238905    2.042625   -4.138726
     69          1           0        3.294877    2.868121   -4.857270
     70          1           0        2.251157    1.575181   -4.248495
     71          7           0        3.381777    2.578318   -2.785207
     72          1           0        4.190420    2.257548   -2.260147
     73          7           0        1.249980    3.525972   -2.669315
     74          1           0        0.476666    3.781153   -2.025578
     75          1           0        0.954295    2.925728   -3.427223
     76          7           0        2.688191    3.691752   -0.870572
     77          1           0        3.587187    3.483419   -0.461087
     78          1           0        1.892179    3.808670   -0.215700
     79          6           0        2.433623    3.245207   -2.114511
     80          8           0        5.590125    1.073192   -1.450967
     81          1           0        6.510239    1.292961   -1.207630
 ---------------------------------------------------------------------

 SCF Done:  E(RB3LYP) =  -2054.17073589     A.U. after    1 cycles

 Alpha  occ. eigenvalues --  -19.29565 -19.26681 -19.23682 -19.22937 -19.22825
 Alpha  occ. eigenvalues --  -19.20652 -19.20346 -19.20295 -14.58669 -14.49297
 Alpha  occ. eigenvalues --  -14.47165 -14.46165 -14.46053 -14.45548 -14.44867
 Alpha  occ. eigenvalues --  -14.44006 -10.43353 -10.42561 -10.41047 -10.40019
 Alpha  occ. eigenvalues --  -10.39899 -10.38408 -10.37240 -10.34610 -10.33300
 Alpha  occ. eigenvalues --  -10.33012 -10.32855 -10.32503 -10.32240 -10.30279
 Alpha  occ. eigenvalues --  -10.29960 -10.29482 -10.29409 -10.29363 -10.28884
 Alpha  occ. eigenvalues --  -10.26851 -10.26693 -10.26552 -10.26306 -10.26258
 Alpha  occ. eigenvalues --  -10.26023 -10.25473  -1.19729  -1.19160  -1.15054
 Alpha  occ. eigenvalues --   -1.13668  -1.12841  -1.12236  -1.11483  -1.10795
 Alpha  occ. eigenvalues --   -1.10339  -1.06452  -1.05925  -1.04740  -1.02674
 Alpha  occ. eigenvalues --   -1.01728  -1.00898  -0.98871  -0.93428  -0.91831
 Alpha  occ. eigenvalues --   -0.90244  -0.89880  -0.87297  -0.85572  -0.84471
 Alpha  occ. eigenvalues --   -0.84072  -0.81464  -0.80490  -0.79448  -0.78051
 Alpha  occ. eigenvalues --   -0.77179  -0.75300  -0.73634  -0.73573  -0.72942
 Alpha  occ. eigenvalues --   -0.72612  -0.71328  -0.70198  -0.69406  -0.68848
 Alpha  occ. eigenvalues --   -0.68315  -0.67731  -0.67270  -0.66948  -0.65907
 Alpha  occ. eigenvalues --   -0.64666  -0.63783  -0.63429  -0.62611  -0.61903
 Alpha  occ. eigenvalues --   -0.61754  -0.61137  -0.60002  -0.59661  -0.59071
 Alpha  occ. eigenvalues --   -0.58622  -0.58402  -0.57778  -0.57464  -0.57086
 Alpha  occ. eigenvalues --   -0.57001  -0.56529  -0.56223  -0.55334  -0.55081
 Alpha  occ. eigenvalues --   -0.54796  -0.54430  -0.53633  -0.53452  -0.52867
 Alpha  occ. eigenvalues --   -0.52523  -0.52191  -0.51922  -0.51485  -0.51130
 Alpha  occ. eigenvalues --   -0.50896  -0.50784  -0.50675  -0.50370  -0.50101
 Alpha  occ. eigenvalues --   -0.49540  -0.49374  -0.48963  -0.48687  -0.48534
 Alpha  occ. eigenvalues --   -0.47828  -0.47384  -0.46859  -0.46565  -0.46002
 Alpha  occ. eigenvalues --   -0.45629  -0.45499  -0.45214  -0.44894  -0.44784
 Alpha  occ. eigenvalues --   -0.43532  -0.43194  -0.41711  -0.41505  -0.41271
 Alpha  occ. eigenvalues --   -0.41139  -0.41061  -0.40451  -0.38078  -0.37522
 Alpha  occ. eigenvalues --   -0.37187  -0.36604  -0.36506  -0.36348  -0.35734
 Alpha  occ. eigenvalues --   -0.35483  -0.35138  -0.34144  -0.33709  -0.32964
 Alpha  occ. eigenvalues --   -0.30334  -0.28472
 Alpha virt. eigenvalues --   -0.12461  -0.09769  -0.09496  -0.09070  -0.08321
 Alpha virt. eigenvalues --   -0.07654  -0.06870  -0.06136  -0.05625  -0.04775
 Alpha virt. eigenvalues --   -0.03573  -0.03359  -0.02332  -0.01649  -0.00905

 Mulliken charges:
               1
     1  N   -0.759435
     2  H    0.409863
     3  H    0.439793
     4  H    0.419567
     5  C   -0.105467
     6  H    0.233477
     7  C    0.665551
     8  C   -0.298990
     9  H    0.166263
    10  H    0.198618
    11  O   -0.574601
    12  C   -0.393975
    13  H    0.199703
    14  H    0.178077
    15  C    0.606267
    16  O   -0.607430
    17  O   -0.574131
    18  N   -0.602547
    19  H    0.403951
    20  C   -0.075707
    21  H    0.204588
    22  C    0.650392
    23  C   -0.391378
    24  H    0.175756
    25  H    0.183168
    26  O   -0.562283
    27  C    0.060630
    28  C    0.003054
    29  H    0.163137
    30  C    0.067447
    31  C    0.311217
    32  C   -0.260976
    33  H    0.176369
    34  N   -0.687999
    35  H    0.340391
    36  C   -0.155243
    37  H    0.141741
    38  C   -0.163239
    39  H    0.140624
    40  C   -0.159960
    41  H    0.136841
    42  N   -0.609151
    43  H    0.383523
    44  C   -0.107458
    45  H    0.170350
    46  C    0.643257
    47  C    0.113282
    48  H    0.162879
    49  O   -0.517009
    50  C   -0.479032
    51  H    0.191623
    52  H    0.167431
    53  H    0.130073
    54  O   -0.719892
    55  H    0.452574
    56  N   -0.669263
    57  H    0.396284
    58  C   -0.010859
    59  H    0.205469
    60  C    0.614376
    61  C   -0.315040
    62  H    0.167753
    63  H    0.192931
    64  O   -0.434968
    65  C   -0.319426
    66  H    0.168911
    67  H    0.180283
    68  C   -0.146779
    69  H    0.188903
    70  H    0.171473
    71  N   -0.622773
    72  H    0.389992
    73  N   -0.756432
    74  H    0.410956
    75  H    0.360327
    76  N   -0.788859
    77  H    0.350968
    78  H    0.417979
    79  C    0.740387
    80  O   -0.605284
    81  H    0.427116
 Sum of Mulliken charges =   1.00000

 Dipole moment (field-independent basis, Debye):
    X=             -7.1469    Y=              6.4314    Z=              2.2023  Tot=              9.8636
 Quadrupole moment (field-independent basis, Debye-Ang):
   XX=           -161.9598   YY=           -232.3887   ZZ=           -171.7431
   XY=             20.3784   XZ=            -44.4640   YZ=             12.7420

 Normal termination of Gaussian 16 at Fri Jun 24 06:34:48 2022.
