 Gaussian 16, Revision C.01,
 Gaussian 16:  ES64L-G16RevC.01  3-Jul-2019

 ----------------------------------------------------------------------
 # B3LYP/6-31G* empiricaldispersion=gd3bj guess=read geom=check nosymm
 integral(ultrafinegrid)
 ----------------------------------------------------------------------

 ------------------------------------------------------
 Candidate Structure: Conf:197 Charge calc in gas phase
 ------------------------------------------------------
 Structure from the checkpoint file:  "conf-197.chk"
 Charge =  1 Multiplicity = 1

                          Input orientation:
 ---------------------------------------------------------------------
 Center     Atomic      Atomic             Coordinates (Angstroms)
 Number     Number       Type             X           Y           Z
 ---------------------------------------------------------------------
      1          7           0       -2.505104    0.136364    5.152109
      2          1           0       -3.217046    0.085618    5.885036
      3          1           0       -2.554743   -0.739357    4.576046
      4          1           0       -1.579261    0.245946    5.589644
      5          6           0       -2.741081    1.250109    4.157383
      6          1           0       -3.401100    1.986633    4.621405
      7          6           0       -3.358914    0.529785    2.948157
      8          6           0       -1.398946    1.845633    3.677824
      9          1           0       -0.941927    1.115587    3.010588
     10          1           0       -1.642172    2.711961    3.051837
     11          8           0       -3.351534   -0.704893    2.927619
     12          6           0       -0.338588    2.271311    4.686420
     13          1           0       -0.072943    1.464051    5.393711
     14          1           0       -0.627785    3.143474    5.278462
     15          6           0        1.001512    2.580301    3.885632
     16          8           0        1.590953    3.607476    4.193595
     17          8           0        1.291407    1.695288    3.006270
     18          7           0       -3.729451    1.299142    1.912913
     19          1           0       -3.561980    2.297650    1.979770
     20          6           0       -3.816223    0.759562    0.540682
     21          1           0       -4.087874   -0.293295    0.649790
     22          6           0       -2.401276    0.888132   -0.099105
     23          6           0       -4.883199    1.538926   -0.233146
     24          1           0       -4.462225    2.520247   -0.472830
     25          1           0       -5.721687    1.710105    0.452697
     26          8           0       -2.192485    1.698587   -1.000789
     27          6           0       -5.398658    0.920942   -1.501260
     28          6           0       -6.233398   -0.165731   -1.609538
     29          1           0       -6.579501   -0.852863   -0.849969
     30          6           0       -5.323291    1.506142   -2.818176
     31          6           0       -6.173151    0.743899   -3.672901
     32          6           0       -4.626311    2.602061   -3.353422
     33          1           0       -3.944951    3.171463   -2.729147
     34          7           0       -6.677159   -0.295519   -2.916833
     35          1           0       -7.393479   -0.940640   -3.217803
     36          6           0       -5.688918    2.181518   -5.515844
     37          1           0       -5.837983    2.480874   -6.548758
     38          6           0       -6.377961    1.078027   -5.017571
     39          1           0       -7.053377    0.506896   -5.648512
     40          6           0       -4.813545    2.930228   -4.694003
     41          1           0       -4.309149    3.797484   -5.112349
     42          7           0       -1.458124    0.118411    0.481037
     43          1           0       -1.720821   -0.507747    1.235865
     44          6           0       -0.014965    0.282515    0.320434
     45          1           0        0.313791    1.201950    0.817406
     46          6           0        0.353050    0.310370   -1.150878
     47          6           0        0.669310   -0.905498    1.059083
     48          1           0        0.283408   -1.833507    0.618089
     49          8           0       -0.116341   -0.491572   -1.967658
     50          6           0        2.191094   -0.855218    0.935550
     51          1           0        2.522159   -0.940468   -0.105396
     52          1           0        2.616670   -1.690909    1.498186
     53          1           0        2.572906    0.076620    1.364072
     54          8           0        0.246873   -0.881682    2.412256
     55          1           0        0.684526   -0.044968    2.771144
     56          7           0        1.258898    1.261163   -1.455614
     57          1           0        1.713649    1.776990   -0.708079
     58          6           0        1.827375    1.462278   -2.772110
     59          1           0        1.670849    0.547496   -3.350650
     60          6           0        3.323802    1.693095   -2.611171
     61          6           0        1.169977    2.669601   -3.488993
     62          1           0        1.656623    2.823419   -4.459340
     63          1           0        1.363639    3.563779   -2.885639
     64          8           0        3.860837    1.949487   -1.558733
     65          6           0       -0.345203    2.473098   -3.643907
     66          1           0       -0.782841    2.024971   -2.749735
     67          1           0       -0.828881    3.447889   -3.778765
     68          6           0       -0.622076    1.599312   -4.877276
     69          1           0       -0.455757    2.173991   -5.795040
     70          1           0        0.057088    0.745340   -4.917003
     71          7           0       -1.981974    1.060877   -4.946814
     72          1           0       -2.751661    1.715239   -5.059938
     73          7           0       -1.435843   -1.095039   -4.246882
     74          1           0       -1.704471   -2.070632   -4.239622
     75          1           0       -0.770410   -0.818266   -3.504562
     76          7           0       -3.527015   -0.646263   -5.144887
     77          1           0       -4.182335    0.018728   -5.542638
     78          1           0       -3.958385   -1.398997   -4.626538
     79          6           0       -2.313822   -0.214206   -4.746835
     80          8           0        3.961134    1.621241   -3.794825
     81          1           0        4.904250    1.816749   -3.626882
 ---------------------------------------------------------------------

 SCF Done:  E(RB3LYP) =  -2054.10295512     A.U. after    1 cycles

 Alpha  occ. eigenvalues --  -19.28579 -19.26375 -19.22958 -19.21998 -19.21971
 Alpha  occ. eigenvalues --  -19.20624 -19.12005 -19.10899 -14.58249 -14.49739
 Alpha  occ. eigenvalues --  -14.49447 -14.49186 -14.48685 -14.47689 -14.45609
 Alpha  occ. eigenvalues --  -14.45442 -10.45311 -10.43026 -10.41003 -10.38902
 Alpha  occ. eigenvalues --  -10.38746 -10.38672 -10.34816 -10.33487 -10.33355
 Alpha  occ. eigenvalues --  -10.32746 -10.32423 -10.31449 -10.31187 -10.30208
 Alpha  occ. eigenvalues --  -10.29800 -10.29757 -10.29371 -10.29336 -10.29187
 Alpha  occ. eigenvalues --  -10.29014 -10.28872 -10.28815 -10.28795 -10.27960
 Alpha  occ. eigenvalues --  -10.25254 -10.23529  -1.19530  -1.18841  -1.14188
 Alpha  occ. eigenvalues --   -1.13907  -1.13052  -1.12455  -1.10732  -1.08371
 Alpha  occ. eigenvalues --   -1.08292  -1.06328  -1.04573  -1.03579  -1.02703
 Alpha  occ. eigenvalues --   -1.01655  -1.01549  -0.96233  -0.94551  -0.92336
 Alpha  occ. eigenvalues --   -0.90479  -0.90440  -0.87233  -0.86146  -0.84176
 Alpha  occ. eigenvalues --   -0.83988  -0.82653  -0.81566  -0.79598  -0.78608
 Alpha  occ. eigenvalues --   -0.76022  -0.75370  -0.73049  -0.72755  -0.72423
 Alpha  occ. eigenvalues --   -0.72153  -0.71616  -0.71164  -0.70468  -0.70396
 Alpha  occ. eigenvalues --   -0.69713  -0.68157  -0.67983  -0.67660  -0.67401
 Alpha  occ. eigenvalues --   -0.66263  -0.64535  -0.64050  -0.63194  -0.62088
 Alpha  occ. eigenvalues --   -0.61916  -0.61122  -0.60459  -0.59384  -0.59141
 Alpha  occ. eigenvalues --   -0.58781  -0.58107  -0.57952  -0.57444  -0.57173
 Alpha  occ. eigenvalues --   -0.56552  -0.56351  -0.55550  -0.55100  -0.54608
 Alpha  occ. eigenvalues --   -0.54378  -0.53778  -0.53453  -0.53264  -0.52956
 Alpha  occ. eigenvalues --   -0.52678  -0.52049  -0.51855  -0.51565  -0.51129
 Alpha  occ. eigenvalues --   -0.50871  -0.50579  -0.49990  -0.49391  -0.49079
 Alpha  occ. eigenvalues --   -0.48963  -0.48718  -0.48459  -0.47739  -0.47248
 Alpha  occ. eigenvalues --   -0.46890  -0.46327  -0.45740  -0.45545  -0.45341
 Alpha  occ. eigenvalues --   -0.44644  -0.44190  -0.43824  -0.43805  -0.43528
 Alpha  occ. eigenvalues --   -0.43284  -0.43228  -0.41614  -0.40772  -0.40604
 Alpha  occ. eigenvalues --   -0.40351  -0.40087  -0.39187  -0.38876  -0.38541
 Alpha  occ. eigenvalues --   -0.37824  -0.37108  -0.36398  -0.35526  -0.35064
 Alpha  occ. eigenvalues --   -0.34873  -0.33432  -0.33155  -0.30929  -0.27202
 Alpha  occ. eigenvalues --   -0.26749  -0.24909
 Alpha virt. eigenvalues --   -0.12431  -0.11990  -0.10477  -0.09180  -0.08721
 Alpha virt. eigenvalues --   -0.08082  -0.07696  -0.07362  -0.05067  -0.04883
 Alpha virt. eigenvalues --   -0.04305  -0.03049  -0.01977  -0.01206  -0.01087

 Mulliken charges:
               1
     1  N   -0.742131
     2  H    0.411562
     3  H    0.433295
     4  H    0.410847
     5  C   -0.119833
     6  H    0.205835
     7  C    0.637513
     8  C   -0.316382
     9  H    0.198230
    10  H    0.168646
    11  O   -0.537875
    12  C   -0.388414
    13  H    0.123119
    14  H    0.161516
    15  C    0.582742
    16  O   -0.515079
    17  O   -0.616534
    18  N   -0.581417
    19  H    0.355074
    20  C   -0.094928
    21  H    0.198799
    22  C    0.635430
    23  C   -0.357084
    24  H    0.176315
    25  H    0.172338
    26  O   -0.526058
    27  C    0.074441
    28  C   -0.002488
    29  H    0.170480
    30  C    0.071045
    31  C    0.315475
    32  C   -0.203367
    33  H    0.169671
    34  N   -0.689071
    35  H    0.345196
    36  C   -0.163397
    37  H    0.158204
    38  C   -0.210022
    39  H    0.152787
    40  C   -0.199455
    41  H    0.151307
    42  N   -0.629519
    43  H    0.368819
    44  C   -0.063584
    45  H    0.205587
    46  C    0.662222
    47  C    0.111612
    48  H    0.145654
    49  O   -0.591088
    50  C   -0.496043
    51  H    0.143282
    52  H    0.172342
    53  H    0.206372
    54  O   -0.678395
    55  H    0.426716
    56  N   -0.584527
    57  H    0.378775
    58  C   -0.065660
    59  H    0.186179
    60  C    0.591963
    61  C   -0.276222
    62  H    0.170969
    63  H    0.170718
    64  O   -0.441706
    65  C   -0.307207
    66  H    0.227787
    67  H    0.150925
    68  C   -0.167070
    69  H    0.182553
    70  H    0.183903
    71  N   -0.594053
    72  H    0.364465
    73  N   -0.771154
    74  H    0.357507
    75  H    0.430657
    76  N   -0.754005
    77  H    0.374904
    78  H    0.360090
    79  C    0.763292
    80  O   -0.564104
    81  H    0.430714
 Sum of Mulliken charges =   1.00000

 Dipole moment (field-independent basis, Debye):
    X=            -22.7353    Y=             -2.1339    Z=             -8.9767  Tot=             24.5362
 Quadrupole moment (field-independent basis, Debye-Ang):
   XX=           -139.6721   YY=           -243.9203   ZZ=           -107.5642
   XY=             -9.2786   XZ=            -18.6980   YZ=            -23.6643

 Normal termination of Gaussian 16 at Fri Jun 24 06:34:42 2022.
