 Gaussian 16, Revision C.01,
 Gaussian 16:  ES64L-G16RevC.01  3-Jul-2019

 ----------------------------------------------------------------------
 # B3LYP/6-31G* empiricaldispersion=gd3bj guess=read geom=check nosymm
 integral(ultrafinegrid)
 ----------------------------------------------------------------------

 -----------------------------------------------------
 Candidate Structure: Conf:14 Charge calc in gas phase
 -----------------------------------------------------
 Structure from the checkpoint file:  "conf-14.chk"
 Charge =  1 Multiplicity = 1

                          Input orientation:
 ---------------------------------------------------------------------
 Center     Atomic      Atomic             Coordinates (Angstroms)
 Number     Number       Type             X           Y           Z
 ---------------------------------------------------------------------
      1          7           0       -3.326393    1.456557    3.453713
      2          1           0       -4.314258    1.703688    3.563744
      3          1           0       -3.248140    0.403881    3.430651
      4          1           0       -2.791821    1.845411    4.235165
      5          6           0       -2.752432    1.857979    2.108033
      6          1           0       -3.299760    2.734049    1.752683
      7          6           0       -2.991955    0.593186    1.248411
      8          6           0       -1.246375    2.118183    2.297409
      9          1           0       -1.117181    2.846439    3.107458
     10          1           0       -0.777234    1.191073    2.638689
     11          8           0       -3.039246   -0.496147    1.832217
     12          6           0       -0.488573    2.613332    1.056407
     13          1           0       -0.615508    3.692728    0.917414
     14          1           0       -0.845977    2.137305    0.139808
     15          6           0        1.031451    2.285721    1.162717
     16          8           0        1.710572    2.490558    0.091252
     17          8           0        1.452354    1.811132    2.219678
     18          7           0       -3.075685    0.759964   -0.072986
     19          1           0       -2.958662    1.690308   -0.453812
     20          6           0       -2.849976   -0.336192   -1.034054
     21          1           0       -3.065748   -1.258573   -0.497531
     22          6           0       -1.346068   -0.177594   -1.315849
     23          6           0       -3.746282   -0.175247   -2.266881
     24          1           0       -3.668962   -1.104055   -2.846909
     25          1           0       -3.328783    0.619807   -2.893874
     26          8           0       -0.964296    0.848506   -1.897890
     27          6           0       -5.165104    0.143523   -1.906886
     28          6           0       -5.876762    1.233811   -2.341842
     29          1           0       -5.589499    2.009210   -3.038867
     30          6           0       -6.028682   -0.579144   -1.001746
     31          6           0       -7.255333    0.136829   -0.938462
     32          6           0       -5.892959   -1.754418   -0.242108
     33          1           0       -4.979644   -2.340730   -0.277010
     34          7           0       -7.128281    1.242915   -1.757096
     35          1           0       -7.876022    1.874388   -1.997892
     36          6           0       -8.162668   -1.449080    0.589264
     37          1           0       -8.979417   -1.809324    1.207001
     38          6           0       -8.330074   -0.285042   -0.150537
     39          1           0       -9.262947    0.270571   -0.123538
     40          6           0       -6.956180   -2.176228    0.544213
     41          1           0       -6.862576   -3.086536    1.128070
     42          7           0       -0.538561   -1.045971   -0.703536
     43          1           0       -0.899302   -1.926419   -0.348478
     44          6           0        0.814213   -0.739754   -0.261341
     45          1           0        0.816537    0.265051    0.151207
     46          6           0        1.915909   -0.851436   -1.311572
     47          6           0        1.165363   -1.780771    0.838297
     48          1           0        2.248975   -1.729076    0.997304
     49          8           0        2.042783   -1.855860   -2.012629
     50          6           0        0.456152   -1.510142    2.155235
     51          1           0        0.820744   -0.564574    2.567155
     52          1           0        0.677166   -2.314650    2.861925
     53          1           0       -0.631347   -1.457672    2.029173
     54          8           0        0.785039   -3.069245    0.367645
     55          1           0        1.240106   -3.186611   -0.490778
     56          7           0        2.802436    0.165983   -1.231257
     57          1           0        2.571763    0.960311   -0.623328
     58          6           0        4.138503    0.110128   -1.784733
     59          1           0        4.092226   -0.414816   -2.745875
     60          6           0        5.130479   -0.688773   -0.935027
     61          6           0        4.677256    1.536198   -1.993498
     62          1           0        5.712831    1.471317   -2.330323
     63          1           0        4.689986    2.030621   -1.013574
     64          8           0        6.305934   -0.770407   -1.205754
     65          6           0        3.796477    2.329543   -2.976516
     66          1           0        4.283033    2.428767   -3.953151
     67          1           0        2.868343    1.774427   -3.138346
     68          6           0        3.418162    3.710488   -2.426477
     69          1           0        3.090265    3.624603   -1.387018
     70          1           0        4.263698    4.402463   -2.443507
     71          7           0        2.340703    4.340691   -3.212804
     72          1           0        2.605178    4.980883   -3.949401
     73          7           0        0.610067    3.063649   -2.341056
     74          1           0       -0.087941    2.348495   -2.516088
     75          1           0        1.063317    2.951151   -1.395803
     76          7           0        0.388382    4.063429   -4.428701
     77          1           0        0.863978    4.203668   -5.308554
     78          1           0       -0.564488    3.737072   -4.485778
     79          6           0        1.113206    3.790309   -3.312315
     80          8           0        4.574829   -1.294109    0.136165
     81          1           0        5.298523   -1.776896    0.577689
 ---------------------------------------------------------------------

 SCF Done:  E(RB3LYP) =  -2054.11315852     A.U. after    1 cycles

 Alpha  occ. eigenvalues --  -19.26566 -19.26472 -19.22799 -19.21255 -19.20277
 Alpha  occ. eigenvalues --  -19.18685 -19.17271 -19.16098 -14.60299 -14.50148
 Alpha  occ. eigenvalues --  -14.49136 -14.48506 -14.46159 -14.46065 -14.45502
 Alpha  occ. eigenvalues --  -14.42355 -10.44279 -10.43465 -10.40361 -10.39614
 Alpha  occ. eigenvalues --  -10.38510 -10.35657 -10.35013 -10.34714 -10.31950
 Alpha  occ. eigenvalues --  -10.31652 -10.31130 -10.31040 -10.30613 -10.30455
 Alpha  occ. eigenvalues --  -10.29866 -10.29286 -10.28243 -10.27415 -10.26967
 Alpha  occ. eigenvalues --  -10.26915 -10.26565 -10.26485 -10.26385 -10.26003
 Alpha  occ. eigenvalues --  -10.25593 -10.24029  -1.19113  -1.17255  -1.14657
 Alpha  occ. eigenvalues --   -1.13986  -1.12950  -1.10781  -1.09962  -1.08693
 Alpha  occ. eigenvalues --   -1.08095  -1.06627  -1.06012  -1.02529  -1.02355
 Alpha  occ. eigenvalues --   -1.01519  -1.00308  -0.99805  -0.93333  -0.91684
 Alpha  occ. eigenvalues --   -0.90116  -0.88672  -0.86566  -0.85158  -0.83572
 Alpha  occ. eigenvalues --   -0.82984  -0.81308  -0.80412  -0.78911  -0.77666
 Alpha  occ. eigenvalues --   -0.76781  -0.75360  -0.74077  -0.73989  -0.72699
 Alpha  occ. eigenvalues --   -0.70736  -0.70205  -0.70142  -0.70050  -0.69860
 Alpha  occ. eigenvalues --   -0.67829  -0.67232  -0.67006  -0.66780  -0.65986
 Alpha  occ. eigenvalues --   -0.65670  -0.64022  -0.63024  -0.62437  -0.61952
 Alpha  occ. eigenvalues --   -0.61592  -0.61555  -0.59919  -0.59207  -0.58761
 Alpha  occ. eigenvalues --   -0.58413  -0.57650  -0.57312  -0.56773  -0.56483
 Alpha  occ. eigenvalues --   -0.55987  -0.54954  -0.54777  -0.54498  -0.54365
 Alpha  occ. eigenvalues --   -0.53766  -0.53529  -0.53121  -0.52830  -0.52583
 Alpha  occ. eigenvalues --   -0.51627  -0.51104  -0.50929  -0.50755  -0.50129
 Alpha  occ. eigenvalues --   -0.49941  -0.49813  -0.48976  -0.48879  -0.48807
 Alpha  occ. eigenvalues --   -0.48554  -0.47943  -0.47672  -0.47161  -0.46955
 Alpha  occ. eigenvalues --   -0.46390  -0.45979  -0.45766  -0.45487  -0.44939
 Alpha  occ. eigenvalues --   -0.44787  -0.44188  -0.43356  -0.43073  -0.42838
 Alpha  occ. eigenvalues --   -0.42502  -0.42198  -0.41189  -0.41165  -0.40889
 Alpha  occ. eigenvalues --   -0.40179  -0.39977  -0.39562  -0.38199  -0.37180
 Alpha  occ. eigenvalues --   -0.36813  -0.36249  -0.35666  -0.35321  -0.34137
 Alpha  occ. eigenvalues --   -0.32575  -0.32282  -0.31778  -0.31452  -0.30280
 Alpha  occ. eigenvalues --   -0.30174  -0.28496
 Alpha virt. eigenvalues --   -0.13066  -0.10728  -0.09691  -0.09003  -0.08668
 Alpha virt. eigenvalues --   -0.06044  -0.05744  -0.05365  -0.05248  -0.05004
 Alpha virt. eigenvalues --   -0.04678  -0.02763  -0.02331  -0.01799  -0.01759

 Mulliken charges:
               1
     1  N   -0.743292
     2  H    0.417491
     3  H    0.431473
     4  H    0.418124
     5  C   -0.125891
     6  H    0.198477
     7  C    0.662662
     8  C   -0.285273
     9  H    0.170425
    10  H    0.209616
    11  O   -0.527954
    12  C   -0.418982
    13  H    0.165638
    14  H    0.156233
    15  C    0.618042
    16  O   -0.632326
    17  O   -0.520377
    18  N   -0.570799
    19  H    0.349902
    20  C   -0.070510
    21  H    0.201928
    22  C    0.642710
    23  C   -0.379077
    24  H    0.184018
    25  H    0.156310
    26  O   -0.579874
    27  C    0.072394
    28  C   -0.013991
    29  H    0.150648
    30  C    0.079725
    31  C    0.304844
    32  C   -0.211143
    33  H    0.129928
    34  N   -0.686458
    35  H    0.337955
    36  C   -0.153576
    37  H    0.142221
    38  C   -0.165118
    39  H    0.137702
    40  C   -0.144346
    41  H    0.138717
    42  N   -0.572614
    43  H    0.362871
    44  C   -0.109261
    45  H    0.179113
    46  C    0.638464
    47  C    0.087192
    48  H    0.180721
    49  O   -0.544773
    50  C   -0.502981
    51  H    0.197377
    52  H    0.172691
    53  H    0.139957
    54  O   -0.638937
    55  H    0.419054
    56  N   -0.647358
    57  H    0.406308
    58  C   -0.056789
    59  H    0.205923
    60  C    0.606584
    61  C   -0.309218
    62  H    0.193892
    63  H    0.172267
    64  O   -0.454612
    65  C   -0.275332
    66  H    0.152290
    67  H    0.166612
    68  C   -0.200327
    69  H    0.227551
    70  H    0.178551
    71  N   -0.582267
    72  H    0.348375
    73  N   -0.806111
    74  H    0.390075
    75  H    0.430795
    76  N   -0.757742
    77  H    0.364605
    78  H    0.366052
    79  C    0.761069
    80  O   -0.560236
    81  H    0.421975
 Sum of Mulliken charges =   1.00000

 Dipole moment (field-independent basis, Debye):
    X=            -14.5911    Y=             15.8519    Z=             -2.3710  Tot=             21.6750
 Quadrupole moment (field-independent basis, Debye-Ang):
   XX=           -158.3436   YY=           -194.0639   ZZ=           -158.6666
   XY=            -20.4240   XZ=            -37.6378   YZ=            -37.8590

 Normal termination of Gaussian 16 at Fri Jun 24 06:34:42 2022.
