 Gaussian 16, Revision C.01,
 Gaussian 16:  ES64L-G16RevC.01  3-Jul-2019

 ----------------------------------------------------------------------
 # B3LYP/6-31G* empiricaldispersion=gd3bj guess=read geom=check nosymm
 integral(ultrafinegrid)
 ----------------------------------------------------------------------

 -----------------------------------------------------
 Candidate Structure: Conf:90 Charge calc in gas phase
 -----------------------------------------------------
 Structure from the checkpoint file:  "conf-90.chk"
 Charge =  1 Multiplicity = 1

                          Input orientation:
 ---------------------------------------------------------------------
 Center     Atomic      Atomic             Coordinates (Angstroms)
 Number     Number       Type             X           Y           Z
 ---------------------------------------------------------------------
      1          7           0       -1.329942   -2.524535    2.504536
      2          1           0       -1.201293   -3.050051    1.640067
      3          1           0        0.170000   -1.458230    2.877192
      4          1           0       -1.601350   -3.178584    3.234367
      5          6           0       -2.401398   -1.535027    2.276625
      6          1           0       -3.399832   -2.000089    2.292232
      7          6           0       -2.129742   -0.997523    0.858144
      8          6           0       -2.329668   -0.400173    3.320595
      9          1           0       -1.514945    0.267272    3.029773
     10          1           0       -3.262283    0.178124    3.295783
     11          8           0       -1.486809   -1.672536    0.049325
     12          6           0       -2.077811   -0.844995    4.773731
     13          1           0       -1.308896   -1.623924    4.801395
     14          1           0       -2.985099   -1.225185    5.247387
     15          6           0       -1.579041    0.356583    5.577631
     16          8           0       -2.262284    0.952270    6.375022
     17          8           0       -0.314964    0.740487    5.304936
     18          7           0       -2.508582    0.277423    0.573263
     19          1           0       -2.903683    0.828171    1.324903
     20          6           0       -1.768394    1.045282   -0.438033
     21          1           0       -1.523016    0.343389   -1.237796
     22          6           0       -0.456350    1.528057    0.225349
     23          6           0       -2.624025    2.197080   -0.967588
     24          1           0       -2.803962    2.904424   -0.151020
     25          1           0       -3.594530    1.767237   -1.246014
     26          8           0       -0.204532    2.719060    0.416025
     27          6           0       -2.051992    2.948694   -2.134745
     28          6           0       -1.826853    4.300461   -2.167105
     29          1           0       -1.931597    5.027532   -1.374509
     30          6           0       -1.760646    2.454630   -3.462837
     31          6           0       -1.395908    3.580052   -4.258465
     32          6           0       -1.779348    1.184867   -4.067253
     33          1           0       -2.060168    0.303678   -3.497561
     34          7           0       -1.403969    4.686876   -3.429985
     35          1           0       -1.367976    5.644688   -3.745984
     36          6           0       -1.132161    2.200079   -6.189190
     37          1           0       -0.942602    2.081363   -7.252877
     38          6           0       -1.101815    3.471849   -5.621731
     39          1           0       -0.892632    4.353995   -6.222982
     40          6           0       -1.456408    1.066574   -5.414604
     41          1           0       -1.479735    0.089582   -5.887033
     42          7           0        0.361648    0.517109    0.618657
     43          1           0        0.124971   -0.431312    0.342844
     44          6           0        1.580626    0.722105    1.405158
     45          1           0        1.424543    1.611201    2.023241
     46          6           0        2.680450    0.965593    0.360836
     47          6           0        1.858673   -0.487348    2.314984
     48          1           0        2.012998   -1.368009    1.679423
     49          8           0        3.434090    0.088392   -0.038213
     50          6           0        3.094775   -0.257029    3.173726
     51          1           0        3.981254   -0.111770    2.551442
     52          1           0        3.256935   -1.124208    3.819185
     53          1           0        2.953861    0.621455    3.813647
     54          8           0        0.736785   -0.702197    3.170367
     55          1           0        0.107092    0.167524    4.627355
     56          7           0        2.618495    2.224240   -0.188624
     57          1           0        1.820307    2.784468    0.111625
     58          6           0        3.030778    2.391029   -1.565982
     59          1           0        3.597585    1.488626   -1.825748
     60          6           0        3.997553    3.542179   -1.779504
     61          6           0        1.759868    2.442785   -2.454458
     62          1           0        1.145011    3.307751   -2.178211
     63          1           0        1.183313    1.564132   -2.153405
     64          8           0        4.582813    3.756322   -2.837105
     65          6           0        1.961542    2.381869   -3.969823
     66          1           0        2.841841    1.772627   -4.205588
     67          1           0        1.100900    1.875795   -4.417941
     68          6           0        2.081862    3.757425   -4.630413
     69          1           0        1.132396    4.287662   -4.563753
     70          1           0        2.839932    4.385528   -4.164941
     71          7           0        2.407223    3.636924   -6.057059
     72          1           0        1.639498    3.354237   -6.656627
     73          7           0        4.684914    3.364496   -5.662628
     74          1           0        5.627451    3.417094   -6.021988
     75          1           0        4.577878    3.382890   -4.641632
     76          7           0        3.853056    3.254088   -7.824884
     77          1           0        3.149466    3.527456   -8.494915
     78          1           0        4.758686    2.993114   -8.185883
     79          6           0        3.649796    3.417099   -6.501957
     80          8           0        4.175553    4.314856   -0.712034
     81          1           0        4.831730    4.999241   -0.949443
 ---------------------------------------------------------------------

 SCF Done:  E(RB3LYP) =  -2054.13727274     A.U. after    1 cycles

 Alpha  occ. eigenvalues --  -19.31385 -19.26391 -19.21972 -19.21857 -19.21805
 Alpha  occ. eigenvalues --  -19.21701 -19.20515 -19.16727 -14.52567 -14.52092
 Alpha  occ. eigenvalues --  -14.51388 -14.47624 -14.46049 -14.45259 -14.44080
 Alpha  occ. eigenvalues --  -14.41944 -10.48561 -10.44221 -10.38803 -10.38339
 Alpha  occ. eigenvalues --  -10.37305 -10.35569 -10.34820 -10.34035 -10.33017
 Alpha  occ. eigenvalues --  -10.32105 -10.31885 -10.31842 -10.31420 -10.31074
 Alpha  occ. eigenvalues --  -10.30008 -10.29934 -10.29268 -10.28713 -10.28532
 Alpha  occ. eigenvalues --  -10.28327 -10.28236 -10.27783 -10.27668 -10.27575
 Alpha  occ. eigenvalues --  -10.26165 -10.23950  -1.22807  -1.17031  -1.14324
 Alpha  occ. eigenvalues --   -1.13373  -1.13267  -1.12865  -1.12238  -1.09148
 Alpha  occ. eigenvalues --   -1.07382  -1.06370  -1.04953  -1.04793  -1.02944
 Alpha  occ. eigenvalues --   -1.02117  -1.01081  -0.98579  -0.93700  -0.91404
 Alpha  occ. eigenvalues --   -0.90210  -0.87454  -0.86759  -0.85606  -0.84607
 Alpha  occ. eigenvalues --   -0.83193  -0.81715  -0.81630  -0.78865  -0.78631
 Alpha  occ. eigenvalues --   -0.78443  -0.74675  -0.74415  -0.73763  -0.71848
 Alpha  occ. eigenvalues --   -0.71378  -0.70695  -0.70365  -0.69357  -0.68998
 Alpha  occ. eigenvalues --   -0.67748  -0.67224  -0.66557  -0.65914  -0.65311
 Alpha  occ. eigenvalues --   -0.64840  -0.64632  -0.63758  -0.63048  -0.62832
 Alpha  occ. eigenvalues --   -0.61185  -0.60510  -0.60146  -0.60101  -0.59499
 Alpha  occ. eigenvalues --   -0.58752  -0.58142  -0.58024  -0.57369  -0.57096
 Alpha  occ. eigenvalues --   -0.56622  -0.56499  -0.56371  -0.55520  -0.54568
 Alpha  occ. eigenvalues --   -0.53904  -0.53431  -0.53206  -0.52868  -0.52282
 Alpha  occ. eigenvalues --   -0.52027  -0.51801  -0.51452  -0.51076  -0.50691
 Alpha  occ. eigenvalues --   -0.50185  -0.49499  -0.48989  -0.48804  -0.48642
 Alpha  occ. eigenvalues --   -0.48445  -0.47825  -0.47520  -0.47206  -0.47028
 Alpha  occ. eigenvalues --   -0.46767  -0.46506  -0.46313  -0.45748  -0.45413
 Alpha  occ. eigenvalues --   -0.45302  -0.44844  -0.44363  -0.43841  -0.43776
 Alpha  occ. eigenvalues --   -0.43345  -0.43208  -0.42839  -0.42724  -0.42558
 Alpha  occ. eigenvalues --   -0.41325  -0.40975  -0.40171  -0.38975  -0.37910
 Alpha  occ. eigenvalues --   -0.37245  -0.36609  -0.36117  -0.35550  -0.34779
 Alpha  occ. eigenvalues --   -0.34496  -0.34413  -0.33589  -0.32666  -0.32072
 Alpha  occ. eigenvalues --   -0.30381  -0.29872
 Alpha virt. eigenvalues --   -0.12489  -0.11431  -0.11077  -0.10166  -0.08823
 Alpha virt. eigenvalues --   -0.07624  -0.07450  -0.05579  -0.04372  -0.03980
 Alpha virt. eigenvalues --   -0.03269  -0.02863  -0.02810  -0.01628  -0.01457

 Mulliken charges:
               1
     1  N   -0.775276
     2  H    0.350512
     3  H    0.458665
     4  H    0.332141
     5  C   -0.056955
     6  H    0.176976
     7  C    0.615661
     8  C   -0.323268
     9  H    0.171523
    10  H    0.161620
    11  O   -0.539331
    12  C   -0.377652
    13  H    0.161618
    14  H    0.180078
    15  C    0.577835
    16  O   -0.441160
    17  O   -0.603524
    18  N   -0.585424
    19  H    0.348823
    20  C   -0.093113
    21  H    0.198465
    22  C    0.633938
    23  C   -0.354673
    24  H    0.166697
    25  H    0.176847
    26  O   -0.543548
    27  C    0.083008
    28  C    0.003062
    29  H    0.179190
    30  C    0.076979
    31  C    0.309785
    32  C   -0.219719
    33  H    0.153170
    34  N   -0.689463
    35  H    0.339464
    36  C   -0.167897
    37  H    0.131444
    38  C   -0.206585
    39  H    0.132025
    40  C   -0.143126
    41  H    0.146598
    42  N   -0.627831
    43  H    0.371614
    44  C   -0.067065
    45  H    0.190299
    46  C    0.622523
    47  C    0.114266
    48  H    0.150556
    49  O   -0.513394
    50  C   -0.467037
    51  H    0.174740
    52  H    0.169550
    53  H    0.162326
    54  O   -0.694985
    55  H    0.452056
    56  N   -0.600447
    57  H    0.372518
    58  C   -0.086283
    59  H    0.219039
    60  C    0.618576
    61  C   -0.295173
    62  H    0.177971
    63  H    0.175899
    64  O   -0.515392
    65  C   -0.287542
    66  H    0.149627
    67  H    0.186974
    68  C   -0.191033
    69  H    0.186916
    70  H    0.190010
    71  N   -0.590297
    72  H    0.355841
    73  N   -0.791588
    74  H    0.371583
    75  H    0.447756
    76  N   -0.769993
    77  H    0.380971
    78  H    0.381214
    79  C    0.818269
    80  O   -0.516618
    81  H    0.428173
 Sum of Mulliken charges =   1.00000

 Dipole moment (field-independent basis, Debye):
    X=              9.8381    Y=             13.3266    Z=            -27.3955  Tot=             32.0140
 Quadrupole moment (field-independent basis, Debye-Ang):
   XX=           -173.8190   YY=           -161.2250   ZZ=            -99.4986
   XY=             55.4375   XZ=            -78.8787   YZ=           -115.7970

 Normal termination of Gaussian 16 at Fri Jun 24 06:34:44 2022.
