 Gaussian 16, Revision C.01,
 Gaussian 16:  ES64L-G16RevC.01  3-Jul-2019

 ----------------------------------------------------------------------
 # B3LYP/6-31G* empiricaldispersion=gd3bj guess=read geom=check nosymm
 integral(ultrafinegrid)
 ----------------------------------------------------------------------

 ------------------------------------------------------
 Candidate Structure: Conf:807 Charge calc in gas phase
 ------------------------------------------------------
 Structure from the checkpoint file:  "conf-807.chk"
 Charge =  1 Multiplicity = 1

                          Input orientation:
 ---------------------------------------------------------------------
 Center     Atomic      Atomic             Coordinates (Angstroms)
 Number     Number       Type             X           Y           Z
 ---------------------------------------------------------------------
      1          7           0       -5.324467   -0.271528    1.757040
      2          1           0       -6.136835    0.349133    1.738709
      3          1           0       -5.153795   -0.845726    0.720953
      4          1           0       -5.382644   -0.899748    2.558158
      5          6           0       -4.035485    0.497367    1.679286
      6          1           0       -4.262352    1.558824    1.769207
      7          6           0       -3.629305    0.215136    0.213867
      8          6           0       -3.032478    0.042231    2.738198
      9          1           0       -3.420728    0.297878    3.730822
     10          1           0       -2.967459   -1.054439    2.687784
     11          8           0       -4.302254   -0.747822   -0.322315
     12          6           0       -1.599553    0.589146    2.575266
     13          1           0       -1.162052    0.181602    1.655827
     14          1           0       -0.996909    0.248003    3.419168
     15          6           0       -1.476856    2.125578    2.567023
     16          8           0       -0.992389    2.720052    3.502535
     17          8           0       -1.942521    2.777074    1.487070
     18          7           0       -2.739604    1.003218   -0.295464
     19          1           0       -2.281685    2.109146    0.730277
     20          6           0       -2.546630    1.032436   -1.745296
     21          1           0       -2.973406    0.139116   -2.210380
     22          6           0       -1.068843    1.003987   -2.111052
     23          6           0       -3.283479    2.278537   -2.318948
     24          1           0       -3.064503    2.384871   -3.387060
     25          1           0       -2.880086    3.160894   -1.810033
     26          8           0       -0.704757    0.720649   -3.251707
     27          6           0       -4.754374    2.149424   -2.050608
     28          6           0       -5.614903    1.315600   -2.719477
     29          1           0       -5.434413    0.703024   -3.593252
     30          6           0       -5.487608    2.679852   -0.928436
     31          6           0       -6.788243    2.095310   -0.963850
     32          6           0       -5.149216    3.515650    0.150619
     33          1           0       -4.155127    3.941179    0.234639
     34          7           0       -6.833356    1.268223   -2.066368
     35          1           0       -7.668658    0.840502   -2.435033
     36          6           0       -7.381404    3.179598    1.079874
     37          1           0       -8.102900    3.397080    1.861924
     38          6           0       -7.745787    2.342779    0.027284
     39          1           0       -8.737915    1.901741   -0.023016
     40          6           0       -6.095552    3.757954    1.140645
     41          1           0       -5.839497    4.400180    1.977873
     42          7           0       -0.166806    1.232179   -1.112022
     43          1           0       -0.440839    1.711694   -0.260717
     44          6           0        1.252006    1.151184   -1.398620
     45          1           0        1.575823    1.932062   -2.097320
     46          6           0        1.546830   -0.194970   -2.085537
     47          6           0        2.027071    1.279045   -0.061206
     48          1           0        1.901747    0.341724    0.493177
     49          8           0        2.373664   -0.314587   -2.978573
     50          6           0        3.507830    1.550868   -0.292686
     51          1           0        3.951835    0.783500   -0.934640
     52          1           0        4.039693    1.576359    0.662251
     53          1           0        3.645589    2.516919   -0.794303
     54          8           0        1.417468    2.250138    0.776984
     55          1           0        1.614765    3.139783    0.440148
     56          7           0        0.831444   -1.251756   -1.557147
     57          1           0        0.105253   -0.940462   -0.922593
     58          6           0        0.369763   -2.309789   -2.449534
     59          1           0        0.365147   -1.901013   -3.470382
     60          6           0       -1.088500   -2.696097   -2.174545
     61          6           0        1.249118   -3.570182   -2.429053
     62          1           0        0.743803   -4.342103   -3.019256
     63          1           0        1.322316   -3.935650   -1.397161
     64          8           0       -1.627803   -3.649245   -2.684301
     65          6           0        2.640642   -3.283538   -2.991088
     66          1           0        2.550103   -2.840895   -3.989404
     67          1           0        3.138226   -2.531556   -2.370369
     68          6           0        3.507385   -4.534727   -3.076190
     69          1           0        3.645218   -4.983169   -2.083696
     70          1           0        3.049259   -5.280825   -3.735592
     71          7           0        4.819557   -4.155328   -3.633606
     72          1           0        5.031525   -3.164705   -3.639555
     73          7           0        5.608798   -6.316125   -3.887994
     74          1           0        6.215692   -6.978958   -4.347595
     75          1           0        4.877372   -6.683067   -3.297235
     76          7           0        6.848259   -4.535130   -4.683294
     77          1           0        6.893124   -3.593274   -5.041534
     78          1           0        7.618748   -5.142976   -4.915465
     79          6           0        5.753233   -4.994372   -4.067547
     80          8           0       -1.708617   -1.849159   -1.324186
     81          1           0       -2.657364   -2.081178   -1.253820
 ---------------------------------------------------------------------

 SCF Done:  E(RB3LYP) =  -2054.08982340     A.U. after    1 cycles

 Alpha  occ. eigenvalues --  -19.27465 -19.22079 -19.21625 -19.20727 -19.19974
 Alpha  occ. eigenvalues --  -19.19289 -19.17614 -19.15492 -14.54175 -14.54029
 Alpha  occ. eigenvalues --  -14.53711 -14.49246 -14.43588 -14.42392 -14.42085
 Alpha  occ. eigenvalues --  -14.37997 -10.50331 -10.40071 -10.36697 -10.36102
 Alpha  occ. eigenvalues --  -10.34645 -10.34483 -10.34440 -10.32017 -10.31974
 Alpha  occ. eigenvalues --  -10.31699 -10.29763 -10.29689 -10.28413 -10.28212
 Alpha  occ. eigenvalues --  -10.28053 -10.27639 -10.27201 -10.25642 -10.24928
 Alpha  occ. eigenvalues --  -10.24924 -10.24870 -10.24344 -10.23969 -10.23892
 Alpha  occ. eigenvalues --  -10.23637 -10.23466  -1.18972  -1.18280  -1.11752
 Alpha  occ. eigenvalues --   -1.11278  -1.10829  -1.09794  -1.09471  -1.09221
 Alpha  occ. eigenvalues --   -1.07995  -1.07160  -1.03422  -1.03337  -1.02883
 Alpha  occ. eigenvalues --   -1.00500  -0.98397  -0.96448  -0.91781  -0.89442
 Alpha  occ. eigenvalues --   -0.87574  -0.86368  -0.85583  -0.84532  -0.81635
 Alpha  occ. eigenvalues --   -0.81439  -0.79092  -0.78986  -0.78298  -0.77652
 Alpha  occ. eigenvalues --   -0.76617  -0.76177  -0.73242  -0.72150  -0.71195
 Alpha  occ. eigenvalues --   -0.70576  -0.69676  -0.68004  -0.67710  -0.67553
 Alpha  occ. eigenvalues --   -0.66523  -0.65413  -0.64745  -0.64632  -0.64266
 Alpha  occ. eigenvalues --   -0.63450  -0.62761  -0.61832  -0.61614  -0.61134
 Alpha  occ. eigenvalues --   -0.60562  -0.60469  -0.59269  -0.58822  -0.58000
 Alpha  occ. eigenvalues --   -0.57267  -0.55894  -0.55464  -0.55193  -0.54887
 Alpha  occ. eigenvalues --   -0.54342  -0.54244  -0.53591  -0.53411  -0.53036
 Alpha  occ. eigenvalues --   -0.52763  -0.51691  -0.51590  -0.50594  -0.50229
 Alpha  occ. eigenvalues --   -0.49753  -0.49514  -0.48992  -0.48845  -0.48550
 Alpha  occ. eigenvalues --   -0.48296  -0.47608  -0.47290  -0.46944  -0.46787
 Alpha  occ. eigenvalues --   -0.46514  -0.46259  -0.46084  -0.45493  -0.45263
 Alpha  occ. eigenvalues --   -0.45151  -0.44821  -0.44345  -0.44197  -0.43900
 Alpha  occ. eigenvalues --   -0.43546  -0.43176  -0.43043  -0.42672  -0.42456
 Alpha  occ. eigenvalues --   -0.42269  -0.41150  -0.40429  -0.39755  -0.39543
 Alpha  occ. eigenvalues --   -0.39313  -0.38909  -0.38606  -0.36275  -0.35774
 Alpha  occ. eigenvalues --   -0.35510  -0.33667  -0.33256  -0.33143  -0.32958
 Alpha  occ. eigenvalues --   -0.32713  -0.32348  -0.31737  -0.29959  -0.28981
 Alpha  occ. eigenvalues --   -0.27930  -0.25610
 Alpha virt. eigenvalues --   -0.13775  -0.10138  -0.07065  -0.06933  -0.06247
 Alpha virt. eigenvalues --   -0.06055  -0.05268  -0.04743  -0.04707  -0.04354
 Alpha virt. eigenvalues --   -0.03469  -0.03217  -0.01576  -0.01341  -0.00354

 Mulliken charges:
               1
     1  N   -0.802433
     2  H    0.393064
     3  H    0.445505
     4  H    0.372802
     5  C   -0.092076
     6  H    0.223747
     7  C    0.642134
     8  C   -0.288429
     9  H    0.174453
    10  H    0.145686
    11  O   -0.665895
    12  C   -0.372186
    13  H    0.161503
    14  H    0.180139
    15  C    0.593887
    16  O   -0.456947
    17  O   -0.646272
    18  N   -0.606477
    19  H    0.462876
    20  C   -0.057714
    21  H    0.162319
    22  C    0.623109
    23  C   -0.348069
    24  H    0.172589
    25  H    0.156751
    26  O   -0.537416
    27  C    0.061899
    28  C    0.019742
    29  H    0.159025
    30  C    0.076878
    31  C    0.303331
    32  C   -0.229730
    33  H    0.161397
    34  N   -0.682492
    35  H    0.333803
    36  C   -0.170015
    37  H    0.136725
    38  C   -0.191715
    39  H    0.132421
    40  C   -0.158106
    41  H    0.142592
    42  N   -0.667946
    43  H    0.367944
    44  C   -0.031418
    45  H    0.173479
    46  C    0.608033
    47  C    0.116599
    48  H    0.148262
    49  O   -0.536991
    50  C   -0.471240
    51  H    0.158498
    52  H    0.173333
    53  H    0.151578
    54  O   -0.609330
    55  H    0.403597
    56  N   -0.617966
    57  H    0.372587
    58  C   -0.058004
    59  H    0.214850
    60  C    0.601200
    61  C   -0.267823
    62  H    0.174983
    63  H    0.150207
    64  O   -0.456368
    65  C   -0.312876
    66  H    0.180233
    67  H    0.183824
    68  C   -0.145502
    69  H    0.181877
    70  H    0.185152
    71  N   -0.610569
    72  H    0.377441
    73  N   -0.759040
    74  H    0.386310
    75  H    0.396906
    76  N   -0.762823
    77  H    0.390373
    78  H    0.386368
    79  C    0.846345
    80  O   -0.594128
    81  H    0.439641
 Sum of Mulliken charges =   1.00000

 Dipole moment (field-independent basis, Debye):
    X=             13.5327    Y=            -23.2948    Z=            -13.3654  Tot=             30.0735
 Quadrupole moment (field-independent basis, Debye-Ang):
   XX=             -8.8172   YY=           -136.2608   ZZ=           -185.7400
   XY=           -115.4318   XZ=           -117.0045   YZ=             66.9615

 Normal termination of Gaussian 16 at Fri Jun 24 06:34:37 2022.
