 Gaussian 16, Revision C.01,
 Gaussian 16:  ES64L-G16RevC.01  3-Jul-2019

 ----------------------------------------------------------------------
 # B3LYP/6-31G* empiricaldispersion=gd3bj guess=read geom=check nosymm
 integral(ultrafinegrid)
 ----------------------------------------------------------------------

 ------------------------------------------------------
 Candidate Structure: Conf:684 Charge calc in gas phase
 ------------------------------------------------------
 Structure from the checkpoint file:  "conf-684.chk"
 Charge =  1 Multiplicity = 1

                          Input orientation:
 ---------------------------------------------------------------------
 Center     Atomic      Atomic             Coordinates (Angstroms)
 Number     Number       Type             X           Y           Z
 ---------------------------------------------------------------------
      1          7           0       -2.588125   -1.678667    1.972248
      2          1           0       -3.006772   -2.304827    2.662179
      3          1           0       -3.087165   -1.701905    1.067674
      4          1           0       -1.573614   -1.917449    1.795986
      5          6           0       -2.585891   -0.223746    2.407170
      6          1           0       -3.630153    0.042623    2.603572
      7          6           0       -2.279310    0.477586    1.049617
      8          6           0       -1.787077   -0.152255    3.726269
      9          1           0       -2.474961   -0.544032    4.487653
     10          1           0       -0.953309   -0.857555    3.676363
     11          8           0       -2.863625   -0.013702    0.067583
     12          6           0       -1.244350    1.201056    4.202393
     13          1           0       -1.219371    1.213618    5.295579
     14          1           0       -1.903969    2.027448    3.912786
     15          6           0        0.182267    1.540663    3.701453
     16          8           0        0.574201    0.891445    2.638774
     17          8           0        0.797634    2.430929    4.276159
     18          7           0       -1.464755    1.529070    1.011871
     19          1           0       -0.724777    1.530430    1.738850
     20          6           0       -1.070180    2.126467   -0.268764
     21          1           0       -1.804080    1.794758   -1.008313
     22          6           0        0.318216    1.549512   -0.614011
     23          6           0       -1.038670    3.662822   -0.193033
     24          1           0       -0.876809    4.039646   -1.208820
     25          1           0       -0.158751    3.961886    0.384480
     26          8           0        1.303339    2.267508   -0.790835
     27          6           0       -2.275813    4.241602    0.419869
     28          6           0       -3.466372    4.541048   -0.194778
     29          1           0       -3.747526    4.463984   -1.236335
     30          6           0       -2.449440    4.538382    1.820537
     31          6           0       -3.778124    5.014998    1.989999
     32          6           0       -1.607056    4.447444    2.940843
     33          1           0       -0.587049    4.084715    2.857945
     34          7           0       -4.375874    4.998295    0.743819
     35          1           0       -5.301925    5.337564    0.537159
     36          6           0       -3.425090    5.285308    4.331705
     37          1           0       -3.784059    5.570020    5.316530
     38          6           0       -4.279084    5.394232    3.239338
     39          1           0       -5.296218    5.759003    3.354086
     40          6           0       -2.103134    4.816642    4.184792
     41          1           0       -1.457863    4.730483    5.053521
     42          7           0        0.388568    0.188164   -0.619815
     43          1           0       -0.475907   -0.299444   -0.419179
     44          6           0        1.586419   -0.480967   -0.092478
     45          1           0        2.067879    0.222619    0.598385
     46          6           0        2.573390   -0.800742   -1.223555
     47          6           0        1.176466   -1.734336    0.703863
     48          1           0        0.839363   -2.505303    0.004024
     49          8           0        2.880879   -1.936022   -1.576403
     50          6           0        2.330635   -2.257055    1.549086
     51          1           0        3.180536   -2.524752    0.916364
     52          1           0        2.011406   -3.144657    2.103343
     53          1           0        2.641565   -1.492174    2.269420
     54          8           0        0.047916   -1.413199    1.531550
     55          1           0        0.268924   -0.573245    2.062771
     56          7           0        3.100460    0.312850   -1.791396
     57          1           0        2.718542    1.217244   -1.504188
     58          6           0        4.044684    0.212684   -2.876396
     59          1           0        3.565937   -0.156353   -3.792206
     60          6           0        5.169656   -0.760527   -2.504840
     61          6           0        4.653657    1.604837   -3.104814
     62          1           0        5.142159    1.903815   -2.169740
     63          1           0        3.837983    2.314167   -3.292615
     64          8           0        5.795001   -0.725709   -1.472686
     65          6           0        5.658811    1.649277   -4.258606
     66          1           0        6.455844    0.915065   -4.096502
     67          1           0        5.159166    1.385876   -5.200548
     68          6           0        6.279698    3.039159   -4.374457
     69          1           0        5.502165    3.791536   -4.559745
     70          1           0        6.796582    3.292736   -3.442450
     71          7           0        7.267429    3.070088   -5.468243
     72          1           0        7.184049    2.356359   -6.181572
     73          7           0        8.198783    5.108179   -4.876629
     74          1           0        9.008282    5.709905   -4.822187
     75          1           0        7.407475    5.340083   -4.294041
     76          7           0        9.174531    3.835693   -6.544797
     77          1           0        9.328853    2.942681   -6.990759
     78          1           0        9.752925    4.608239   -6.842956
     79          6           0        8.204747    4.000937   -5.630074
     80          8           0        5.467119   -1.585719   -3.535306
     81          1           0        6.174456   -2.177496   -3.214772
 ---------------------------------------------------------------------

 SCF Done:  E(RB3LYP) =  -2054.09015294     A.U. after    1 cycles

 Alpha  occ. eigenvalues --  -19.26831 -19.20993 -19.20743 -19.20120 -19.19468
 Alpha  occ. eigenvalues --  -19.17883 -19.13639 -19.11486 -14.54973 -14.54881
 Alpha  occ. eigenvalues --  -14.54802 -14.52510 -14.42167 -14.42050 -14.41885
 Alpha  occ. eigenvalues --  -14.41633 -10.51259 -10.39038 -10.37949 -10.37216
 Alpha  occ. eigenvalues --  -10.35655 -10.34596 -10.34153 -10.31936 -10.31834
 Alpha  occ. eigenvalues --  -10.30502 -10.30179 -10.29835 -10.29434 -10.28918
 Alpha  occ. eigenvalues --  -10.26688 -10.25953 -10.25468 -10.24095 -10.22589
 Alpha  occ. eigenvalues --  -10.22399 -10.22215 -10.22196 -10.21796 -10.21781
 Alpha  occ. eigenvalues --  -10.21385 -10.21015  -1.19752  -1.17597  -1.12631
 Alpha  occ. eigenvalues --   -1.10969  -1.09724  -1.08911  -1.08524  -1.08231
 Alpha  occ. eigenvalues --   -1.07877  -1.06763  -1.05465  -1.01597  -1.00340
 Alpha  occ. eigenvalues --   -0.99444  -0.98244  -0.96841  -0.93169  -0.87285
 Alpha  occ. eigenvalues --   -0.87038  -0.86737  -0.84902  -0.83640  -0.82057
 Alpha  occ. eigenvalues --   -0.80805  -0.79402  -0.78140  -0.77288  -0.76804
 Alpha  occ. eigenvalues --   -0.76140  -0.75014  -0.73894  -0.72859  -0.71669
 Alpha  occ. eigenvalues --   -0.70261  -0.69170  -0.68442  -0.67769  -0.67191
 Alpha  occ. eigenvalues --   -0.66081  -0.65747  -0.65581  -0.64229  -0.64010
 Alpha  occ. eigenvalues --   -0.63694  -0.63465  -0.62669  -0.62077  -0.61263
 Alpha  occ. eigenvalues --   -0.59892  -0.59475  -0.58815  -0.57901  -0.57611
 Alpha  occ. eigenvalues --   -0.57221  -0.55742  -0.55610  -0.54714  -0.54601
 Alpha  occ. eigenvalues --   -0.54392  -0.54070  -0.53499  -0.52307  -0.51868
 Alpha  occ. eigenvalues --   -0.51494  -0.50847  -0.50728  -0.50493  -0.49829
 Alpha  occ. eigenvalues --   -0.49371  -0.49062  -0.48430  -0.47993  -0.47457
 Alpha  occ. eigenvalues --   -0.47421  -0.47134  -0.47003  -0.46852  -0.46217
 Alpha  occ. eigenvalues --   -0.46020  -0.45803  -0.45510  -0.45135  -0.44770
 Alpha  occ. eigenvalues --   -0.44596  -0.44228  -0.43808  -0.43600  -0.43477
 Alpha  occ. eigenvalues --   -0.43018  -0.42605  -0.42136  -0.42043  -0.41474
 Alpha  occ. eigenvalues --   -0.41140  -0.40668  -0.39061  -0.38650  -0.38388
 Alpha  occ. eigenvalues --   -0.37987  -0.36649  -0.36545  -0.35221  -0.34778
 Alpha  occ. eigenvalues --   -0.34587  -0.34231  -0.33850  -0.31912  -0.31652
 Alpha  occ. eigenvalues --   -0.30908  -0.30261  -0.28618  -0.28245  -0.25757
 Alpha  occ. eigenvalues --   -0.25334  -0.23910
 Alpha virt. eigenvalues --   -0.14931  -0.10825  -0.07786  -0.07057  -0.06458
 Alpha virt. eigenvalues --   -0.06217  -0.05480  -0.04913  -0.04586  -0.04099
 Alpha virt. eigenvalues --   -0.02816  -0.02584  -0.01197  -0.00820   0.00082

 Mulliken charges:
               1
     1  N   -0.755728
     2  H    0.390123
     3  H    0.407906
     4  H    0.436978
     5  C   -0.117204
     6  H    0.215777
     7  C    0.611258
     8  C   -0.287252
     9  H    0.144972
    10  H    0.170695
    11  O   -0.570474
    12  C   -0.390577
    13  H    0.173576
    14  H    0.188417
    15  C    0.580986
    16  O   -0.653397
    17  O   -0.510597
    18  N   -0.599543
    19  H    0.412104
    20  C   -0.077559
    21  H    0.196192
    22  C    0.624556
    23  C   -0.366328
    24  H    0.151571
    25  H    0.183708
    26  O   -0.535878
    27  C    0.075322
    28  C   -0.006578
    29  H    0.145424
    30  C    0.090612
    31  C    0.309758
    32  C   -0.247060
    33  H    0.165732
    34  N   -0.692305
    35  H    0.328748
    36  C   -0.153487
    37  H    0.128097
    38  C   -0.166793
    39  H    0.123713
    40  C   -0.152976
    41  H    0.146661
    42  N   -0.604650
    43  H    0.351975
    44  C   -0.119290
    45  H    0.213097
    46  C    0.667177
    47  C    0.128217
    48  H    0.153331
    49  O   -0.538658
    50  C   -0.473258
    51  H    0.181612
    52  H    0.151228
    53  H    0.171352
    54  O   -0.748428
    55  H    0.475252
    56  N   -0.657242
    57  H    0.384453
    58  C    0.037488
    59  H    0.171550
    60  C    0.592728
    61  C   -0.324594
    62  H    0.185727
    63  H    0.169919
    64  O   -0.458681
    65  C   -0.317786
    66  H    0.182654
    67  H    0.167729
    68  C   -0.146951
    69  H    0.191120
    70  H    0.194409
    71  N   -0.608450
    72  H    0.370704
    73  N   -0.754852
    74  H    0.390952
    75  H    0.399415
    76  N   -0.762331
    77  H    0.389431
    78  H    0.389832
    79  C    0.841860
    80  O   -0.573437
    81  H    0.416241
 Sum of Mulliken charges =   1.00000

 Dipole moment (field-independent basis, Debye):
    X=             24.6421    Y=             12.4570    Z=            -25.4330  Tot=             37.5399
 Quadrupole moment (field-independent basis, Debye-Ang):
   XX=             91.4100   YY=           -158.1009   ZZ=            -97.6858
   XY=            140.3840   XZ=           -240.3439   YZ=           -125.6832

 Normal termination of Gaussian 16 at Fri Jun 24 06:34:30 2022.
