 Gaussian 16, Revision C.01,
 Gaussian 16:  ES64L-G16RevC.01  3-Jul-2019

 ----------------------------------------------------------------------
 # B3LYP/6-31G* empiricaldispersion=gd3bj guess=read geom=check nosymm
 integral(ultrafinegrid)
 ----------------------------------------------------------------------

 ------------------------------------------------------
 Candidate Structure: Conf:950 Charge calc in gas phase
 ------------------------------------------------------
 Structure from the checkpoint file:  "conf-950.chk"
 Charge =  1 Multiplicity = 1

                          Input orientation:
 ---------------------------------------------------------------------
 Center     Atomic      Atomic             Coordinates (Angstroms)
 Number     Number       Type             X           Y           Z
 ---------------------------------------------------------------------
      1          7           0       -5.595467    0.606469    2.790143
      2          1           0       -5.785404    0.740842    1.753676
      3          1           0       -5.481797   -0.398254    2.967740
      4          1           0       -6.347268    0.964461    3.382713
      5          6           0       -4.262653    1.322428    2.997206
      6          1           0       -4.522767    2.352836    3.259891
      7          6           0       -3.685242    1.298925    1.555991
      8          6           0       -3.456387    0.625251    4.089436
      9          1           0       -2.585385    1.244930    4.329626
     10          1           0       -4.073118    0.577136    4.995395
     11          8           0       -4.497516    1.091140    0.636076
     12          6           0       -2.913016   -0.745749    3.656576
     13          1           0       -3.411774   -1.126951    2.753044
     14          1           0       -3.054022   -1.518540    4.418371
     15          6           0       -1.381137   -0.668620    3.338601
     16          8           0       -0.855691   -1.765957    3.059767
     17          8           0       -0.853604    0.477653    3.387924
     18          7           0       -2.387632    1.496187    1.419018
     19          1           0       -1.765815    1.382440    2.227596
     20          6           0       -1.682037    1.210284    0.165116
     21          1           0       -1.984653    0.202576   -0.147704
     22          6           0       -0.173562    1.256123    0.480782
     23          6           0       -1.993932    2.206981   -0.956044
     24          1           0       -1.698261    3.204253   -0.611610
     25          1           0       -3.078632    2.208117   -1.111181
     26          8           0        0.395988    2.343227    0.597611
     27          6           0       -1.262880    1.878733   -2.228765
     28          6           0       -0.745291    0.668915   -2.623550
     29          1           0       -0.691091   -0.276315   -2.110464
     30          6           0       -1.002847    2.793272   -3.312897
     31          6           0       -0.336995    2.057559   -4.344789
     32          6           0       -1.316722    4.143275   -3.542842
     33          1           0       -1.830638    4.720653   -2.779339
     34          7           0       -0.187355    0.771241   -3.882867
     35          1           0        0.368209    0.042919   -4.307205
     36          6           0       -0.381578    3.967460   -5.789509
     37          1           0       -0.197675    4.431076   -6.754484
     38          6           0       -0.020703    2.632260   -5.583505
     39          1           0        0.427601    2.040470   -6.377984
     40          6           0       -1.005084    4.720580   -4.770656
     41          1           0       -1.273024    5.755798   -4.962583
     42          7           0        0.431348    0.060824    0.577123
     43          1           0       -0.073508   -0.784355    0.354629
     44          6           0        1.862297   -0.068914    0.610761
     45          1           0        2.243676    0.934999    0.813907
     46          6           0        2.325884   -0.401495   -0.811406
     47          6           0        2.338764   -1.047069    1.740196
     48          1           0        3.301824   -1.468027    1.413992
     49          8           0        1.572101   -0.755430   -1.712536
     50          6           0        2.555845   -0.266840    3.040523
     51          1           0        3.363036    0.467486    2.915477
     52          1           0        2.840675   -0.957691    3.839934
     53          1           0        1.638247    0.253881    3.327782
     54          8           0        1.440517   -2.118003    1.861174
     55          1           0        0.768802   -1.885598    2.560724
     56          7           0        3.640050   -0.084415   -1.036469
     57          1           0        4.189267    0.240184   -0.251048
     58          6           0        4.028583    0.389031   -2.347143
     59          1           0        3.367083   -0.099509   -3.065604
     60          6           0        5.455369    0.044268   -2.741716
     61          6           0        3.852541    1.931047   -2.440638
     62          1           0        4.053808    2.243262   -3.472477
     63          1           0        4.626930    2.399813   -1.814062
     64          8           0        5.898380    0.242625   -3.849657
     65          6           0        2.470863    2.421924   -1.980404
     66          1           0        1.668498    1.938077   -2.549065
     67          1           0        2.289088    2.164516   -0.932911
     68          6           0        2.333160    3.941497   -2.056765
     69          1           0        1.445892    4.273713   -1.511161
     70          1           0        3.215732    4.401027   -1.600182
     71          7           0        2.226194    4.415841   -3.441005
     72          1           0        1.453090    4.033052   -3.992638
     73          7           0        3.675614    6.244393   -3.293414
     74          1           0        4.365715    6.821481   -3.752008
     75          1           0        3.651090    6.255846   -2.285163
     76          7           0        2.770717    5.628986   -5.325613
     77          1           0        2.276700    4.962531   -5.900407
     78          1           0        3.025600    6.512323   -5.741775
     79          6           0        2.882238    5.420373   -4.001246
     80          8           0        6.183474   -0.437432   -1.714000
     81          1           0        7.080983   -0.611308   -2.060716
 ---------------------------------------------------------------------

 SCF Done:  E(RB3LYP) =  -2054.09527841     A.U. after    1 cycles

 Alpha  occ. eigenvalues --  -19.27845 -19.23322 -19.21755 -19.19752 -19.18452
 Alpha  occ. eigenvalues --  -19.15543 -19.14536 -19.13759 -14.56664 -14.52111
 Alpha  occ. eigenvalues --  -14.51558 -14.51293 -14.46326 -14.44865 -14.43676
 Alpha  occ. eigenvalues --  -14.42575 -10.48070 -10.40096 -10.39806 -10.37056
 Alpha  occ. eigenvalues --  -10.36271 -10.35733 -10.34691 -10.32459 -10.32338
 Alpha  occ. eigenvalues --  -10.31609 -10.31227 -10.29723 -10.28904 -10.28861
 Alpha  occ. eigenvalues --  -10.28810 -10.28507 -10.28460 -10.28322 -10.28285
 Alpha  occ. eigenvalues --  -10.27969 -10.27723 -10.27606 -10.26827 -10.26569
 Alpha  occ. eigenvalues --  -10.25756 -10.21319  -1.18636  -1.16598  -1.15810
 Alpha  occ. eigenvalues --   -1.11795  -1.10523  -1.10144  -1.09601  -1.07643
 Alpha  occ. eigenvalues --   -1.06508  -1.05743  -1.04791  -1.04053  -1.02637
 Alpha  occ. eigenvalues --   -1.01045  -0.99234  -0.98916  -0.93277  -0.90378
 Alpha  occ. eigenvalues --   -0.90259  -0.88742  -0.86135  -0.84786  -0.82783
 Alpha  occ. eigenvalues --   -0.82172  -0.81310  -0.80139  -0.79694  -0.77563
 Alpha  occ. eigenvalues --   -0.76410  -0.74343  -0.74003  -0.72910  -0.72103
 Alpha  occ. eigenvalues --   -0.71301  -0.70821  -0.69494  -0.68981  -0.68699
 Alpha  occ. eigenvalues --   -0.68015  -0.67475  -0.66337  -0.65963  -0.65589
 Alpha  occ. eigenvalues --   -0.65060  -0.64846  -0.63775  -0.63028  -0.62377
 Alpha  occ. eigenvalues --   -0.61172  -0.60625  -0.59229  -0.58218  -0.58122
 Alpha  occ. eigenvalues --   -0.57522  -0.56967  -0.56308  -0.56188  -0.55978
 Alpha  occ. eigenvalues --   -0.55649  -0.55103  -0.54822  -0.54413  -0.53942
 Alpha  occ. eigenvalues --   -0.53094  -0.52419  -0.52284  -0.52133  -0.51797
 Alpha  occ. eigenvalues --   -0.51432  -0.51176  -0.50595  -0.49995  -0.49548
 Alpha  occ. eigenvalues --   -0.49189  -0.48959  -0.48487  -0.48359  -0.47394
 Alpha  occ. eigenvalues --   -0.47263  -0.46930  -0.46635  -0.46450  -0.46154
 Alpha  occ. eigenvalues --   -0.45910  -0.45484  -0.44759  -0.44129  -0.44018
 Alpha  occ. eigenvalues --   -0.43849  -0.43706  -0.43558  -0.43227  -0.42782
 Alpha  occ. eigenvalues --   -0.42466  -0.42296  -0.41169  -0.41003  -0.40481
 Alpha  occ. eigenvalues --   -0.40044  -0.39547  -0.37770  -0.36534  -0.36314
 Alpha  occ. eigenvalues --   -0.35800  -0.35327  -0.33752  -0.33442  -0.32635
 Alpha  occ. eigenvalues --   -0.31670  -0.31486  -0.30185  -0.29398  -0.29062
 Alpha  occ. eigenvalues --   -0.28748  -0.27603
 Alpha virt. eigenvalues --   -0.11897  -0.10503  -0.09880  -0.08297  -0.07200
 Alpha virt. eigenvalues --   -0.07117  -0.07043  -0.06347  -0.04983  -0.04335
 Alpha virt. eigenvalues --   -0.02978  -0.02528  -0.02004  -0.01329  -0.01006

 Mulliken charges:
               1
     1  N   -0.745580
     2  H    0.425906
     3  H    0.409042
     4  H    0.404452
     5  C   -0.124647
     6  H    0.216290
     7  C    0.644782
     8  C   -0.301532
     9  H    0.229424
    10  H    0.150900
    11  O   -0.566502
    12  C   -0.403491
    13  H    0.132595
    14  H    0.187172
    15  C    0.610349
    16  O   -0.567080
    17  O   -0.590421
    18  N   -0.636797
    19  H    0.413456
    20  C   -0.023347
    21  H    0.161294
    22  C    0.610919
    23  C   -0.342310
    24  H    0.167655
    25  H    0.187918
    26  O   -0.559156
    27  C    0.081068
    28  C    0.013552
    29  H    0.184495
    30  C    0.055500
    31  C    0.287867
    32  C   -0.215851
    33  H    0.144857
    34  N   -0.674178
    35  H    0.349334
    36  C   -0.202432
    37  H    0.136822
    38  C   -0.202576
    39  H    0.149720
    40  C   -0.157866
    41  H    0.139536
    42  N   -0.548151
    43  H    0.352633
    44  C   -0.105583
    45  H    0.178624
    46  C    0.617596
    47  C    0.161598
    48  H    0.122901
    49  O   -0.534715
    50  C   -0.503189
    51  H    0.117215
    52  H    0.163966
    53  H    0.207050
    54  O   -0.664961
    55  H    0.445007
    56  N   -0.577901
    57  H    0.338620
    58  C   -0.066879
    59  H    0.205296
    60  C    0.595924
    61  C   -0.275150
    62  H    0.160430
    63  H    0.136892
    64  O   -0.460698
    65  C   -0.319046
    66  H    0.192433
    67  H    0.200473
    68  C   -0.164821
    69  H    0.216725
    70  H    0.150155
    71  N   -0.598959
    72  H    0.394076
    73  N   -0.761113
    74  H    0.381664
    75  H    0.387976
    76  N   -0.761240
    77  H    0.378770
    78  H    0.377203
    79  C    0.813845
    80  O   -0.560253
    81  H    0.424448
 Sum of Mulliken charges =   1.00000

 Dipole moment (field-independent basis, Debye):
    X=             -1.7345    Y=             22.9206    Z=             -9.7219  Tot=             24.9575
 Quadrupole moment (field-independent basis, Debye-Ang):
   XX=           -100.0804   YY=           -132.2056   ZZ=           -157.1698
   XY=             55.5588   XZ=            -90.2334   YZ=            -69.5998

 Normal termination of Gaussian 16 at Fri Jun 24 06:34:33 2022.
