 Gaussian 16, Revision C.01,
 Gaussian 16:  ES64L-G16RevC.01  3-Jul-2019

 ----------------------------------------------------------------------
 # B3LYP/6-31G* empiricaldispersion=gd3bj guess=read geom=check nosymm
 integral(ultrafinegrid)
 ----------------------------------------------------------------------

 ------------------------------------------------------
 Candidate Structure: Conf:727 Charge calc in gas phase
 ------------------------------------------------------
 Structure from the checkpoint file:  "conf-727.chk"
 Charge =  1 Multiplicity = 1

                          Input orientation:
 ---------------------------------------------------------------------
 Center     Atomic      Atomic             Coordinates (Angstroms)
 Number     Number       Type             X           Y           Z
 ---------------------------------------------------------------------
      1          7           0       -4.559333    2.889507    4.666935
      2          1           0       -5.371461    3.482852    4.487109
      3          1           0       -4.847451    1.860991    4.605168
      4          1           0       -4.184763    3.114608    5.589405
      5          6           0       -3.503419    2.970422    3.572763
      6          1           0       -3.804749    3.711019    2.833468
      7          6           0       -3.563281    1.572318    2.924583
      8          6           0       -2.103314    3.318471    4.137683
      9          1           0       -2.150062    3.308608    5.236624
     10          1           0       -1.394651    2.528888    3.858008
     11          8           0       -4.328323    0.710705    3.408903
     12          6           0       -1.578833    4.662370    3.619795
     13          1           0       -0.601712    4.889976    4.049723
     14          1           0       -2.244221    5.478397    3.939627
     15          6           0       -1.423380    4.700326    2.061209
     16          8           0       -2.029109    3.779520    1.395119
     17          8           0       -0.763156    5.633086    1.612086
     18          7           0       -2.741669    1.452802    1.891292
     19          1           0       -2.226684    2.353290    1.630180
     20          6           0       -2.599634    0.241589    1.118819
     21          1           0       -3.233847   -0.526426    1.574549
     22          6           0       -1.126105   -0.208043    1.202598
     23          6           0       -3.096585    0.541755   -0.317066
     24          1           0       -2.486509    1.357404   -0.708126
     25          1           0       -4.118703    0.927509   -0.206848
     26          8           0       -0.229290    0.551396    1.528082
     27          6           0       -3.097791   -0.614960   -1.276641
     28          6           0       -3.356924   -1.945676   -1.032000
     29          1           0       -3.646330   -2.439384   -0.113247
     30          6           0       -2.888733   -0.510980   -2.697812
     31          6           0       -2.979727   -1.823268   -3.245434
     32          6           0       -2.701092    0.578799   -3.569677
     33          1           0       -2.673379    1.593287   -3.181674
     34          7           0       -3.266374   -2.674209   -2.206914
     35          1           0       -3.393105   -3.671740   -2.282015
     36          6           0       -2.617645   -0.980574   -5.450254
     37          1           0       -2.562803   -1.134683   -6.525978
     38          6           0       -2.825738   -2.073980   -4.614334
     39          1           0       -2.906595   -3.081070   -5.013910
     40          6           0       -2.569221    0.337378   -4.935511
     41          1           0       -2.462868    1.174148   -5.619866
     42          7           0       -0.897529   -1.551869    0.960749
     43          1           0       -1.568666   -2.015420    0.355359
     44          6           0        0.480261   -2.026117    0.787935
     45          1           0        1.080552   -1.589719    1.587489
     46          6           0        0.958546   -1.582462   -0.591624
     47          6           0        0.490714   -3.554104    0.938493
     48          1           0       -0.161893   -3.969868    0.152689
     49          8           0        0.586278   -2.157751   -1.614389
     50          6           0        1.887551   -4.135123    0.780586
     51          1           0        2.264121   -3.975436   -0.234619
     52          1           0        1.859442   -5.210476    0.975973
     53          1           0        2.576972   -3.676837    1.497296
     54          8           0        0.015907   -3.905698    2.227633
     55          1           0       -0.737760   -3.322979    2.422072
     56          7           0        1.755984   -0.470375   -0.601876
     57          1           0        1.648607    0.122322    0.217575
     58          6           0        1.964771    0.231548   -1.868648
     59          1           0        2.466399    1.174085   -1.622970
     60          6           0        0.568608    0.619545   -2.381555
     61          6           0        2.833984   -0.595294   -2.826114
     62          1           0        2.277457   -1.509764   -3.043971
     63          1           0        3.728203   -0.900331   -2.272578
     64          8           0       -0.253667    1.155427   -1.682211
     65          6           0        3.240848    0.107629   -4.134251
     66          1           0        2.431331    0.751400   -4.484254
     67          1           0        4.103506    0.761199   -3.969685
     68          6           0        3.556321   -0.920205   -5.248932
     69          1           0        4.622685   -0.971460   -5.476575
     70          1           0        3.247964   -1.923459   -4.940949
     71          7           0        2.875486   -0.646328   -6.526900
     72          1           0        3.379330   -0.142601   -7.243641
     73          7           0        0.799333   -1.399812   -5.814377
     74          1           0       -0.138401   -1.715971   -6.035756
     75          1           0        0.885546   -1.012538   -4.871266
     76          7           0        1.168911   -0.942615   -8.060148
     77          1           0        1.809580   -0.927821   -8.839753
     78          1           0        0.183692   -0.998014   -8.268906
     79          6           0        1.609699   -0.985559   -6.790300
     80          8           0        0.322942    0.321718   -3.683709
     81          1           0       -0.629419    0.529493   -3.850052
 ---------------------------------------------------------------------

 SCF Done:  E(RB3LYP) =  -2054.07138407     A.U. after    1 cycles

 Alpha  occ. eigenvalues --  -19.29524 -19.23144 -19.20991 -19.20695 -19.20639
 Alpha  occ. eigenvalues --  -19.20096 -19.10710 -19.08764 -14.54285 -14.52755
 Alpha  occ. eigenvalues --  -14.52595 -14.50890 -14.47544 -14.44747 -14.44243
 Alpha  occ. eigenvalues --  -14.40810 -10.48508 -10.41525 -10.37496 -10.36850
 Alpha  occ. eigenvalues --  -10.36592 -10.35853 -10.33698 -10.33193 -10.31876
 Alpha  occ. eigenvalues --  -10.31348 -10.31008 -10.30938 -10.30727 -10.30120
 Alpha  occ. eigenvalues --  -10.29572 -10.29326 -10.28889 -10.28697 -10.28581
 Alpha  occ. eigenvalues --  -10.28288 -10.28134 -10.27773 -10.26934 -10.26433
 Alpha  occ. eigenvalues --  -10.24123 -10.21844  -1.20230  -1.17124  -1.13067
 Alpha  occ. eigenvalues --   -1.12600  -1.11808  -1.11137  -1.08667  -1.07800
 Alpha  occ. eigenvalues --   -1.07474  -1.06500  -1.04899  -1.03217  -1.01640
 Alpha  occ. eigenvalues --   -1.00352  -0.99681  -0.94601  -0.94095  -0.91382
 Alpha  occ. eigenvalues --   -0.89683  -0.87207  -0.86690  -0.84893  -0.83991
 Alpha  occ. eigenvalues --   -0.83357  -0.81360  -0.80885  -0.78338  -0.77787
 Alpha  occ. eigenvalues --   -0.77452  -0.74399  -0.74032  -0.73048  -0.72244
 Alpha  occ. eigenvalues --   -0.71654  -0.70781  -0.70033  -0.69213  -0.67807
 Alpha  occ. eigenvalues --   -0.67521  -0.66703  -0.66181  -0.65553  -0.65253
 Alpha  occ. eigenvalues --   -0.64997  -0.64644  -0.64065  -0.63256  -0.62869
 Alpha  occ. eigenvalues --   -0.61299  -0.60907  -0.59768  -0.58651  -0.58381
 Alpha  occ. eigenvalues --   -0.57992  -0.57565  -0.57131  -0.57059  -0.56816
 Alpha  occ. eigenvalues --   -0.55998  -0.55636  -0.55111  -0.53925  -0.53657
 Alpha  occ. eigenvalues --   -0.53080  -0.53072  -0.52729  -0.52575  -0.52156
 Alpha  occ. eigenvalues --   -0.51561  -0.50976  -0.50724  -0.50348  -0.49953
 Alpha  occ. eigenvalues --   -0.49562  -0.49083  -0.48724  -0.47758  -0.47571
 Alpha  occ. eigenvalues --   -0.47407  -0.46991  -0.46486  -0.46211  -0.45681
 Alpha  occ. eigenvalues --   -0.45617  -0.45450  -0.45077  -0.44565  -0.44287
 Alpha  occ. eigenvalues --   -0.44041  -0.43813  -0.43127  -0.43083  -0.43009
 Alpha  occ. eigenvalues --   -0.42442  -0.42032  -0.41375  -0.40988  -0.40856
 Alpha  occ. eigenvalues --   -0.39677  -0.38671  -0.37687  -0.36778  -0.36695
 Alpha  occ. eigenvalues --   -0.36369  -0.35264  -0.35205  -0.34763  -0.33378
 Alpha  occ. eigenvalues --   -0.32465  -0.32248  -0.32029  -0.29960  -0.25911
 Alpha  occ. eigenvalues --   -0.25679  -0.22986
 Alpha virt. eigenvalues --   -0.12974  -0.11791  -0.09395  -0.09200  -0.08008
 Alpha virt. eigenvalues --   -0.07358  -0.06534  -0.05885  -0.05422  -0.05076
 Alpha virt. eigenvalues --   -0.03701  -0.03258  -0.01850  -0.01699  -0.01051

 Mulliken charges:
               1
     1  N   -0.763834
     2  H    0.403968
     3  H    0.416047
     4  H    0.398150
     5  C   -0.094623
     6  H    0.237366
     7  C    0.596592
     8  C   -0.306701
     9  H    0.122602
    10  H    0.202045
    11  O   -0.577321
    12  C   -0.364215
    13  H    0.167937
    14  H    0.135239
    15  C    0.588348
    16  O   -0.650089
    17  O   -0.533207
    18  N   -0.585037
    19  H    0.445746
    20  C   -0.105301
    21  H    0.176061
    22  C    0.642540
    23  C   -0.348744
    24  H    0.219516
    25  H    0.178341
    26  O   -0.498970
    27  C    0.092028
    28  C   -0.045183
    29  H    0.181334
    30  C    0.102693
    31  C    0.341973
    32  C   -0.286902
    33  H    0.180929
    34  N   -0.686877
    35  H    0.344328
    36  C   -0.185434
    37  H    0.121591
    38  C   -0.160741
    39  H    0.146566
    40  C   -0.171974
    41  H    0.147994
    42  N   -0.647970
    43  H    0.347090
    44  C   -0.087820
    45  H    0.184684
    46  C    0.627268
    47  C    0.152645
    48  H    0.120269
    49  O   -0.553703
    50  C   -0.464313
    51  H    0.150733
    52  H    0.175465
    53  H    0.160189
    54  O   -0.627509
    55  H    0.400020
    56  N   -0.586992
    57  H    0.379350
    58  C   -0.068344
    59  H    0.199624
    60  C    0.628678
    61  C   -0.301727
    62  H    0.187092
    63  H    0.175738
    64  O   -0.442424
    65  C   -0.307287
    66  H    0.176375
    67  H    0.176179
    68  C   -0.172562
    69  H    0.195707
    70  H    0.200827
    71  N   -0.590530
    72  H    0.364457
    73  N   -0.768654
    74  H    0.363807
    75  H    0.442433
    76  N   -0.761174
    77  H    0.381148
    78  H    0.380378
    79  C    0.789699
    80  O   -0.641875
    81  H    0.438250
 Sum of Mulliken charges =   1.00000

 Dipole moment (field-independent basis, Debye):
    X=             -3.3187    Y=             -7.4366    Z=            -19.7600  Tot=             21.3723
 Quadrupole moment (field-independent basis, Debye-Ang):
   XX=           -154.0997   YY=           -266.2181   ZZ=             12.6233
   XY=            -18.7428   XZ=            -90.5317   YZ=             56.1543

 Normal termination of Gaussian 16 at Fri Jun 24 06:34:31 2022.
