 Gaussian 16, Revision C.01,
 Gaussian 16:  ES64L-G16RevC.01  3-Jul-2019

 ----------------------------------------------------------------------
 # B3LYP/6-31G* empiricaldispersion=gd3bj guess=read geom=check nosymm
 integral(ultrafinegrid)
 ----------------------------------------------------------------------

 ------------------------------------------------------
 Candidate Structure: Conf:771 Charge calc in gas phase
 ------------------------------------------------------
 Structure from the checkpoint file:  "conf-771.chk"
 Charge =  1 Multiplicity = 1

                          Input orientation:
 ---------------------------------------------------------------------
 Center     Atomic      Atomic             Coordinates (Angstroms)
 Number     Number       Type             X           Y           Z
 ---------------------------------------------------------------------
      1          7           0       -3.545278   -2.184835   -2.709290
      2          1           0       -4.264292   -2.641436   -2.115304
      3          1           0       -3.857311   -1.212802   -2.909555
      4          1           0       -3.432626   -2.707889   -3.581103
      5          6           0       -2.237253   -2.011873   -1.964278
      6          1           0       -2.155588   -2.858116   -1.279921
      7          6           0       -2.460573   -0.692025   -1.209354
      8          6           0       -1.043863   -1.958257   -2.931340
      9          1           0       -0.149017   -1.705923   -2.354159
     10          1           0       -0.881433   -2.969407   -3.327347
     11          8           0       -3.137897    0.184662   -1.750244
     12          6           0       -1.178213   -0.955264   -4.079737
     13          1           0       -1.467102    0.029916   -3.693225
     14          1           0       -1.948889   -1.240881   -4.806209
     15          6           0        0.147464   -0.766490   -4.856884
     16          8           0        0.004991   -0.356442   -6.060716
     17          8           0        1.222990   -0.968825   -4.264417
     18          7           0       -1.880105   -0.598466   -0.002303
     19          1           0       -1.522159   -1.454399    0.401915
     20          6           0       -2.065545    0.556561    0.876534
     21          1           0       -2.491526    1.336089    0.242082
     22          6           0       -0.728984    1.143992    1.372366
     23          6           0       -3.096337    0.235959    1.987113
     24          1           0       -3.187323    1.124820    2.618328
     25          1           0       -2.714905   -0.572155    2.624123
     26          8           0       -0.701071    2.264183    1.858032
     27          6           0       -4.408508   -0.130387    1.354320
     28          6           0       -5.396130    0.751496    0.985839
     29          1           0       -5.495959    1.803370    1.215167
     30          6           0       -4.761388   -1.397815    0.762024
     31          6           0       -5.962668   -1.196659    0.015489
     32          6           0       -4.178771   -2.677067    0.761938
     33          1           0       -3.296402   -2.880985    1.362970
     34          7           0       -6.328426    0.117954    0.189286
     35          1           0       -7.166105    0.546332   -0.174701
     36          6           0       -5.922081   -3.457726   -0.760336
     37          1           0       -6.367047   -4.273143   -1.323034
     38          6           0       -6.545726   -2.209483   -0.751218
     39          1           0       -7.458578   -2.037267   -1.314048
     40          6           0       -4.754053   -3.693140    0.003516
     41          1           0       -4.320253   -4.688810    0.018037
     42          7           0        0.362200    0.349373    1.178577
     43          1           0        0.215762   -0.474823    0.605078
     44          6           0        1.661843    0.900633    0.836601
     45          1           0        1.584291    1.992941    0.802061
     46          6           0        1.970017    0.301681   -0.548315
     47          6           0        2.790933    0.496262    1.823737
     48          1           0        3.680304    1.093693    1.559555
     49          8           0        1.319857   -0.656862   -0.965596
     50          6           0        2.395739    0.791811    3.260605
     51          1           0        2.092723    1.836967    3.376432
     52          1           0        3.234805    0.580859    3.928741
     53          1           0        1.552918    0.156096    3.544453
     54          8           0        3.077637   -0.889632    1.720026
     55          1           0        3.587008   -1.040372    0.904792
     56          7           0        3.007710    0.828969   -1.239703
     57          1           0        3.568160    1.551898   -0.807178
     58          6           0        3.495138    0.171511   -2.442342
     59          1           0        2.690243   -0.508483   -2.752766
     60          6           0        4.717543   -0.694185   -2.173789
     61          6           0        3.740750    1.132423   -3.609543
     62          1           0        3.967887    0.497935   -4.468992
     63          1           0        4.631683    1.749288   -3.429704
     64          8           0        5.519720   -1.027195   -3.013100
     65          6           0        2.521124    2.017578   -3.892558
     66          1           0        1.608879    1.447664   -3.691839
     67          1           0        2.514109    2.884962   -3.222351
     68          6           0        2.464929    2.518974   -5.341600
     69          1           0        1.710416    3.304307   -5.443814
     70          1           0        3.416877    2.971393   -5.640241
     71          7           0        2.096604    1.456067   -6.275184
     72          1           0        1.162044    1.026794   -6.143207
     73          7           0        4.194814    0.970075   -7.225504
     74          1           0        4.869953    0.237190   -7.387586
     75          1           0        4.566909    1.849799   -6.903966
     76          7           0        2.438273   -0.552013   -7.306419
     77          1           0        1.485732   -0.782582   -6.958572
     78          1           0        2.900424   -1.099323   -8.016114
     79          6           0        2.920841    0.626006   -6.916098
     80          8           0        4.810964   -1.096119   -0.874398
     81          1           0        5.593401   -1.678467   -0.824657
 ---------------------------------------------------------------------

 SCF Done:  E(RB3LYP) =  -2054.13078195     A.U. after    1 cycles

 Alpha  occ. eigenvalues --  -19.29002 -19.24440 -19.22755 -19.21499 -19.20992
 Alpha  occ. eigenvalues --  -19.19682 -19.16311 -19.15932 -14.57133 -14.48379
 Alpha  occ. eigenvalues --  -14.47815 -14.47538 -14.45999 -14.45508 -14.44904
 Alpha  occ. eigenvalues --  -14.43164 -10.42620 -10.41436 -10.40788 -10.38244
 Alpha  occ. eigenvalues --  -10.37621 -10.37010 -10.34476 -10.32993 -10.32429
 Alpha  occ. eigenvalues --  -10.32326 -10.31838 -10.31675 -10.31551 -10.31393
 Alpha  occ. eigenvalues --  -10.29777 -10.29435 -10.29347 -10.29197 -10.29108
 Alpha  occ. eigenvalues --  -10.29051 -10.28873 -10.27835 -10.27718 -10.27415
 Alpha  occ. eigenvalues --  -10.26787 -10.23618  -1.19414  -1.16926  -1.13877
 Alpha  occ. eigenvalues --   -1.11642  -1.11464  -1.11326  -1.10453  -1.09347
 Alpha  occ. eigenvalues --   -1.08746  -1.07804  -1.05233  -1.02532  -1.01104
 Alpha  occ. eigenvalues --   -1.00370  -1.00359  -0.99152  -0.94570  -0.91373
 Alpha  occ. eigenvalues --   -0.89921  -0.89180  -0.86691  -0.85262  -0.84039
 Alpha  occ. eigenvalues --   -0.83566  -0.82583  -0.81386  -0.78974  -0.77671
 Alpha  occ. eigenvalues --   -0.75793  -0.73701  -0.73163  -0.72571  -0.71514
 Alpha  occ. eigenvalues --   -0.70797  -0.70455  -0.69548  -0.69389  -0.69133
 Alpha  occ. eigenvalues --   -0.68660  -0.67947  -0.67804  -0.66375  -0.65411
 Alpha  occ. eigenvalues --   -0.65168  -0.64582  -0.63547  -0.61791  -0.60383
 Alpha  occ. eigenvalues --   -0.60007  -0.59480  -0.59391  -0.59188  -0.58694
 Alpha  occ. eigenvalues --   -0.58223  -0.57952  -0.57586  -0.57258  -0.57170
 Alpha  occ. eigenvalues --   -0.56324  -0.55941  -0.55637  -0.54539  -0.54181
 Alpha  occ. eigenvalues --   -0.53875  -0.53515  -0.53382  -0.52604  -0.52380
 Alpha  occ. eigenvalues --   -0.52065  -0.51915  -0.51380  -0.51069  -0.50868
 Alpha  occ. eigenvalues --   -0.50431  -0.50293  -0.49652  -0.49193  -0.49071
 Alpha  occ. eigenvalues --   -0.48375  -0.47951  -0.47350  -0.47241  -0.46814
 Alpha  occ. eigenvalues --   -0.46472  -0.45992  -0.45531  -0.45513  -0.45160
 Alpha  occ. eigenvalues --   -0.44627  -0.44404  -0.44239  -0.44057  -0.43616
 Alpha  occ. eigenvalues --   -0.43460  -0.42839  -0.42752  -0.41779  -0.40743
 Alpha  occ. eigenvalues --   -0.39761  -0.38995  -0.38272  -0.38120  -0.37994
 Alpha  occ. eigenvalues --   -0.37762  -0.35542  -0.35278  -0.35196  -0.34301
 Alpha  occ. eigenvalues --   -0.33285  -0.32936  -0.32611  -0.32168  -0.31183
 Alpha  occ. eigenvalues --   -0.30127  -0.29935
 Alpha virt. eigenvalues --   -0.11946  -0.10809  -0.08375  -0.08112  -0.07383
 Alpha virt. eigenvalues --   -0.07290  -0.07110  -0.06567  -0.04590  -0.03974
 Alpha virt. eigenvalues --   -0.02860  -0.02352  -0.02186  -0.01211  -0.00760

 Mulliken charges:
               1
     1  N   -0.760998
     2  H    0.418492
     3  H    0.421475
     4  H    0.404105
     5  C   -0.119980
     6  H    0.186559
     7  C    0.676352
     8  C   -0.312299
     9  H    0.255567
    10  H    0.160043
    11  O   -0.535193
    12  C   -0.381989
    13  H    0.182186
    14  H    0.130833
    15  C    0.595237
    16  O   -0.631564
    17  O   -0.554248
    18  N   -0.616491
    19  H    0.347309
    20  C   -0.068890
    21  H    0.219017
    22  C    0.600765
    23  C   -0.364090
    24  H    0.197062
    25  H    0.159840
    26  O   -0.501825
    27  C    0.063312
    28  C    0.034168
    29  H    0.182491
    30  C    0.073239
    31  C    0.330336
    32  C   -0.231509
    33  H    0.137856
    34  N   -0.680106
    35  H    0.347223
    36  C   -0.216194
    37  H    0.156371
    38  C   -0.169687
    39  H    0.155942
    40  C   -0.178170
    41  H    0.151362
    42  N   -0.590385
    43  H    0.354853
    44  C   -0.089225
    45  H    0.180439
    46  C    0.603089
    47  C    0.132053
    48  H    0.110086
    49  O   -0.529380
    50  C   -0.445331
    51  H    0.161604
    52  H    0.166836
    53  H    0.169186
    54  O   -0.642993
    55  H    0.422613
    56  N   -0.600625
    57  H    0.338836
    58  C   -0.109121
    59  H    0.294341
    60  C    0.610195
    61  C   -0.283325
    62  H    0.174934
    63  H    0.139256
    64  O   -0.453559
    65  C   -0.259788
    66  H    0.180991
    67  H    0.145704
    68  C   -0.181920
    69  H    0.185358
    70  H    0.147076
    71  N   -0.593032
    72  H    0.400282
    73  N   -0.753031
    74  H    0.368905
    75  H    0.366906
    76  N   -0.773398
    77  H    0.419308
    78  H    0.351558
    79  C    0.777123
    80  O   -0.588265
    81  H    0.427935
 Sum of Mulliken charges =   1.00000

 Dipole moment (field-independent basis, Debye):
    X=             -3.7146    Y=             -3.2971    Z=            -14.9925  Tot=             15.7938
 Quadrupole moment (field-independent basis, Debye-Ang):
   XX=           -112.2951   YY=           -210.5040   ZZ=           -160.0688
   XY=             37.3753   XZ=            -29.3104   YZ=              2.7961

 Normal termination of Gaussian 16 at Fri Jun 24 06:34:37 2022.
