 Gaussian 16, Revision C.01,
 Gaussian 16:  ES64L-G16RevC.01  3-Jul-2019

 ----------------------------------------------------------------------
 # B3LYP/6-31G* empiricaldispersion=gd3bj guess=read geom=check nosymm
 integral(ultrafinegrid)
 ----------------------------------------------------------------------

 ------------------------------------------------------
 Candidate Structure: Conf:879 Charge calc in gas phase
 ------------------------------------------------------
 Structure from the checkpoint file:  "conf-879.chk"
 Charge =  1 Multiplicity = 1

                          Input orientation:
 ---------------------------------------------------------------------
 Center     Atomic      Atomic             Coordinates (Angstroms)
 Number     Number       Type             X           Y           Z
 ---------------------------------------------------------------------
      1          7           0       -2.548907    0.455249    4.096460
      2          1           0       -3.287139    0.519259    4.803161
      3          1           0       -2.485651   -0.542086    3.761998
      4          1           0       -1.660766    0.765544    4.509537
      5          6           0       -2.850041    1.222287    2.828308
      6          1           0       -3.599758    1.984624    3.048030
      7          6           0       -3.291241    0.131487    1.812840
      8          6           0       -1.556149    1.785368    2.218083
      9          1           0       -0.972099    0.931971    1.859773
     10          1           0       -1.856040    2.318659    1.315368
     11          8           0       -3.055533   -1.047265    2.081487
     12          6           0       -0.590350    2.686399    2.992957
     13          1           0       -0.132702    2.174060    3.850025
     14          1           0       -1.062425    3.615765    3.322510
     15          6           0        0.531012    2.993535    1.927507
     16          8           0        0.404315    4.139559    1.405827
     17          8           0        1.318703    2.070113    1.647916
     18          7           0       -3.721452    0.592507    0.613305
     19          1           0       -3.758853    1.604998    0.544378
     20          6           0       -3.164713   -0.018275   -0.625744
     21          1           0       -3.383295   -1.087130   -0.596303
     22          6           0       -1.646306    0.228950   -0.522799
     23          6           0       -3.761949    0.637622   -1.893405
     24          1           0       -4.061195    1.660110   -1.629732
     25          1           0       -4.689265    0.111127   -2.150522
     26          8           0       -1.222212    1.381082   -0.537928
     27          6           0       -2.805481    0.774165   -3.046335
     28          6           0       -1.846486   -0.127225   -3.446171
     29          1           0       -1.632556   -1.125924   -3.095823
     30          6           0       -2.562628    1.983551   -3.795374
     31          6           0       -1.428113    1.743165   -4.625275
     32          6           0       -3.159384    3.256176   -3.814243
     33          1           0       -4.038675    3.464692   -3.210286
     34          7           0       -1.031903    0.438534   -4.405725
     35          1           0       -0.131812    0.051194   -4.652494
     36          6           0       -1.490802    3.989551   -5.433191
     37          1           0       -1.105965    4.771820   -6.082533
     38          6           0       -0.887533    2.733776   -5.448356
     39          1           0       -0.028609    2.531701   -6.082199
     40          6           0       -2.618393    4.247907   -4.625006
     41          1           0       -3.089646    5.225921   -4.663513
     42          7           0       -0.892522   -0.859780   -0.276290
     43          1           0       -1.270765   -1.782395   -0.464637
     44          6           0        0.542422   -0.842330   -0.017796
     45          1           0        0.747970   -0.278380    0.896100
     46          6           0        1.311485   -0.220651   -1.181693
     47          6           0        0.978264   -2.321605    0.145039
     48          1           0        2.078153   -2.340871    0.149391
     49          8           0        1.164877   -0.671950   -2.329597
     50          6           0        0.461948   -2.942462    1.438439
     51          1           0        0.922310   -2.454230    2.304417
     52          1           0        0.718801   -4.004912    1.458873
     53          1           0       -0.626076   -2.851332    1.529874
     54          8           0        0.463206   -3.074638   -0.945350
     55          1           0        0.745281   -2.599587   -1.756043
     56          7           0        2.163592    0.760975   -0.849678
     57          1           0        2.125345    1.170980    0.093719
     58          6           0        2.870545    1.567078   -1.828626
     59          1           0        2.721022    1.107962   -2.811099
     60          6           0        4.365346    1.549295   -1.527080
     61          6           0        2.267767    2.984828   -1.777121
     62          1           0        2.887771    3.690394   -2.340529
     63          1           0        2.283651    3.288139   -0.726059
     64          8           0        4.902906    0.872239   -0.683472
     65          6           0        0.826602    2.955772   -2.296115
     66          1           0        0.816176    3.021893   -3.386144
     67          1           0        0.354331    2.011328   -2.031675
     68          6           0       -0.087131    4.014949   -1.691636
     69          1           0       -1.123037    3.816184   -1.962039
     70          1           0       -0.019726    4.004462   -0.604007
     71          7           0        0.202445    5.383533   -2.151874
     72          1           0       -0.183742    5.619972   -3.055843
     73          7           0        1.680860    5.973330   -0.436997
     74          1           0        2.537350    6.465188   -0.222323
     75          1           0        1.479090    5.154703    0.177648
     76          7           0        1.528168    7.279072   -2.337001
     77          1           0        1.099191    7.486442   -3.227068
     78          1           0        1.907763    8.072949   -1.840923
     79          6           0        1.130604    6.187760   -1.630156
     80          8           0        5.038617    2.392409   -2.347148
     81          1           0        5.983480    2.300046   -2.116072
 ---------------------------------------------------------------------

 SCF Done:  E(RB3LYP) =  -2054.10497258     A.U. after    1 cycles

 Alpha  occ. eigenvalues --  -19.27128 -19.26705 -19.21514 -19.20829 -19.20752
 Alpha  occ. eigenvalues --  -19.19602 -19.15968 -19.15928 -14.59653 -14.49174
 Alpha  occ. eigenvalues --  -14.49140 -14.48422 -14.47279 -14.45425 -14.45059
 Alpha  occ. eigenvalues --  -14.43052 -10.44838 -10.43439 -10.39617 -10.38900
 Alpha  occ. eigenvalues --  -10.37986 -10.36457 -10.34410 -10.34394 -10.31987
 Alpha  occ. eigenvalues --  -10.31119 -10.31049 -10.30334 -10.29543 -10.29489
 Alpha  occ. eigenvalues --  -10.29417 -10.29267 -10.27518 -10.26740 -10.26547
 Alpha  occ. eigenvalues --  -10.26490 -10.26404 -10.26325 -10.26280 -10.26154
 Alpha  occ. eigenvalues --  -10.25233 -10.25181  -1.19149  -1.17479  -1.13754
 Alpha  occ. eigenvalues --   -1.13307  -1.13205  -1.11335  -1.09048  -1.08942
 Alpha  occ. eigenvalues --   -1.08479  -1.05857  -1.05167  -1.02544  -1.01579
 Alpha  occ. eigenvalues --   -1.01181  -1.00574  -1.00142  -0.92665  -0.91631
 Alpha  occ. eigenvalues --   -0.89463  -0.88041  -0.86064  -0.84750  -0.83277
 Alpha  occ. eigenvalues --   -0.83020  -0.81260  -0.79862  -0.79005  -0.77552
 Alpha  occ. eigenvalues --   -0.75421  -0.74123  -0.74015  -0.73386  -0.72021
 Alpha  occ. eigenvalues --   -0.71567  -0.70665  -0.70004  -0.69924  -0.69089
 Alpha  occ. eigenvalues --   -0.67947  -0.66976  -0.66718  -0.66320  -0.65214
 Alpha  occ. eigenvalues --   -0.64765  -0.64036  -0.62457  -0.62034  -0.61710
 Alpha  occ. eigenvalues --   -0.60694  -0.60521  -0.59622  -0.58916  -0.58495
 Alpha  occ. eigenvalues --   -0.57897  -0.57639  -0.57154  -0.56828  -0.55940
 Alpha  occ. eigenvalues --   -0.55775  -0.55059  -0.54915  -0.54346  -0.54071
 Alpha  occ. eigenvalues --   -0.53569  -0.53113  -0.52858  -0.52080  -0.51797
 Alpha  occ. eigenvalues --   -0.51385  -0.50987  -0.50859  -0.50349  -0.49983
 Alpha  occ. eigenvalues --   -0.49506  -0.49064  -0.48860  -0.48743  -0.48371
 Alpha  occ. eigenvalues --   -0.48151  -0.47807  -0.47432  -0.47247  -0.46812
 Alpha  occ. eigenvalues --   -0.46058  -0.45892  -0.45468  -0.45163  -0.44990
 Alpha  occ. eigenvalues --   -0.44173  -0.43973  -0.43347  -0.43281  -0.43150
 Alpha  occ. eigenvalues --   -0.42219  -0.41748  -0.41448  -0.41040  -0.40779
 Alpha  occ. eigenvalues --   -0.40713  -0.39951  -0.39630  -0.38720  -0.36620
 Alpha  occ. eigenvalues --   -0.35786  -0.35179  -0.34656  -0.34320  -0.34188
 Alpha  occ. eigenvalues --   -0.33193  -0.32610  -0.31469  -0.30465  -0.30078
 Alpha  occ. eigenvalues --   -0.29982  -0.27957
 Alpha virt. eigenvalues --   -0.13135  -0.10390  -0.09446  -0.09007  -0.07532
 Alpha virt. eigenvalues --   -0.06065  -0.05844  -0.05727  -0.05549  -0.05231
 Alpha virt. eigenvalues --   -0.03832  -0.02284  -0.02131  -0.01571  -0.01331

 Mulliken charges:
               1
     1  N   -0.746035
     2  H    0.415464
     3  H    0.426719
     4  H    0.417496
     5  C   -0.123313
     6  H    0.205426
     7  C    0.619937
     8  C   -0.329543
     9  H    0.196227
    10  H    0.212679
    11  O   -0.504967
    12  C   -0.351302
    13  H    0.124963
    14  H    0.158040
    15  C    0.596438
    16  O   -0.583817
    17  O   -0.566935
    18  N   -0.565343
    19  H    0.347472
    20  C   -0.060228
    21  H    0.184302
    22  C    0.633373
    23  C   -0.357267
    24  H    0.147744
    25  H    0.184820
    26  O   -0.548779
    27  C    0.055669
    28  C    0.019023
    29  H    0.161268
    30  C    0.093760
    31  C    0.319721
    32  C   -0.217462
    33  H    0.128508
    34  N   -0.674605
    35  H    0.352335
    36  C   -0.175448
    37  H    0.130877
    38  C   -0.170510
    39  H    0.141997
    40  C   -0.156964
    41  H    0.130470
    42  N   -0.600335
    43  H    0.355716
    44  C   -0.080206
    45  H    0.189775
    46  C    0.656217
    47  C    0.092355
    48  H    0.161277
    49  O   -0.593506
    50  C   -0.460913
    51  H    0.146547
    52  H    0.184459
    53  H    0.151261
    54  O   -0.642215
    55  H    0.418749
    56  N   -0.593894
    57  H    0.403810
    58  C   -0.080963
    59  H    0.199803
    60  C    0.587419
    61  C   -0.297787
    62  H    0.155323
    63  H    0.163401
    64  O   -0.443962
    65  C   -0.286661
    66  H    0.140105
    67  H    0.213102
    68  C   -0.221986
    69  H    0.182191
    70  H    0.238607
    71  N   -0.588616
    72  H    0.347247
    73  N   -0.770958
    74  H    0.359396
    75  H    0.426543
    76  N   -0.766234
    77  H    0.366550
    78  H    0.369929
    79  C    0.798891
    80  O   -0.572527
    81  H    0.419879
 Sum of Mulliken charges =   1.00000

 Dipole moment (field-independent basis, Debye):
    X=             -6.4632    Y=             17.0597    Z=              2.9571  Tot=             18.4810
 Quadrupole moment (field-independent basis, Debye-Ang):
   XX=           -197.1394   YY=           -128.0396   ZZ=           -164.2814
   XY=             18.1988   XZ=            -47.4442   YZ=            -39.9301

 Normal termination of Gaussian 16 at Fri Jun 24 06:34:41 2022.
