 Gaussian 16, Revision C.01,
 Gaussian 16:  ES64L-G16RevC.01  3-Jul-2019

 ----------------------------------------------------------------------
 # B3LYP/6-31G* empiricaldispersion=gd3bj guess=read geom=check nosymm
 integral(ultrafinegrid)
 ----------------------------------------------------------------------

 ------------------------------------------------------
 Candidate Structure: Conf:474 Charge calc in gas phase
 ------------------------------------------------------
 Structure from the checkpoint file:  "conf-474.chk"
 Charge =  1 Multiplicity = 1

                          Input orientation:
 ---------------------------------------------------------------------
 Center     Atomic      Atomic             Coordinates (Angstroms)
 Number     Number       Type             X           Y           Z
 ---------------------------------------------------------------------
      1          7           0       -4.621028   -1.637316    2.432161
      2          1           0       -4.685460   -1.925498    1.456169
      3          1           0       -3.915908   -2.236512    2.860168
      4          1           0       -6.254105   -1.242262    3.057167
      5          6           0       -4.212504   -0.234520    2.489037
      6          1           0       -5.038647    0.326642    2.036802
      7          6           0       -3.018558    0.118660    1.596529
      8          6           0       -4.064596    0.237842    3.944440
      9          1           0       -3.213585   -0.268858    4.415124
     10          1           0       -3.833565    1.307690    3.950396
     11          8           0       -2.392624   -0.710913    0.943137
     12          6           0       -5.338188    0.000156    4.794213
     13          1           0       -5.298627    0.619710    5.692207
     14          1           0       -5.388291   -1.047384    5.106421
     15          6           0       -6.604852    0.354586    4.016924
     16          8           0       -7.033500   -0.603349    3.182050
     17          8           0       -7.157906    1.434771    4.093945
     18          7           0       -2.787523    1.468079    1.482449
     19          1           0       -3.497785    2.038118    1.933053
     20          6           0       -2.459631    1.986756    0.148207
     21          1           0       -2.687210    1.191231   -0.568115
     22          6           0       -0.956465    2.262350    0.064536
     23          6           0       -3.368077    3.203126   -0.159072
     24          1           0       -3.232059    3.473065   -1.214262
     25          1           0       -3.046537    4.060450    0.441382
     26          8           0       -0.499663    3.422628    0.049669
     27          6           0       -4.786281    2.828132    0.162916
     28          6           0       -5.509334    3.222666    1.271947
     29          1           0       -5.304469    4.013015    1.982257
     30          6           0       -5.503492    1.716495   -0.413786
     31          6           0       -6.650418    1.496430    0.398681
     32          6           0       -5.258210    0.850924   -1.495438
     33          1           0       -4.401552    1.002303   -2.147119
     34          7           0       -6.645670    2.451410    1.397089
     35          1           0       -7.205282    2.384523    2.243377
     36          6           0       -7.255578   -0.409278   -0.894489
     37          1           0       -7.918217   -1.245200   -1.096320
     38          6           0       -7.533222    0.434740    0.172788
     39          1           0       -8.381983    0.265820    0.825593
     40          6           0       -6.133583   -0.201139   -1.724986
     41          1           0       -5.955539   -0.877057   -2.555796
     42          7           0       -0.205831    1.150873    0.037422
     43          1           0       -0.693831    0.250666    0.086543
     44          6           0        1.239413    1.109303    0.063987
     45          1           0        1.621899    1.915984    0.698560
     46          6           0        1.846047    1.198693   -1.340995
     47          6           0        1.671042   -0.272853    0.649161
     48          1           0        2.763630   -0.353872    0.529515
     49          8           0        1.288261    0.716670   -2.318644
     50          6           0        1.309000   -0.406528    2.120775
     51          1           0        1.815393    0.358003    2.718177
     52          1           0        1.615629   -1.392474    2.478942
     53          1           0        0.228263   -0.311805    2.258137
     54          8           0        1.000960   -1.309733   -0.043897
     55          1           0        1.152053   -1.207291   -0.999876
     56          7           0        3.085360    1.797891   -1.407818
     57          1           0        3.587884    1.902205   -0.527237
     58          6           0        3.991465    1.507234   -2.524814
     59          1           0        3.564961    0.679503   -3.101169
     60          6           0        5.314732    1.056069   -1.915131
     61          6           0        4.187731    2.723187   -3.454404
     62          1           0        4.955624    2.481301   -4.193206
     63          1           0        4.592263    3.543167   -2.845644
     64          8           0        5.548214    1.075500   -0.725164
     65          6           0        2.868914    3.151336   -4.137367
     66          1           0        2.861737    2.805272   -5.175128
     67          1           0        2.029564    2.635070   -3.662607
     68          6           0        2.596422    4.676359   -4.095125
     69          1           0        3.224670    5.168266   -3.344740
     70          1           0        2.820380    5.159286   -5.047785
     71          7           0        1.202516    5.000647   -3.771935
     72          1           0        0.553730    5.156636   -4.530588
     73          7           0        1.473939    4.384817   -1.542832
     74          1           0        0.971271    4.098645   -0.694084
     75          1           0        2.294827    3.823974   -1.743384
     76          7           0       -0.602289    5.035224   -2.295588
     77          1           0       -1.177188    5.579066   -2.920792
     78          1           0       -0.975680    4.737970   -1.395646
     79          6           0        0.691101    4.797511   -2.548060
     80          8           0        6.183812    0.658236   -2.852268
     81          1           0        7.009194    0.394313   -2.401448
 ---------------------------------------------------------------------

 SCF Done:  E(RB3LYP) =  -2054.14866003     A.U. after    1 cycles

 Alpha  occ. eigenvalues --  -19.31275 -19.25963 -19.24727 -19.24723 -19.24287
 Alpha  occ. eigenvalues --  -19.24182 -19.22452 -19.19987 -14.51505 -14.50173
 Alpha  occ. eigenvalues --  -14.48790 -14.48569 -14.47199 -14.45094 -14.44327
 Alpha  occ. eigenvalues --  -14.42890 -10.46730 -10.43915 -10.41310 -10.40704
 Alpha  occ. eigenvalues --  -10.38396 -10.38329 -10.35972 -10.35888 -10.34985
 Alpha  occ. eigenvalues --  -10.34961 -10.33504 -10.32002 -10.31361 -10.30967
 Alpha  occ. eigenvalues --  -10.29705 -10.29468 -10.29227 -10.28719 -10.27657
 Alpha  occ. eigenvalues --  -10.26687 -10.26466 -10.25821 -10.25706 -10.25352
 Alpha  occ. eigenvalues --  -10.25105 -10.25025  -1.22455  -1.16832  -1.15882
 Alpha  occ. eigenvalues --   -1.15560  -1.15277  -1.13877  -1.13641  -1.12158
 Alpha  occ. eigenvalues --   -1.07492  -1.05374  -1.05135  -1.04855  -1.04134
 Alpha  occ. eigenvalues --   -1.02891  -1.02470  -0.99590  -0.92633  -0.90886
 Alpha  occ. eigenvalues --   -0.89842  -0.88857  -0.87569  -0.87078  -0.84331
 Alpha  occ. eigenvalues --   -0.82113  -0.81143  -0.80384  -0.79833  -0.78778
 Alpha  occ. eigenvalues --   -0.77268  -0.75622  -0.73713  -0.73226  -0.72701
 Alpha  occ. eigenvalues --   -0.71823  -0.70473  -0.69659  -0.69630  -0.69054
 Alpha  occ. eigenvalues --   -0.68683  -0.67636  -0.66309  -0.65794  -0.64832
 Alpha  occ. eigenvalues --   -0.64571  -0.64097  -0.63317  -0.62842  -0.61784
 Alpha  occ. eigenvalues --   -0.61271  -0.60943  -0.60593  -0.60493  -0.60049
 Alpha  occ. eigenvalues --   -0.59828  -0.58784  -0.58665  -0.58009  -0.57609
 Alpha  occ. eigenvalues --   -0.57305  -0.57176  -0.55782  -0.55463  -0.55266
 Alpha  occ. eigenvalues --   -0.54219  -0.53900  -0.53565  -0.53440  -0.53280
 Alpha  occ. eigenvalues --   -0.53002  -0.52659  -0.52248  -0.51268  -0.50860
 Alpha  occ. eigenvalues --   -0.50284  -0.50267  -0.50196  -0.49903  -0.49626
 Alpha  occ. eigenvalues --   -0.49301  -0.48965  -0.48556  -0.48138  -0.48099
 Alpha  occ. eigenvalues --   -0.47735  -0.47532  -0.47105  -0.46768  -0.46505
 Alpha  occ. eigenvalues --   -0.46410  -0.45863  -0.45120  -0.44603  -0.43511
 Alpha  occ. eigenvalues --   -0.43420  -0.43193  -0.42402  -0.42203  -0.41761
 Alpha  occ. eigenvalues --   -0.40586  -0.40442  -0.40084  -0.39647  -0.39456
 Alpha  occ. eigenvalues --   -0.38943  -0.38699  -0.37687  -0.37625  -0.36891
 Alpha  occ. eigenvalues --   -0.36309  -0.36012  -0.34677  -0.34345  -0.33468
 Alpha  occ. eigenvalues --   -0.29432  -0.27723
 Alpha virt. eigenvalues --   -0.11588  -0.11108  -0.10673  -0.10143  -0.08818
 Alpha virt. eigenvalues --   -0.08496  -0.06706  -0.06022  -0.04605  -0.03521
 Alpha virt. eigenvalues --   -0.03195  -0.02498  -0.02007  -0.01885  -0.01317

 Mulliken charges:
               1
     1  N   -0.752653
     2  H    0.349618
     3  H    0.332470
     4  H    0.455533
     5  C   -0.133769
     6  H    0.216765
     7  C    0.604086
     8  C   -0.278872
     9  H    0.165137
    10  H    0.163554
    11  O   -0.518811
    12  C   -0.364617
    13  H    0.189793
    14  H    0.176116
    15  C    0.592977
    16  O   -0.588820
    17  O   -0.482400
    18  N   -0.591939
    19  H    0.344344
    20  C   -0.080731
    21  H    0.193552
    22  C    0.667373
    23  C   -0.387845
    24  H    0.147548
    25  H    0.167599
    26  O   -0.598516
    27  C    0.023268
    28  C   -0.032861
    29  H    0.165288
    30  C    0.093748
    31  C    0.266966
    32  C   -0.211570
    33  H    0.116957
    34  N   -0.658571
    35  H    0.377865
    36  C   -0.161853
    37  H    0.144052
    38  C   -0.152342
    39  H    0.164882
    40  C   -0.142407
    41  H    0.135250
    42  N   -0.591471
    43  H    0.404332
    44  C   -0.085292
    45  H    0.166819
    46  C    0.594516
    47  C    0.101363
    48  H    0.146335
    49  O   -0.504509
    50  C   -0.451780
    51  H    0.152043
    52  H    0.187143
    53  H    0.172955
    54  O   -0.612280
    55  H    0.411602
    56  N   -0.639779
    57  H    0.363920
    58  C   -0.061936
    59  H    0.217858
    60  C    0.592680
    61  C   -0.291700
    62  H    0.199413
    63  H    0.153335
    64  O   -0.458666
    65  C   -0.323332
    66  H    0.183845
    67  H    0.193462
    68  C   -0.180798
    69  H    0.192736
    70  H    0.198678
    71  N   -0.589663
    72  H    0.360052
    73  N   -0.788835
    74  H    0.407497
    75  H    0.392658
    76  N   -0.792643
    77  H    0.368626
    78  H    0.415347
    79  C    0.791973
    80  O   -0.549706
    81  H    0.437041
 Sum of Mulliken charges =   1.00000

 Dipole moment (field-independent basis, Debye):
    X=              5.5488    Y=             13.7636    Z=             -7.8398  Tot=             16.7836
 Quadrupole moment (field-independent basis, Debye-Ang):
   XX=           -195.6703   YY=           -171.8631   ZZ=           -182.0479
   XY=             19.7885   XZ=            -32.5393   YZ=            -54.0360

 Normal termination of Gaussian 16 at Fri Jun 24 06:34:32 2022.
