 Gaussian 16, Revision C.01,
 Gaussian 16:  ES64L-G16RevC.01  3-Jul-2019

 ----------------------------------------------------------------------
 # B3LYP/6-31G* empiricaldispersion=gd3bj guess=read geom=check nosymm
 integral(ultrafinegrid)
 ----------------------------------------------------------------------

 ------------------------------------------------------
 Candidate Structure: Conf:112 Charge calc in gas phase
 ------------------------------------------------------
 Structure from the checkpoint file:  "conf-112.chk"
 Charge =  1 Multiplicity = 1

                          Input orientation:
 ---------------------------------------------------------------------
 Center     Atomic      Atomic             Coordinates (Angstroms)
 Number     Number       Type             X           Y           Z
 ---------------------------------------------------------------------
      1          7           0       -4.272496    2.685828    2.829621
      2          1           0       -4.299043    3.676660    2.574347
      3          1           0       -4.762484    2.124907    2.079885
      4          1           0       -4.722625    2.568532    3.741227
      5          6           0       -2.869667    2.107515    2.800494
      6          1           0       -2.140389    2.910305    2.919444
      7          6           0       -2.813553    1.452204    1.400787
      8          6           0       -2.712712    1.130298    3.980178
      9          1           0       -2.788478    1.733438    4.891378
     10          1           0       -3.532516    0.400264    3.964888
     11          8           0       -3.894233    1.181030    0.850955
     12          6           0       -1.354393    0.414745    3.971648
     13          1           0       -1.359010   -0.423743    3.269066
     14          1           0       -1.177796   -0.004646    4.967938
     15          6           0       -0.214036    1.411236    3.619362
     16          8           0        0.638559    0.982799    2.760757
     17          8           0       -0.291286    2.550257    4.099574
     18          7           0       -1.602579    1.246386    0.880082
     19          1           0       -0.775833    1.372158    1.482425
     20          6           0       -1.370684    0.483829   -0.359052
     21          1           0       -1.771112   -0.528307   -0.221793
     22          6           0        0.161741    0.428280   -0.482179
     23          6           0       -1.998559    1.094611   -1.608732
     24          1           0       -1.565849    2.090990   -1.759392
     25          1           0       -3.070693    1.227024   -1.437535
     26          8           0        0.800397    1.312809   -1.063580
     27          6           0       -1.769173    0.228426   -2.817822
     28          6           0       -1.123017   -0.985388   -2.897550
     29          1           0       -0.607753   -1.560261   -2.141717
     30          6           0       -2.220183    0.540675   -4.155828
     31          6           0       -1.814570   -0.526055   -5.000643
     32          6           0       -2.922073    1.622927   -4.711076
     33          1           0       -3.238577    2.454223   -4.087535
     34          7           0       -1.106404   -1.423804   -4.214791
     35          1           0       -0.887951   -2.371468   -4.484843
     36          6           0       -2.811995    0.530469   -6.886216
     37          1           0       -3.061369    0.543438   -7.942714
     38          6           0       -2.106747   -0.548729   -6.366925
     39          1           0       -1.800973   -1.377745   -6.998813
     40          6           0       -3.211849    1.607073   -6.068651
     41          1           0       -3.759615    2.433176   -6.511400
     42          7           0        0.717000   -0.607028    0.156106
     43          1           0        0.143111   -1.148884    0.800302
     44          6           0        2.112509   -0.619194    0.544733
     45          1           0        2.352315    0.367154    0.962777
     46          6           0        2.996458   -0.850720   -0.681405
     47          6           0        2.246940   -1.679889    1.689495
     48          1           0        2.273247   -2.677735    1.234917
     49          8           0        2.555279   -1.200785   -1.773700
     50          6           0        3.492747   -1.466228    2.545149
     51          1           0        4.417879   -1.637910    1.984774
     52          1           0        3.472206   -2.174106    3.377824
     53          1           0        3.498704   -0.452350    2.962573
     54          8           0        1.070604   -1.642440    2.477614
     55          1           0        0.939174   -0.691042    2.764434
     56          7           0        4.318357   -0.583825   -0.486637
     57          1           0        4.641903   -0.239677    0.405931
     58          6           0        5.215841   -0.493130   -1.625647
     59          1           0        5.022748   -1.355991   -2.273563
     60          6           0        6.679115   -0.550868   -1.229134
     61          6           0        4.897606    0.790492   -2.419323
     62          1           0        5.240411    1.664578   -1.850914
     63          1           0        3.809867    0.822866   -2.425906
     64          8           0        7.583452   -0.423044   -2.021121
     65          6           0        5.413471    0.861927   -3.856164
     66          1           0        6.480692    1.100297   -3.877335
     67          1           0        5.304297   -0.114405   -4.346830
     68          6           0        4.641613    1.910580   -4.670194
     69          1           0        4.661816    2.886535   -4.175112
     70          1           0        5.095626    2.060058   -5.652773
     71          7           0        3.240748    1.524835   -4.918690
     72          1           0        3.107090    0.843045   -5.654571
     73          7           0        2.160608    2.585154   -3.121802
     74          1           0        1.628716    2.381920   -2.271733
     75          1           0        2.875817    3.294418   -3.086443
     76          7           0        1.195358    0.767574   -4.139051
     77          1           0        1.338266   -0.162928   -4.504191
     78          1           0        0.422185    0.842136   -3.482109
     79          6           0        2.221793    1.615046   -4.041006
     80          8           0        6.866395   -0.740605    0.095848
     81          1           0        7.831227   -0.760283    0.246649
 ---------------------------------------------------------------------

 SCF Done:  E(RB3LYP) =  -2054.11815951     A.U. after    1 cycles

 Alpha  occ. eigenvalues --  -19.29305 -19.24637 -19.23129 -19.22522 -19.20660
 Alpha  occ. eigenvalues --  -19.20180 -19.15910 -19.14780 -14.57754 -14.49853
 Alpha  occ. eigenvalues --  -14.48114 -14.48009 -14.47262 -14.46556 -14.45186
 Alpha  occ. eigenvalues --  -14.45131 -10.45218 -10.41559 -10.41187 -10.38963
 Alpha  occ. eigenvalues --  -10.37768 -10.36823 -10.34700 -10.33738 -10.33541
 Alpha  occ. eigenvalues --  -10.33527 -10.31901 -10.31315 -10.30642 -10.30235
 Alpha  occ. eigenvalues --  -10.30158 -10.29081 -10.28853 -10.28225 -10.27505
 Alpha  occ. eigenvalues --  -10.26754 -10.26622 -10.26412 -10.26159 -10.26068
 Alpha  occ. eigenvalues --  -10.25707 -10.24745  -1.20038  -1.16909  -1.14322
 Alpha  occ. eigenvalues --   -1.13823  -1.12464  -1.11586  -1.10998  -1.09016
 Alpha  occ. eigenvalues --   -1.08140  -1.06331  -1.04191  -1.03655  -1.02097
 Alpha  occ. eigenvalues --   -1.01729  -1.01477  -0.99912  -0.91910  -0.91305
 Alpha  occ. eigenvalues --   -0.90558  -0.89496  -0.87089  -0.85318  -0.83831
 Alpha  occ. eigenvalues --   -0.81628  -0.81408  -0.80093  -0.79925  -0.78749
 Alpha  occ. eigenvalues --   -0.75939  -0.75654  -0.74017  -0.72553  -0.71509
 Alpha  occ. eigenvalues --   -0.71416  -0.70443  -0.70213  -0.69397  -0.68972
 Alpha  occ. eigenvalues --   -0.68328  -0.68060  -0.67017  -0.66959  -0.66765
 Alpha  occ. eigenvalues --   -0.64700  -0.63977  -0.63305  -0.62853  -0.61933
 Alpha  occ. eigenvalues --   -0.61367  -0.61024  -0.60002  -0.59740  -0.59100
 Alpha  occ. eigenvalues --   -0.58397  -0.57279  -0.56812  -0.56706  -0.56560
 Alpha  occ. eigenvalues --   -0.56137  -0.55723  -0.55385  -0.55126  -0.54873
 Alpha  occ. eigenvalues --   -0.53879  -0.53463  -0.52714  -0.52410  -0.52140
 Alpha  occ. eigenvalues --   -0.51987  -0.51545  -0.51380  -0.50945  -0.50693
 Alpha  occ. eigenvalues --   -0.50526  -0.50024  -0.49993  -0.49195  -0.49083
 Alpha  occ. eigenvalues --   -0.48480  -0.48063  -0.47893  -0.47511  -0.47205
 Alpha  occ. eigenvalues --   -0.46992  -0.46541  -0.46190  -0.45882  -0.45743
 Alpha  occ. eigenvalues --   -0.44997  -0.44695  -0.44179  -0.43842  -0.43468
 Alpha  occ. eigenvalues --   -0.43218  -0.42101  -0.41538  -0.41295  -0.41115
 Alpha  occ. eigenvalues --   -0.39813  -0.39047  -0.38808  -0.38620  -0.37455
 Alpha  occ. eigenvalues --   -0.36986  -0.36747  -0.35935  -0.35467  -0.34605
 Alpha  occ. eigenvalues --   -0.34542  -0.33339  -0.31472  -0.30435  -0.30100
 Alpha  occ. eigenvalues --   -0.28903  -0.28844
 Alpha virt. eigenvalues --   -0.10416  -0.10385  -0.09413  -0.08746  -0.08560
 Alpha virt. eigenvalues --   -0.08332  -0.06900  -0.05543  -0.04975  -0.03906
 Alpha virt. eigenvalues --   -0.03594  -0.02386  -0.02233  -0.01635  -0.00753

 Mulliken charges:
               1
     1  N   -0.756729
     2  H    0.413124
     3  H    0.423314
     4  H    0.410893
     5  C   -0.127052
     6  H    0.252662
     7  C    0.641520
     8  C   -0.280081
     9  H    0.183196
    10  H    0.156025
    11  O   -0.553725
    12  C   -0.368710
    13  H    0.147928
    14  H    0.186608
    15  C    0.560495
    16  O   -0.627338
    17  O   -0.534841
    18  N   -0.666287
    19  H    0.415379
    20  C   -0.014580
    21  H    0.177089
    22  C    0.602924
    23  C   -0.345535
    24  H    0.162763
    25  H    0.197238
    26  O   -0.574945
    27  C    0.021494
    28  C   -0.036486
    29  H    0.180817
    30  C    0.085862
    31  C    0.299795
    32  C   -0.204616
    33  H    0.131017
    34  N   -0.706002
    35  H    0.341718
    36  C   -0.148003
    37  H    0.144928
    38  C   -0.168784
    39  H    0.137105
    40  C   -0.137702
    41  H    0.140643
    42  N   -0.577538
    43  H    0.362121
    44  C   -0.100640
    45  H    0.194534
    46  C    0.650188
    47  C    0.133511
    48  H    0.149899
    49  O   -0.553654
    50  C   -0.490136
    51  H    0.148398
    52  H    0.182595
    53  H    0.168684
    54  O   -0.676440
    55  H    0.442763
    56  N   -0.616194
    57  H    0.356419
    58  C   -0.043330
    59  H    0.206921
    60  C    0.591984
    61  C   -0.296377
    62  H    0.148278
    63  H    0.179921
    64  O   -0.447761
    65  C   -0.258137
    66  H    0.195851
    67  H    0.151365
    68  C   -0.185285
    69  H    0.167532
    70  H    0.194802
    71  N   -0.579157
    72  H    0.355168
    73  N   -0.753703
    74  H    0.426727
    75  H    0.364065
    76  N   -0.750643
    77  H    0.366797
    78  H    0.405228
    79  C    0.762046
    80  O   -0.570546
    81  H    0.430626
 Sum of Mulliken charges =   1.00000

 Dipole moment (field-independent basis, Debye):
    X=             -0.7384    Y=              6.6096    Z=             -7.9775  Tot=             10.3862
 Quadrupole moment (field-independent basis, Debye-Ang):
   XX=           -138.4251   YY=           -210.8354   ZZ=           -163.7244
   XY=            -24.8492   XZ=            -61.2700   YZ=              1.6477

 Normal termination of Gaussian 16 at Fri Jun 24 06:34:45 2022.
