 Gaussian 16, Revision C.01,
 Gaussian 16:  ES64L-G16RevC.01  3-Jul-2019

 ----------------------------------------------------------------------
 # B3LYP/6-31G* empiricaldispersion=gd3bj guess=read geom=check nosymm
 integral(ultrafinegrid)
 ----------------------------------------------------------------------

 ------------------------------------------------------
 Candidate Structure: Conf:126 Charge calc in gas phase
 ------------------------------------------------------
 Structure from the checkpoint file:  "conf-126.chk"
 Charge =  1 Multiplicity = 1

                          Input orientation:
 ---------------------------------------------------------------------
 Center     Atomic      Atomic             Coordinates (Angstroms)
 Number     Number       Type             X           Y           Z
 ---------------------------------------------------------------------
      1          7           0       -3.056029   -2.898047    2.074136
      2          1           0       -4.036297   -3.090774    1.860387
      3          1           0       -2.482076   -2.793071    1.146708
      4          1           0       -2.692926   -3.636804    2.679812
      5          6           0       -2.822021   -1.505466    2.618728
      6          1           0       -3.764709   -1.091525    2.977034
      7          6           0       -2.285903   -0.751473    1.378709
      8          6           0       -1.773847   -1.591290    3.741518
      9          1           0       -2.193110   -2.189191    4.560991
     10          1           0       -0.891938   -2.107748    3.342828
     11          8           0       -1.875207   -1.521269    0.436125
     12          6           0       -1.327477   -0.227739    4.302155
     13          1           0       -0.768545    0.316250    3.536840
     14          1           0       -0.671210   -0.409522    5.155976
     15          6           0       -2.512101    0.600795    4.810808
     16          8           0       -3.193788    1.281562    3.876584
     17          8           0       -2.844704    0.597769    5.974113
     18          7           0       -2.248031    0.543509    1.467360
     19          1           0       -2.797928    1.139805    2.957032
     20          6           0       -1.588066    1.247854    0.373779
     21          1           0       -1.764117    0.699237   -0.557995
     22          6           0       -0.062714    1.248431    0.591413
     23          6           0       -2.091881    2.686461    0.248391
     24          1           0       -1.287843    3.264846   -0.221567
     25          1           0       -2.202045    3.107278    1.252932
     26          8           0        0.578953    2.276690    0.838582
     27          6           0       -3.377823    2.840316   -0.513335
     28          6           0       -4.441448    3.631925   -0.133843
     29          1           0       -4.575950    4.197395    0.778177
     30          6           0       -3.743074    2.269100   -1.797677
     31          6           0       -5.032348    2.782252   -2.132542
     32          6           0       -3.129131    1.378578   -2.708272
     33          1           0       -2.179280    0.905407   -2.477183
     34          7           0       -5.427416    3.603690   -1.098711
     35          1           0       -6.322543    4.063816   -1.028710
     36          6           0       -5.042245    1.599062   -4.203972
     37          1           0       -5.526573    1.327832   -5.136451
     38          6           0       -5.686909    2.459288   -3.324194
     39          1           0       -6.667832    2.864740   -3.553759
     40          6           0       -3.777655    1.061092   -3.896633
     41          1           0       -3.312472    0.366249   -4.589258
     42          7           0        0.501515    0.027472    0.466004
     43          1           0       -0.115709   -0.770993    0.311154
     44          6           0        1.917828   -0.217287    0.708956
     45          1           0        2.235247    0.414793    1.548353
     46          6           0        2.680177    0.207812   -0.562521
     47          6           0        2.128951   -1.692859    1.074477
     48          1           0        1.786836   -2.307264    0.236524
     49          8           0        2.996810   -0.576884   -1.449384
     50          6           0        3.587420   -2.009344    1.377443
     51          1           0        4.208423   -1.844952    0.493623
     52          1           0        3.682455   -3.054796    1.683534
     53          1           0        3.965666   -1.374948    2.190512
     54          8           0        1.271928   -2.042444    2.170532
     55          1           0        1.652517   -1.640894    2.968877
     56          7           0        2.890047    1.552067   -0.612551
     57          1           0        2.445105    2.118989    0.106558
     58          6           0        3.370915    2.221988   -1.793579
     59          1           0        3.786824    1.463247   -2.461088
     60          6           0        4.460401    3.216652   -1.407704
     61          6           0        2.236662    2.993714   -2.512447
     62          1           0        2.690131    3.598010   -3.311653
     63          1           0        1.791088    3.675150   -1.776114
     64          8           0        4.598241    3.701153   -0.309991
     65          6           0        1.162855    2.078468   -3.105756
     66          1           0        1.630337    1.375667   -3.805295
     67          1           0        0.705312    1.473738   -2.315476
     68          6           0        0.064247    2.829420   -3.870924
     69          1           0        0.489758    3.527226   -4.601731
     70          1           0       -0.545123    2.122324   -4.439506
     71          7           0       -0.887421    3.551186   -3.012884
     72          1           0       -1.747390    3.049358   -2.795700
     73          7           0        0.192585    5.615061   -2.968488
     74          1           0        0.244550    6.564560   -2.630418
     75          1           0        1.042418    5.217230   -3.338341
     76          7           0       -1.876377    5.345399   -1.951038
     77          1           0       -2.585211    4.722944   -1.559741
     78          1           0       -1.769132    6.236202   -1.487213
     79          6           0       -0.841542    4.823732   -2.633852
     80          8           0        5.220025    3.544075   -2.477236
     81          1           0        5.879889    4.194004   -2.167617
 ---------------------------------------------------------------------

 SCF Done:  E(RB3LYP) =  -2054.11024369     A.U. after    1 cycles

 Alpha  occ. eigenvalues --  -19.28210 -19.23116 -19.22475 -19.21910 -19.21222
 Alpha  occ. eigenvalues --  -19.20417 -19.19286 -19.17289 -14.54372 -14.52065
 Alpha  occ. eigenvalues --  -14.51160 -14.50970 -14.48256 -14.43795 -14.43319
 Alpha  occ. eigenvalues --  -14.39380 -10.47998 -10.40433 -10.36863 -10.36473
 Alpha  occ. eigenvalues --  -10.36120 -10.35989 -10.35793 -10.34941 -10.32677
 Alpha  occ. eigenvalues --  -10.32322 -10.32300 -10.31886 -10.31016 -10.30505
 Alpha  occ. eigenvalues --  -10.30275 -10.30097 -10.29521 -10.29342 -10.29158
 Alpha  occ. eigenvalues --  -10.29016 -10.28853 -10.28435 -10.28359 -10.27913
 Alpha  occ. eigenvalues --  -10.26901 -10.24776  -1.19058  -1.16533  -1.13274
 Alpha  occ. eigenvalues --   -1.12899  -1.12167  -1.11050  -1.10234  -1.10118
 Alpha  occ. eigenvalues --   -1.08247  -1.07673  -1.05792  -1.05144  -1.04643
 Alpha  occ. eigenvalues --   -1.01043  -1.00430  -0.97928  -0.94178  -0.91410
 Alpha  occ. eigenvalues --   -0.90526  -0.89244  -0.86992  -0.85371  -0.84513
 Alpha  occ. eigenvalues --   -0.83709  -0.82156  -0.80967  -0.80455  -0.78734
 Alpha  occ. eigenvalues --   -0.77534  -0.74336  -0.74033  -0.72811  -0.72424
 Alpha  occ. eigenvalues --   -0.72261  -0.71414  -0.69530  -0.69455  -0.68568
 Alpha  occ. eigenvalues --   -0.68146  -0.66905  -0.66600  -0.66179  -0.65661
 Alpha  occ. eigenvalues --   -0.65086  -0.64463  -0.64093  -0.63997  -0.62664
 Alpha  occ. eigenvalues --   -0.61298  -0.60415  -0.60059  -0.59480  -0.59115
 Alpha  occ. eigenvalues --   -0.58536  -0.58019  -0.57747  -0.57328  -0.56951
 Alpha  occ. eigenvalues --   -0.56705  -0.56347  -0.55625  -0.55441  -0.54828
 Alpha  occ. eigenvalues --   -0.53936  -0.53462  -0.53096  -0.52955  -0.52663
 Alpha  occ. eigenvalues --   -0.52198  -0.51725  -0.51663  -0.51519  -0.50717
 Alpha  occ. eigenvalues --   -0.50289  -0.49634  -0.49471  -0.49208  -0.48566
 Alpha  occ. eigenvalues --   -0.48347  -0.47882  -0.47818  -0.47479  -0.47054
 Alpha  occ. eigenvalues --   -0.46407  -0.46218  -0.45881  -0.45576  -0.45261
 Alpha  occ. eigenvalues --   -0.45149  -0.44797  -0.44536  -0.44386  -0.44043
 Alpha  occ. eigenvalues --   -0.43746  -0.43610  -0.42750  -0.42598  -0.41077
 Alpha  occ. eigenvalues --   -0.40578  -0.40389  -0.40126  -0.37895  -0.36868
 Alpha  occ. eigenvalues --   -0.36353  -0.35868  -0.35538  -0.35228  -0.35097
 Alpha  occ. eigenvalues --   -0.34477  -0.33344  -0.32718  -0.31768  -0.31532
 Alpha  occ. eigenvalues --   -0.30897  -0.30621
 Alpha virt. eigenvalues --   -0.11890  -0.11716  -0.08334  -0.07943  -0.07588
 Alpha virt. eigenvalues --   -0.07386  -0.06776  -0.06000  -0.04715  -0.04240
 Alpha virt. eigenvalues --   -0.03896  -0.03755  -0.02705  -0.01637  -0.01581

 Mulliken charges:
               1
     1  N   -0.765698
     2  H    0.398571
     3  H    0.429451
     4  H    0.398040
     5  C   -0.108108
     6  H    0.214266
     7  C    0.616265
     8  C   -0.312397
     9  H    0.172614
    10  H    0.189225
    11  O   -0.655904
    12  C   -0.371462
    13  H    0.174831
    14  H    0.180842
    15  C    0.569523
    16  O   -0.616259
    17  O   -0.450729
    18  N   -0.560213
    19  H    0.447727
    20  C   -0.083006
    21  H    0.165824
    22  C    0.625960
    23  C   -0.363578
    24  H    0.141317
    25  H    0.179694
    26  O   -0.561784
    27  C    0.016828
    28  C   -0.010899
    29  H    0.184085
    30  C    0.054076
    31  C    0.319039
    32  C   -0.285355
    33  H    0.156215
    34  N   -0.673045
    35  H    0.347585
    36  C   -0.151644
    37  H    0.155373
    38  C   -0.152838
    39  H    0.153386
    40  C   -0.129381
    41  H    0.147412
    42  N   -0.634101
    43  H    0.394811
    44  C   -0.062559
    45  H    0.162099
    46  C    0.627820
    47  C    0.109999
    48  H    0.169412
    49  O   -0.532413
    50  C   -0.485051
    51  H    0.190962
    52  H    0.172991
    53  H    0.141432
    54  O   -0.630903
    55  H    0.394603
    56  N   -0.597731
    57  H    0.377536
    58  C   -0.054666
    59  H    0.210750
    60  C    0.581608
    61  C   -0.308071
    62  H    0.151856
    63  H    0.155846
    64  O   -0.445515
    65  C   -0.258837
    66  H    0.184258
    67  H    0.177109
    68  C   -0.196040
    69  H    0.174201
    70  H    0.197254
    71  N   -0.604625
    72  H    0.388846
    73  N   -0.759657
    74  H    0.378637
    75  H    0.386832
    76  N   -0.774657
    77  H    0.400310
    78  H    0.368009
    79  C    0.806064
    80  O   -0.566720
    81  H    0.422453
 Sum of Mulliken charges =   1.00000

 Dipole moment (field-independent basis, Debye):
    X=             -8.5086    Y=             11.0548    Z=            -10.4730  Tot=             17.4439
 Quadrupole moment (field-independent basis, Debye-Ang):
   XX=           -173.8706   YY=           -115.1525   ZZ=           -230.9423
   XY=              3.8356   XZ=             17.0026   YZ=            -78.6627

 Normal termination of Gaussian 16 at Fri Jun 24 06:34:45 2022.
