 Gaussian 16, Revision C.01,
 Gaussian 16:  ES64L-G16RevC.01  3-Jul-2019

 ----------------------------------------------------------------------
 # B3LYP/6-31G* empiricaldispersion=gd3bj guess=read geom=check nosymm
 integral(ultrafinegrid)
 ----------------------------------------------------------------------

 ------------------------------------------------------
 Candidate Structure: Conf:315 Charge calc in gas phase
 ------------------------------------------------------
 Structure from the checkpoint file:  "conf-315.chk"
 Charge =  1 Multiplicity = 1

                          Input orientation:
 ---------------------------------------------------------------------
 Center     Atomic      Atomic             Coordinates (Angstroms)
 Number     Number       Type             X           Y           Z
 ---------------------------------------------------------------------
      1          7           0       -3.799991   -0.356264    4.385475
      2          1           0       -4.661197   -0.877113    4.202292
      3          1           0       -2.958378   -0.981836    4.197151
      4          1           0       -3.808267   -0.029393    5.355134
      5          6           0       -3.551912    0.764976    3.392609
      6          1           0       -4.484526    1.030460    2.895106
      7          6           0       -2.543003    0.128057    2.411088
      8          6           0       -2.967118    1.973736    4.147539
      9          1           0       -3.746512    2.352943    4.822131
     10          1           0       -2.131563    1.614477    4.765473
     11          8           0       -1.915817   -0.885216    2.806864
     12          6           0       -2.473594    3.128212    3.257927
     13          1           0       -1.578258    2.800223    2.719695
     14          1           0       -2.189728    3.950786    3.918297
     15          6           0       -3.552495    3.661390    2.276777
     16          8           0       -4.080323    4.742967    2.506919
     17          8           0       -3.825167    2.878210    1.267353
     18          7           0       -2.435171    0.770478    1.269969
     19          1           0       -3.062583    1.720399    1.190093
     20          6           0       -1.332301    0.534898    0.365646
     21          1           0       -1.530573   -0.349763   -0.255553
     22          6           0       -0.018156    0.359290    1.133010
     23          6           0       -1.143144    1.781517   -0.530789
     24          1           0       -0.130222    1.717576   -0.940196
     25          1           0       -1.160404    2.653654    0.129069
     26          8           0        0.361140    1.180508    1.960994
     27          6           0       -2.097153    1.949275   -1.666318
     28          6           0       -3.214136    2.751777   -1.725885
     29          1           0       -3.680071    3.314540   -0.924400
     30          6           0       -1.940332    1.352598   -2.965077
     31          6           0       -2.985297    1.869361   -3.792892
     32          6           0       -1.036951    0.417475   -3.512141
     33          1           0       -0.282700   -0.063743   -2.889741
     34          7           0       -3.744998    2.703605   -2.999352
     35          1           0       -4.575998    3.195598   -3.292248
     36          6           0       -2.169530    0.627369   -5.665997
     37          1           0       -2.254486    0.321305   -6.704890
     38          6           0       -3.099814    1.526933   -5.140419
     39          1           0       -3.893418    1.932326   -5.761297
     40          6           0       -1.158659    0.066913   -4.856133
     41          1           0       -0.483233   -0.669253   -5.283050
     42          7           0        0.718116   -0.719844    0.756844
     43          1           0        0.385182   -1.333132    0.024126
     44          6           0        2.075072   -0.942435    1.233216
     45          1           0        2.287076   -0.137663    1.941022
     46          6           0        2.934808   -0.862505   -0.025468
     47          6           0        2.151726   -2.288824    1.986048
     48          1           0        1.890446   -3.084219    1.267759
     49          8           0        2.696017   -1.574361   -0.998680
     50          6           0        3.543052   -2.547531    2.542930
     51          1           0        4.285777   -2.609067    1.740941
     52          1           0        3.549088   -3.491754    3.093678
     53          1           0        3.830715   -1.748032    3.234421
     54          8           0        1.251846   -2.266764    3.077854
     55          1           0        0.382382   -1.960710    2.761684
     56          7           0        3.855935    0.142718   -0.057728
     57          1           0        4.019804    0.696923    0.770486
     58          6           0        4.467992    0.501364   -1.317522
     59          1           0        4.266211   -0.366396   -1.957480
     60          6           0        5.981748    0.652977   -1.255775
     61          6           0        3.834123    1.754441   -1.978257
     62          1           0        3.996725    1.652662   -3.057158
     63          1           0        4.367460    2.661432   -1.665111
     64          8           0        6.605888    1.362345   -2.013715
     65          6           0        2.341809    1.890803   -1.660282
     66          1           0        1.840024    0.930413   -1.820425
     67          1           0        2.210639    2.136293   -0.601196
     68          6           0        1.606046    2.949124   -2.487870
     69          1           0        0.645179    3.196477   -2.028957
     70          1           0        2.166619    3.885808   -2.563560
     71          7           0        1.289167    2.461367   -3.839851
     72          1           0        0.519633    1.795013   -3.893234
     73          7           0        2.973328    3.529038   -5.045195
     74          1           0        3.254505    3.990628   -5.898432
     75          1           0        3.540687    3.674381   -4.223065
     76          7           0        1.226442    2.492000   -6.153998
     77          1           0        0.352992    1.966023   -6.136510
     78          1           0        1.775161    2.422580   -7.001527
     79          6           0        1.832047    2.819724   -4.993906
     80          8           0        6.541860   -0.096350   -0.288883
     81          1           0        7.507475    0.040131   -0.349237
 ---------------------------------------------------------------------

 SCF Done:  E(RB3LYP) =  -2054.09130054     A.U. after    1 cycles

 Alpha  occ. eigenvalues --  -19.28890 -19.23170 -19.22170 -19.21239 -19.20372
 Alpha  occ. eigenvalues --  -19.19893 -19.14554 -19.12269 -14.55921 -14.52269
 Alpha  occ. eigenvalues --  -14.51700 -14.51465 -14.46773 -14.46330 -14.45095
 Alpha  occ. eigenvalues --  -14.42060 -10.48363 -10.41447 -10.38314 -10.37865
 Alpha  occ. eigenvalues --  -10.37147 -10.35880 -10.35223 -10.33814 -10.31819
 Alpha  occ. eigenvalues --  -10.31484 -10.31336 -10.31253 -10.31043 -10.30489
 Alpha  occ. eigenvalues --  -10.30285 -10.29919 -10.28975 -10.28946 -10.28829
 Alpha  occ. eigenvalues --  -10.28758 -10.28489 -10.28279 -10.28188 -10.26693
 Alpha  occ. eigenvalues --  -10.24211 -10.23808  -1.19858  -1.16766  -1.14164
 Alpha  occ. eigenvalues --   -1.13553  -1.11918  -1.10877  -1.09322  -1.08267
 Alpha  occ. eigenvalues --   -1.06679  -1.06488  -1.06074  -1.04867  -1.02886
 Alpha  occ. eigenvalues --   -1.01220  -1.00922  -0.97737  -0.93820  -0.91816
 Alpha  occ. eigenvalues --   -0.90121  -0.88461  -0.87528  -0.85632  -0.84281
 Alpha  occ. eigenvalues --   -0.83313  -0.81404  -0.81195  -0.79518  -0.78705
 Alpha  occ. eigenvalues --   -0.77998  -0.74746  -0.74137  -0.73090  -0.72148
 Alpha  occ. eigenvalues --   -0.71525  -0.70379  -0.70211  -0.69639  -0.69507
 Alpha  occ. eigenvalues --   -0.68768  -0.68121  -0.67131  -0.66446  -0.65600
 Alpha  occ. eigenvalues --   -0.65515  -0.65014  -0.64623  -0.63020  -0.62541
 Alpha  occ. eigenvalues --   -0.61245  -0.60761  -0.59994  -0.59697  -0.58722
 Alpha  occ. eigenvalues --   -0.58241  -0.58074  -0.57750  -0.57464  -0.57300
 Alpha  occ. eigenvalues --   -0.56975  -0.56462  -0.55942  -0.55111  -0.54172
 Alpha  occ. eigenvalues --   -0.54013  -0.53589  -0.53105  -0.52986  -0.52703
 Alpha  occ. eigenvalues --   -0.51987  -0.51336  -0.51144  -0.50618  -0.50100
 Alpha  occ. eigenvalues --   -0.49738  -0.49255  -0.48900  -0.48165  -0.48084
 Alpha  occ. eigenvalues --   -0.47664  -0.47411  -0.47216  -0.47039  -0.46682
 Alpha  occ. eigenvalues --   -0.45972  -0.45861  -0.45757  -0.45248  -0.45155
 Alpha  occ. eigenvalues --   -0.45017  -0.44955  -0.43969  -0.43465  -0.43262
 Alpha  occ. eigenvalues --   -0.43064  -0.42940  -0.42508  -0.40945  -0.40726
 Alpha  occ. eigenvalues --   -0.40527  -0.40039  -0.39631  -0.37765  -0.37222
 Alpha  occ. eigenvalues --   -0.36713  -0.36050  -0.35395  -0.35081  -0.34627
 Alpha  occ. eigenvalues --   -0.33068  -0.32171  -0.32131  -0.29595  -0.29396
 Alpha  occ. eigenvalues --   -0.29012  -0.26120
 Alpha virt. eigenvalues --   -0.12314  -0.11606  -0.08889  -0.08189  -0.07886
 Alpha virt. eigenvalues --   -0.07774  -0.07596  -0.07014  -0.05324  -0.04436
 Alpha virt. eigenvalues --   -0.03621  -0.02456  -0.02241  -0.01878  -0.01675

 Mulliken charges:
               1
     1  N   -0.756075
     2  H    0.407100
     3  H    0.422187
     4  H    0.405584
     5  C   -0.125783
     6  H    0.229776
     7  C    0.651590
     8  C   -0.295475
     9  H    0.171928
    10  H    0.160867
    11  O   -0.601351
    12  C   -0.381889
    13  H    0.179070
    14  H    0.171067
    15  C    0.572180
    16  O   -0.507495
    17  O   -0.654724
    18  N   -0.636415
    19  H    0.459782
    20  C   -0.006768
    21  H    0.151556
    22  C    0.633041
    23  C   -0.417929
    24  H    0.135563
    25  H    0.199870
    26  O   -0.532844
    27  C    0.045934
    28  C    0.019538
    29  H    0.242348
    30  C    0.097106
    31  C    0.328400
    32  C   -0.331498
    33  H    0.153021
    34  N   -0.689764
    35  H    0.348580
    36  C   -0.177787
    37  H    0.148174
    38  C   -0.153571
    39  H    0.154677
    40  C   -0.165492
    41  H    0.144773
    42  N   -0.631309
    43  H    0.346151
    44  C   -0.089139
    45  H    0.185285
    46  C    0.637994
    47  C    0.155154
    48  H    0.129249
    49  O   -0.541213
    50  C   -0.463830
    51  H    0.154873
    52  H    0.179875
    53  H    0.154895
    54  O   -0.635223
    55  H    0.416154
    56  N   -0.601391
    57  H    0.347150
    58  C   -0.055925
    59  H    0.229853
    60  C    0.588283
    61  C   -0.296517
    62  H    0.149245
    63  H    0.162496
    64  O   -0.460682
    65  C   -0.279499
    66  H    0.173470
    67  H    0.182566
    68  C   -0.202473
    69  H    0.220621
    70  H    0.172628
    71  N   -0.595357
    72  H    0.382680
    73  N   -0.757961
    74  H    0.383029
    75  H    0.390612
    76  N   -0.766110
    77  H    0.386922
    78  H    0.374463
    79  C    0.800036
    80  O   -0.553317
    81  H    0.427414
 Sum of Mulliken charges =   1.00000

 Dipole moment (field-independent basis, Debye):
    X=              3.1842    Y=              4.2968    Z=            -12.0283  Tot=             13.1637
 Quadrupole moment (field-independent basis, Debye-Ang):
   XX=           -171.3547   YY=           -245.9503   ZZ=            -87.9853
   XY=             50.2840   XZ=            -48.3475   YZ=            -73.0504

 Normal termination of Gaussian 16 at Fri Jun 24 06:34:46 2022.
