 Gaussian 16, Revision C.01,
 Gaussian 16:  ES64L-G16RevC.01  3-Jul-2019

 ----------------------------------------------------------------------
 # B3LYP/6-31G* empiricaldispersion=gd3bj guess=read geom=check nosymm
 integral(ultrafinegrid)
 ----------------------------------------------------------------------

 ------------------------------------------------------
 Candidate Structure: Conf:472 Charge calc in gas phase
 ------------------------------------------------------
 Structure from the checkpoint file:  "conf-472.chk"
 Charge =  1 Multiplicity = 1

                          Input orientation:
 ---------------------------------------------------------------------
 Center     Atomic      Atomic             Coordinates (Angstroms)
 Number     Number       Type             X           Y           Z
 ---------------------------------------------------------------------
      1          7           0       -2.369656    4.753276    2.209323
      2          1           0       -3.030898    4.759692    1.414427
      3          1           0       -2.768374    4.116568    2.944400
      4          1           0       -2.218614    5.701920    2.558660
      5          6           0       -1.101655    4.046171    1.795187
      6          1           0       -0.983319    4.146272    0.718007
      7          6           0       -1.408032    2.579159    2.161047
      8          6           0        0.111214    4.635160    2.528137
      9          1           0        0.165543    5.706370    2.290304
     10          1           0       -0.040260    4.543969    3.611310
     11          8           0       -2.316323    2.353933    2.981068
     12          6           0        1.448994    3.971545    2.142098
     13          1           0        1.460775    2.930757    2.482868
     14          1           0        2.259258    4.502369    2.645907
     15          6           0        1.688849    3.983728    0.626796
     16          8           0        0.875270    3.339482   -0.101506
     17          8           0        2.657196    4.661094    0.184286
     18          7           0       -0.676585    1.678101    1.524136
     19          1           0        0.009894    2.031961    0.837578
     20          6           0       -0.979951    0.254628    1.538225
     21          1           0       -1.075539   -0.081686    2.577477
     22          6           0        0.244790   -0.441957    0.923256
     23          6           0       -2.323317   -0.007356    0.795103
     24          1           0       -3.122892    0.349032    1.449682
     25          1           0       -2.494589   -1.082268    0.678170
     26          8           0        1.339920    0.120554    0.884571
     27          6           0       -2.379041    0.729015   -0.511738
     28          6           0       -1.727886    0.428822   -1.684711
     29          1           0       -1.152763   -0.442482   -1.968014
     30          6           0       -2.999134    2.017548   -0.705554
     31          6           0       -2.656699    2.462313   -2.014122
     32          6           0       -3.839658    2.821077    0.084274
     33          1           0       -4.165462    2.475628    1.060996
     34          7           0       -1.880048    1.475293   -2.581520
     35          1           0       -1.597966    1.439560   -3.549442
     36          6           0       -3.881351    4.487987   -1.702484
     37          1           0       -4.240957    5.443049   -2.072359
     38          6           0       -3.081187    3.697034   -2.517627
     39          1           0       -2.807810    4.023152   -3.517052
     40          6           0       -4.271848    4.048626   -0.416913
     41          1           0       -4.983242    4.644990    0.151812
     42          7           0        0.048970   -1.695996    0.461618
     43          1           0       -0.876835   -2.090311    0.337418
     44          6           0        1.072133   -2.426878   -0.277985
     45          1           0        1.998310   -2.442077    0.304069
     46          6           0        1.305126   -1.718111   -1.622146
     47          6           0        0.546074   -3.861368   -0.510944
     48          1           0        1.215717   -4.347479   -1.234134
     49          8           0        0.555113   -1.909009   -2.590599
     50          6           0        0.498059   -4.681005    0.768955
     51          1           0        1.503911   -4.820637    1.177652
     52          1           0        0.065914   -5.662163    0.555961
     53          1           0       -0.119685   -4.191146    1.528260
     54          8           0       -0.775840   -3.780190   -1.036512
     55          1           0       -0.677149   -3.307021   -1.887597
     56          7           0        2.355969   -0.872429   -1.644440
     57          1           0        2.708899   -0.574598   -0.738987
     58          6           0        2.588964    0.016587   -2.769775
     59          1           0        2.168621   -0.459467   -3.656723
     60          6           0        4.091529    0.194723   -2.925906
     61          6           0        1.925866    1.387531   -2.515004
     62          1           0        2.433990    1.864779   -1.672068
     63          1           0        0.898874    1.211717   -2.183971
     64          8           0        4.857633    0.335134   -2.000641
     65          6           0        1.924978    2.306403   -3.740436
     66          1           0        2.903733    2.284247   -4.234763
     67          1           0        1.203328    1.942958   -4.483766
     68          6           0        1.565985    3.754081   -3.376811
     69          1           0        1.444195    4.368018   -4.279474
     70          1           0        0.621081    3.779705   -2.828288
     71          7           0        2.542285    4.369919   -2.487620
     72          1           0        2.360236    4.385957   -1.455021
     73          7           0        4.235563    4.739340   -4.070355
     74          1           0        4.973035    5.379332   -4.331794
     75          1           0        3.606563    4.484001   -4.817575
     76          7           0        4.500742    5.371609   -1.842845
     77          1           0        4.146148    5.277464   -0.889330
     78          1           0        5.502112    5.408551   -1.966365
     79          6           0        3.741526    4.815279   -2.808011
     80          8           0        4.469351    0.234616   -4.222589
     81          1           0        5.437579    0.366933   -4.227754
 ---------------------------------------------------------------------

 SCF Done:  E(RB3LYP) =  -2054.17042974     A.U. after    1 cycles

 Alpha  occ. eigenvalues --  -19.28864 -19.23173 -19.22868 -19.21441 -19.21269
 Alpha  occ. eigenvalues --  -19.21058 -19.18726 -19.18390 -14.56222 -14.49274
 Alpha  occ. eigenvalues --  -14.47153 -14.47098 -14.46658 -14.45232 -14.45181
 Alpha  occ. eigenvalues --  -14.44912 -10.44223 -10.40867 -10.39608 -10.38215
 Alpha  occ. eigenvalues --  -10.37872 -10.36479 -10.36024 -10.33246 -10.33055
 Alpha  occ. eigenvalues --  -10.32484 -10.31832 -10.31740 -10.31380 -10.31055
 Alpha  occ. eigenvalues --  -10.30507 -10.28997 -10.28664 -10.28475 -10.28436
 Alpha  occ. eigenvalues --  -10.28185 -10.28082 -10.27788 -10.27661 -10.27394
 Alpha  occ. eigenvalues --  -10.27269 -10.24562  -1.19604  -1.15535  -1.13588
 Alpha  occ. eigenvalues --   -1.13194  -1.12522  -1.11792  -1.10627  -1.10331
 Alpha  occ. eigenvalues --   -1.09144  -1.06921  -1.03335  -1.02532  -1.02179
 Alpha  occ. eigenvalues --   -1.01970  -1.01432  -1.01141  -0.93444  -0.91216
 Alpha  occ. eigenvalues --   -0.89986  -0.89403  -0.86802  -0.85198  -0.84099
 Alpha  occ. eigenvalues --   -0.83161  -0.81923  -0.80799  -0.79380  -0.77990
 Alpha  occ. eigenvalues --   -0.76411  -0.74899  -0.74077  -0.72239  -0.71658
 Alpha  occ. eigenvalues --   -0.70500  -0.70170  -0.69568  -0.68918  -0.68692
 Alpha  occ. eigenvalues --   -0.68197  -0.67646  -0.67002  -0.66929  -0.65942
 Alpha  occ. eigenvalues --   -0.64688  -0.63634  -0.62959  -0.62059  -0.61506
 Alpha  occ. eigenvalues --   -0.60843  -0.60177  -0.59714  -0.58761  -0.58291
 Alpha  occ. eigenvalues --   -0.58072  -0.57587  -0.57563  -0.57059  -0.56883
 Alpha  occ. eigenvalues --   -0.56659  -0.56583  -0.55523  -0.55149  -0.54754
 Alpha  occ. eigenvalues --   -0.54222  -0.53692  -0.53396  -0.52598  -0.52484
 Alpha  occ. eigenvalues --   -0.52285  -0.51591  -0.51464  -0.50771  -0.50627
 Alpha  occ. eigenvalues --   -0.50510  -0.50326  -0.50169  -0.50087  -0.49372
 Alpha  occ. eigenvalues --   -0.48895  -0.48535  -0.48133  -0.47932  -0.47563
 Alpha  occ. eigenvalues --   -0.47077  -0.46741  -0.46252  -0.45558  -0.45383
 Alpha  occ. eigenvalues --   -0.45045  -0.44673  -0.44373  -0.44170  -0.44008
 Alpha  occ. eigenvalues --   -0.43731  -0.43505  -0.42807  -0.42628  -0.41010
 Alpha  occ. eigenvalues --   -0.40594  -0.40101  -0.37729  -0.37075  -0.36952
 Alpha  occ. eigenvalues --   -0.36848  -0.36590  -0.35952  -0.35346  -0.34978
 Alpha  occ. eigenvalues --   -0.34293  -0.33889  -0.33349  -0.32806  -0.32712
 Alpha  occ. eigenvalues --   -0.31916  -0.29562
 Alpha virt. eigenvalues --   -0.10937  -0.09340  -0.08917  -0.08526  -0.08146
 Alpha virt. eigenvalues --   -0.07556  -0.06607  -0.06456  -0.05437  -0.03966
 Alpha virt. eigenvalues --   -0.03281  -0.02830  -0.01522  -0.01362  -0.00985

 Mulliken charges:
               1
     1  N   -0.762971
     2  H    0.400082
     3  H    0.415526
     4  H    0.397283
     5  C   -0.116557
     6  H    0.242800
     7  C    0.640805
     8  C   -0.301161
     9  H    0.163463
    10  H    0.171697
    11  O   -0.572209
    12  C   -0.363518
    13  H    0.190705
    14  H    0.175686
    15  C    0.632877
    16  O   -0.601106
    17  O   -0.618716
    18  N   -0.616988
    19  H    0.423177
    20  C   -0.030708
    21  H    0.204296
    22  C    0.620286
    23  C   -0.415612
    24  H    0.191079
    25  H    0.172762
    26  O   -0.537229
    27  C    0.066830
    28  C   -0.009712
    29  H    0.201380
    30  C    0.088082
    31  C    0.326215
    32  C   -0.250290
    33  H    0.161193
    34  N   -0.698211
    35  H    0.340057
    36  C   -0.149322
    37  H    0.146850
    38  C   -0.159154
    39  H    0.140506
    40  C   -0.206134
    41  H    0.143251
    42  N   -0.620588
    43  H    0.362057
    44  C   -0.066654
    45  H    0.176000
    46  C    0.635432
    47  C    0.099012
    48  H    0.150503
    49  O   -0.563506
    50  C   -0.450715
    51  H    0.155602
    52  H    0.181402
    53  H    0.153547
    54  O   -0.645601
    55  H    0.422305
    56  N   -0.581098
    57  H    0.377477
    58  C   -0.052194
    59  H    0.198127
    60  C    0.586055
    61  C   -0.284448
    62  H    0.187742
    63  H    0.178076
    64  O   -0.455418
    65  C   -0.290991
    66  H    0.153728
    67  H    0.147096
    68  C   -0.178407
    69  H    0.151943
    70  H    0.196882
    71  N   -0.607125
    72  H    0.436840
    73  N   -0.753741
    74  H    0.367941
    75  H    0.370710
    76  N   -0.774197
    77  H    0.419899
    78  H    0.358356
    79  C    0.752859
    80  O   -0.560865
    81  H    0.418671
 Sum of Mulliken charges =   1.00000

 Dipole moment (field-independent basis, Debye):
    X=              3.8522    Y=             19.7408    Z=             -6.4094  Tot=             21.1097
 Quadrupole moment (field-independent basis, Debye-Ang):
   XX=           -180.1135   YY=           -123.9227   ZZ=           -177.6064
   XY=              7.3876   XZ=            -51.2558   YZ=            -24.7453

 Normal termination of Gaussian 16 at Fri Jun 24 06:34:38 2022.
