 Gaussian 16, Revision C.01,
 Gaussian 16:  ES64L-G16RevC.01  3-Jul-2019

 ----------------------------------------------------------------------
 # B3LYP/6-31G* empiricaldispersion=gd3bj guess=read geom=check nosymm
 integral(ultrafinegrid)
 ----------------------------------------------------------------------

 ------------------------------------------------------
 Candidate Structure: Conf:669 Charge calc in gas phase
 ------------------------------------------------------
 Structure from the checkpoint file:  "conf-669.chk"
 Charge =  1 Multiplicity = 1

                          Input orientation:
 ---------------------------------------------------------------------
 Center     Atomic      Atomic             Coordinates (Angstroms)
 Number     Number       Type             X           Y           Z
 ---------------------------------------------------------------------
      1          7           0       -3.532225   -3.144627   -0.774351
      2          1           0       -3.740790   -3.345956    0.224931
      3          1           0       -4.398180   -2.740315   -1.199760
      4          1           0       -3.254720   -4.004498   -1.252741
      5          6           0       -2.525325   -2.028748   -0.915446
      6          1           0       -1.853937   -2.080532   -0.057523
      7          6           0       -3.405973   -0.767271   -0.852885
      8          6           0       -1.742532   -2.105199   -2.225919
      9          1           0       -2.432959   -2.335425   -3.046258
     10          1           0       -1.375032   -1.094015   -2.428846
     11          8           0       -4.558213   -0.830705   -1.293756
     12          6           0       -0.539025   -3.079594   -2.200829
     13          1           0       -0.624852   -3.865064   -2.953996
     14          1           0       -0.455991   -3.566898   -1.220524
     15          6           0        0.761431   -2.301697   -2.399211
     16          8           0        1.496734   -2.771091   -3.386805
     17          8           0        1.033117   -1.341786   -1.693783
     18          7           0       -2.786520    0.283615   -0.322202
     19          1           0       -1.816461    0.173007   -0.007342
     20          6           0       -3.360786    1.608953   -0.063907
     21          1           0       -4.103248    1.811480   -0.841985
     22          6           0       -2.135983    2.553042   -0.175407
     23          6           0       -4.013635    1.665404    1.337150
     24          1           0       -4.522728    2.628805    1.438861
     25          1           0       -3.216220    1.664569    2.086972
     26          8           0       -1.758920    3.258049    0.756267
     27          6           0       -4.954726    0.517929    1.553175
     28          6           0       -6.296172    0.487117    1.263364
     29          1           0       -6.949426    1.287908    0.945636
     30          6           0       -4.589903   -0.831892    1.909179
     31          6           0       -5.762798   -1.636391    1.779640
     32          6           0       -3.385158   -1.451506    2.280801
     33          1           0       -2.479210   -0.865196    2.404506
     34          7           0       -6.784381   -0.797552    1.399595
     35          1           0       -7.746666   -1.068524    1.266812
     36          6           0       -4.530404   -3.610371    2.325922
     37          1           0       -4.491531   -4.678540    2.519104
     38          6           0       -5.746899   -3.019140    1.981017
     39          1           0       -6.649038   -3.615657    1.879967
     40          6           0       -3.359652   -2.829825    2.482702
     41          1           0       -2.436144   -3.311952    2.790397
     42          7           0       -1.457989    2.367518   -1.336609
     43          1           0       -1.861387    1.706324   -2.000626
     44          6           0       -0.010979    2.327184   -1.427001
     45          1           0        0.407979    3.336927   -1.488891
     46          6           0        0.284693    1.552316   -2.726658
     47          6           0        0.708579    1.555682   -0.224535
     48          1           0        1.265447    0.720926   -0.649789
     49          8           0       -0.601458    0.901601   -3.292543
     50          6           0        1.643809    2.489379    0.532875
     51          1           0        2.417443    2.887590   -0.133621
     52          1           0        2.140713    1.951315    1.345308
     53          1           0        1.084518    3.336144    0.947661
     54          8           0       -0.217240    0.927213    0.670312
     55          1           0       -0.548526    1.629304    1.259955
     56          7           0        1.563086    1.586909   -3.131869
     57          1           0        2.259975    2.084780   -2.588641
     58          6           0        2.115520    0.659261   -4.109318
     59          1           0        1.345314   -0.076240   -4.339799
     60          6           0        3.365590   -0.018565   -3.528091
     61          6           0        2.524020    1.417294   -5.390578
     62          1           0        3.218282    2.215789   -5.104653
     63          1           0        1.624418    1.898740   -5.789168
     64          8           0        4.191926    0.778457   -3.000046
     65          6           0        3.145089    0.548669   -6.497067
     66          1           0        2.550293   -0.360910   -6.639274
     67          1           0        3.081912    1.101366   -7.445111
     68          6           0        4.600507    0.097958   -6.308572
     69          1           0        4.713673   -0.530708   -5.427311
     70          1           0        4.897233   -0.505795   -7.175466
     71          7           0        5.539062    1.228837   -6.210919
     72          1           0        5.527398    1.888009   -6.979441
     73          7           0        6.539042    0.745485   -4.159021
     74          1           0        7.385257    0.766756   -3.606607
     75          1           0        5.626947    0.585194   -3.641711
     76          7           0        7.581565    2.160792   -5.680630
     77          1           0        7.785973    2.361346   -6.648211
     78          1           0        8.237051    2.487924   -4.986977
     79          6           0        6.543189    1.366824   -5.331573
     80          8           0        3.540099   -1.242360   -3.759995
     81          1           0        2.334577   -2.175505   -3.504180
 ---------------------------------------------------------------------

 SCF Done:  E(RB3LYP) =  -2054.14044769     A.U. after    1 cycles

 Alpha  occ. eigenvalues --  -19.23874 -19.23096 -19.22854 -19.20228 -19.19762
 Alpha  occ. eigenvalues --  -19.19202 -19.17380 -19.17211 -14.56234 -14.48969
 Alpha  occ. eigenvalues --  -14.48478 -14.46685 -14.45822 -14.45663 -14.43501
 Alpha  occ. eigenvalues --  -14.42980 -10.44267 -10.39665 -10.37861 -10.37253
 Alpha  occ. eigenvalues --  -10.36675 -10.36429 -10.34928 -10.32462 -10.31767
 Alpha  occ. eigenvalues --  -10.31243 -10.31209 -10.31196 -10.30418 -10.29730
 Alpha  occ. eigenvalues --  -10.28919 -10.28679 -10.28403 -10.28310 -10.28109
 Alpha  occ. eigenvalues --  -10.27938 -10.27583 -10.27443 -10.27301 -10.26592
 Alpha  occ. eigenvalues --  -10.26216 -10.24972  -1.15298  -1.14964  -1.12843
 Alpha  occ. eigenvalues --   -1.12753  -1.11478  -1.10649  -1.10338  -1.10251
 Alpha  occ. eigenvalues --   -1.06654  -1.06246  -1.03617  -1.02362  -1.02197
 Alpha  occ. eigenvalues --   -1.00359  -1.00004  -0.99752  -0.93434  -0.91012
 Alpha  occ. eigenvalues --   -0.89025  -0.88126  -0.86297  -0.84806  -0.82943
 Alpha  occ. eigenvalues --   -0.82378  -0.82282  -0.80868  -0.78765  -0.76249
 Alpha  occ. eigenvalues --   -0.75079  -0.73990  -0.73364  -0.71455  -0.70322
 Alpha  occ. eigenvalues --   -0.70257  -0.69844  -0.68805  -0.68669  -0.68353
 Alpha  occ. eigenvalues --   -0.68205  -0.66863  -0.66060  -0.65834  -0.65228
 Alpha  occ. eigenvalues --   -0.65099  -0.63829  -0.62888  -0.62102  -0.61368
 Alpha  occ. eigenvalues --   -0.60431  -0.59675  -0.57893  -0.57785  -0.57389
 Alpha  occ. eigenvalues --   -0.56846  -0.56587  -0.56491  -0.55926  -0.55699
 Alpha  occ. eigenvalues --   -0.55488  -0.54794  -0.54425  -0.54150  -0.53968
 Alpha  occ. eigenvalues --   -0.52949  -0.52884  -0.52677  -0.52322  -0.52025
 Alpha  occ. eigenvalues --   -0.51612  -0.51416  -0.50804  -0.50115  -0.49881
 Alpha  occ. eigenvalues --   -0.49769  -0.49408  -0.49213  -0.48843  -0.48657
 Alpha  occ. eigenvalues --   -0.47703  -0.47140  -0.47056  -0.46629  -0.46465
 Alpha  occ. eigenvalues --   -0.46092  -0.45756  -0.45326  -0.44824  -0.44623
 Alpha  occ. eigenvalues --   -0.44385  -0.43808  -0.43678  -0.43421  -0.42981
 Alpha  occ. eigenvalues --   -0.42322  -0.42175  -0.41778  -0.41186  -0.40830
 Alpha  occ. eigenvalues --   -0.39344  -0.37614  -0.37149  -0.36659  -0.36500
 Alpha  occ. eigenvalues --   -0.36419  -0.36362  -0.34779  -0.34158  -0.33743
 Alpha  occ. eigenvalues --   -0.33568  -0.32804  -0.32637  -0.31815  -0.31714
 Alpha  occ. eigenvalues --   -0.30172  -0.28987
 Alpha virt. eigenvalues --   -0.10761  -0.09210  -0.09081  -0.07726  -0.07204
 Alpha virt. eigenvalues --   -0.06577  -0.05492  -0.05401  -0.04541  -0.03209
 Alpha virt. eigenvalues --   -0.02506  -0.01282  -0.01032  -0.00601  -0.00197

 Mulliken charges:
               1
     1  N   -0.764516
     2  H    0.417958
     3  H    0.414235
     4  H    0.400868
     5  C   -0.118472
     6  H    0.209122
     7  C    0.661640
     8  C   -0.327031
     9  H    0.167406
    10  H    0.253993
    11  O   -0.549588
    12  C   -0.357045
    13  H    0.181837
    14  H    0.162617
    15  C    0.586404
    16  O   -0.597152
    17  O   -0.494691
    18  N   -0.644714
    19  H    0.404255
    20  C   -0.059275
    21  H    0.195491
    22  C    0.569757
    23  C   -0.345846
    24  H    0.178003
    25  H    0.166747
    26  O   -0.524484
    27  C    0.069049
    28  C    0.034529
    29  H    0.174544
    30  C    0.065107
    31  C    0.333476
    32  C   -0.220465
    33  H    0.148683
    34  N   -0.683133
    35  H    0.343582
    36  C   -0.215257
    37  H    0.152355
    38  C   -0.170891
    39  H    0.151275
    40  C   -0.187822
    41  H    0.150043
    42  N   -0.592168
    43  H    0.361848
    44  C   -0.056856
    45  H    0.179585
    46  C    0.615243
    47  C    0.105050
    48  H    0.219660
    49  O   -0.552792
    50  C   -0.492668
    51  H    0.152734
    52  H    0.174711
    53  H    0.179454
    54  O   -0.653481
    55  H    0.423333
    56  N   -0.593803
    57  H    0.346147
    58  C   -0.035071
    59  H    0.172039
    60  C    0.644933
    61  C   -0.271416
    62  H    0.141999
    63  H    0.162475
    64  O   -0.619822
    65  C   -0.290080
    66  H    0.174511
    67  H    0.140218
    68  C   -0.177989
    69  H    0.239384
    70  H    0.171472
    71  N   -0.592069
    72  H    0.345206
    73  N   -0.759590
    74  H    0.351631
    75  H    0.441473
    76  N   -0.762749
    77  H    0.367820
    78  H    0.371169
    79  C    0.776096
    80  O   -0.610278
    81  H    0.470046
 Sum of Mulliken charges =   1.00000

 Dipole moment (field-independent basis, Debye):
    X=              2.9226    Y=             -1.8239    Z=            -13.8977  Tot=             14.3183
 Quadrupole moment (field-independent basis, Debye-Ang):
   XX=            -35.9236   YY=           -197.6606   ZZ=           -146.4384
   XY=             80.5372   XZ=           -104.7624   YZ=            -34.5476

 Normal termination of Gaussian 16 at Fri Jun 24 06:34:31 2022.
