 Gaussian 16, Revision C.01,
 Gaussian 16:  ES64L-G16RevC.01  3-Jul-2019

 ----------------------------------------------------------------------
 # B3LYP/6-31G* empiricaldispersion=gd3 guess=read geom=check nosymm in
 tegral(ultrafinegrid)
 ----------------------------------------------------------------------

 ------------------------------------------------------
 Candidate Structure: Conf:684 Charge calc in gas phase
 ------------------------------------------------------
 Structure from the checkpoint file:  "conf-684.chk"
 Charge =  1 Multiplicity = 1

                          Input orientation:
 ---------------------------------------------------------------------
 Center     Atomic      Atomic             Coordinates (Angstroms)
 Number     Number       Type             X           Y           Z
 ---------------------------------------------------------------------
      1          7           0        1.389435    0.887326    1.982307
      2          1           0        1.111963   -0.049201    1.618861
      3          1           0        0.797306    1.066581    2.808454
      4          1           0        2.377715    0.878814    2.245058
      5          6           0        1.061882    1.925728    0.940635
      6          1           0        1.475348    1.599855   -0.016345
      7          1           0        1.500465    2.876011    1.253525
      8          6           0       -0.467398    1.999837    1.003390
      9          8           0       -0.986223    2.025595    2.127748
     10          7           0       -1.143614    1.938662   -0.148304
     11          1           0       -0.666389    1.836125   -1.041154
     12          6           0       -2.582795    1.664761   -0.166732
     13          1           0       -2.936502    1.808899   -1.185390
     14          1           0       -3.099594    2.344261    0.515052
     15          6           0       -2.776095    0.194570    0.235662
     16          8           0       -2.802425   -0.727747   -0.594533
     17          7           0       -2.823699   -0.030625    1.566002
     18          1           0       -2.574513    0.750641    2.166293
     19          6           0       -2.654737   -1.374890    2.107460
     20          1           0       -3.376644   -2.046778    1.637868
     21          1           0       -2.845319   -1.340925    3.180974
     22          6           0       -1.206256   -1.842513    1.890652
     23          8           0       -0.281738   -1.452859    2.604625
     24          7           0       -1.041449   -2.697011    0.843254
     25          1           0       -1.779056   -2.701556    0.147430
     26          6           0        0.274210   -3.132890    0.439790
     27          1           0        0.183828   -4.014524   -0.201685
     28          1           0        0.831129   -3.425460    1.337815
     29          6           0        1.070248   -2.019838   -0.247346
     30          8           0        0.804269   -0.827938   -0.062030
     31          7           0        2.111220   -2.388946   -1.028811
     32          1           0        2.348150   -3.367903   -1.126327
     33          6           0        3.027552   -1.370728   -1.548703
     34          1           0        3.543418   -0.857021   -0.733146
     35          1           0        3.768902   -1.869819   -2.178334
     36          6           0        2.276960   -0.290579   -2.350632
     37          8           0        2.348993    0.896903   -2.060232
     38          7           0        1.555305   -0.770130   -3.402681
     39          1           0        1.386788   -1.767215   -3.436711
     40          6           0        0.559543    0.077475   -4.041839
     41          1           0        0.267551   -0.371335   -4.995648
     42          1           0        0.984248    1.064026   -4.222593
     43          6           0       -0.668250    0.241917   -3.150576
     44          8           0       -1.152064    1.327010   -2.875925
     45          8           0       -1.117700   -0.923373   -2.687672
     46          1           0       -1.859353   -0.760497   -2.038193
 ---------------------------------------------------------------------

 SCF Done:  E(RB3LYP) =  -1324.96987954     A.U. after    1 cycles

 Alpha  occ. eigenvalues --  -19.29230 -19.26809 -19.25903 -19.25463 -19.24800
 Alpha  occ. eigenvalues --  -19.24442 -19.23726 -14.58412 -14.51494 -14.49684
 Alpha  occ. eigenvalues --  -14.48873 -14.48667 -14.48155 -10.43795 -10.43154
 Alpha  occ. eigenvalues --  -10.43008 -10.41939 -10.41533 -10.41143 -10.38418
 Alpha  occ. eigenvalues --  -10.36723 -10.36365 -10.34902 -10.34816 -10.34054
 Alpha  occ. eigenvalues --   -1.20849  -1.19025  -1.18292  -1.16780  -1.15826
 Alpha  occ. eigenvalues --   -1.15439  -1.12645  -1.11970  -1.07156  -1.06001
 Alpha  occ. eigenvalues --   -1.05338  -1.04820  -1.04225  -0.90276  -0.89299
 Alpha  occ. eigenvalues --   -0.87056  -0.85252  -0.83187  -0.81182  -0.74906
 Alpha  occ. eigenvalues --   -0.73636  -0.72911  -0.72311  -0.71626  -0.71227
 Alpha  occ. eigenvalues --   -0.70457  -0.69879  -0.67340  -0.65971  -0.65288
 Alpha  occ. eigenvalues --   -0.64312  -0.63131  -0.62092  -0.61883  -0.60778
 Alpha  occ. eigenvalues --   -0.60188  -0.59609  -0.59149  -0.58928  -0.58270
 Alpha  occ. eigenvalues --   -0.58124  -0.57022  -0.56174  -0.55302  -0.55031
 Alpha  occ. eigenvalues --   -0.54490  -0.53636  -0.53388  -0.52336  -0.51918
 Alpha  occ. eigenvalues --   -0.51657  -0.50959  -0.50582  -0.50424  -0.50222
 Alpha  occ. eigenvalues --   -0.49669  -0.49405  -0.48149  -0.42634  -0.42222
 Alpha  occ. eigenvalues --   -0.41442  -0.41193  -0.40742  -0.40423  -0.39871
 Alpha  occ. eigenvalues --   -0.38475  -0.37978  -0.37358  -0.36351  -0.36201
 Alpha virt. eigenvalues --   -0.13462  -0.13141  -0.11594  -0.11124  -0.10447
 Alpha virt. eigenvalues --   -0.10071  -0.08014  -0.05558  -0.02809  -0.02220
 Alpha virt. eigenvalues --   -0.01470  -0.00712   0.00187   0.00419   0.00812

 Mulliken charges:
               1
     1  N   -0.759141
     2  H    0.459989
     3  H    0.422795
     4  H    0.404562
     5  C   -0.292417
     6  H    0.272431
     7  H    0.233230
     8  C    0.633461
     9  O   -0.542611
    10  N   -0.585936
    11  H    0.396804
    12  C   -0.245105
    13  H    0.229026
    14  H    0.210189
    15  C    0.608563
    16  O   -0.558332
    17  N   -0.556538
    18  H    0.385522
    19  C   -0.238086
    20  H    0.201639
    21  H    0.209363
    22  C    0.606601
    23  O   -0.549479
    24  N   -0.550813
    25  H    0.368420
    26  C   -0.259241
    27  H    0.192410
    28  H    0.224667
    29  C    0.641704
    30  O   -0.560706
    31  N   -0.595178
    32  H    0.358984
    33  C   -0.232929
    34  H    0.188813
    35  H    0.204132
    36  C    0.624850
    37  O   -0.514175
    38  N   -0.554728
    39  H    0.341874
    40  C   -0.228124
    41  H    0.205292
    42  H    0.226212
    43  C    0.595811
    44  O   -0.489940
    45  O   -0.593187
    46  H    0.459324
 Sum of Mulliken charges =   1.00000

 Dipole moment (field-independent basis, Debye):
    X=              4.3007    Y=             -5.0503    Z=              0.9054  Tot=              6.6948
 Quadrupole moment (field-independent basis, Debye-Ang):
   XX=           -111.5914   YY=           -111.6665   ZZ=           -117.7514
   XY=             -8.5289   XZ=             -2.8555   YZ=             14.8291

 Normal termination of Gaussian 16 at Thu Jun 30 18:39:52 2022.
