 Gaussian 16, Revision C.01,
 Gaussian 16:  ES64L-G16RevC.01  3-Jul-2019

 ----------------------------------------------------------------------
 # B3LYP/6-31G* empiricaldispersion=gd3 guess=read geom=check nosymm in
 tegral(ultrafinegrid)
 ----------------------------------------------------------------------

 -----------------------------------------------------
 Candidate Structure: Conf:34 Charge calc in gas phase
 -----------------------------------------------------
 Structure from the checkpoint file:  "conf-34.chk"
 Charge =  1 Multiplicity = 1

                          Input orientation:
 ---------------------------------------------------------------------
 Center     Atomic      Atomic             Coordinates (Angstroms)
 Number     Number       Type             X           Y           Z
 ---------------------------------------------------------------------
      1          7           0       -0.475534    1.945773   -0.967107
      2          1           0       -0.096888    1.453676   -0.125278
      3          1           0       -0.022615    2.861734   -1.025160
      4          1           0       -0.221215    1.385738   -1.815968
      5          6           0       -1.972707    2.070579   -0.848834
      6          1           0       -2.326061    2.773118   -1.602195
      7          1           0       -2.193186    2.444083    0.154274
      8          6           0       -2.661462    0.721311   -1.123918
      9          8           0       -3.422831    0.602483   -2.077447
     10          7           0       -2.362538   -0.279946   -0.258377
     11          1           0       -1.635784   -0.136123    0.444422
     12          6           0       -2.807176   -1.648232   -0.530673
     13          1           0       -3.837194   -1.623319   -0.893288
     14          1           0       -2.752321   -2.232969    0.387678
     15          6           0       -1.832992   -2.231351   -1.557589
     16          8           0       -0.810212   -2.831358   -1.212808
     17          7           0       -2.092103   -1.906712   -2.852492
     18          1           0       -2.814776   -1.206705   -3.005514
     19          6           0       -0.982930   -1.926090   -3.797746
     20          1           0       -1.352330   -1.620556   -4.779061
     21          1           0       -0.574327   -2.936628   -3.871079
     22          6           0        0.057882   -0.911666   -3.312205
     23          8           0       -0.291832    0.251471   -3.065747
     24          7           0        1.316554   -1.339956   -3.094256
     25          1           0        1.533370   -2.319070   -3.225765
     26          6           0        2.277593   -0.471577   -2.432810
     27          1           0        2.287884    0.507869   -2.913930
     28          1           0        3.276131   -0.906171   -2.534450
     29          6           0        2.015005   -0.249077   -0.932023
     30          8           0        2.444803    0.755970   -0.369367
     31          7           0        1.343108   -1.227416   -0.275127
     32          1           0        0.833669   -1.953145   -0.774516
     33          6           0        1.315655   -1.272629    1.172362
     34          1           0        0.625532   -2.073490    1.457477
     35          1           0        2.307509   -1.527225    1.564916
     36          6           0        0.815659    0.016659    1.822507
     37          8           0       -0.179285    0.640369    1.386408
     38          7           0        1.440381    0.395938    2.933564
     39          1           0        2.272527   -0.082165    3.269027
     40          6           0        1.046831    1.562326    3.701400
     41          1           0        0.008446    1.480402    4.039858
     42          1           0        1.119707    2.474634    3.098045
     43          6           0        1.976546    1.672503    4.899117
     44          8           0        2.891052    0.907475    5.111831
     45          8           0        1.646974    2.718792    5.664348
     46          1           0        2.270741    2.752670    6.415592
 ---------------------------------------------------------------------

 SCF Done:  E(RB3LYP) =  -1324.96750145     A.U. after    3 cycles

 Alpha  occ. eigenvalues --  -19.31175 -19.26620 -19.26438 -19.25953 -19.24652
 Alpha  occ. eigenvalues --  -19.24507 -19.24334 -14.56480 -14.50806 -14.50323
 Alpha  occ. eigenvalues --  -14.48696 -14.48470 -14.48149 -10.44258 -10.43554
 Alpha  occ. eigenvalues --  -10.43190 -10.42188 -10.41596 -10.41349 -10.38128
 Alpha  occ. eigenvalues --  -10.36340 -10.36047 -10.36012 -10.35647 -10.34846
 Alpha  occ. eigenvalues --   -1.22381  -1.18515  -1.18092  -1.16766  -1.16032
 Alpha  occ. eigenvalues --   -1.15919  -1.13725  -1.11581  -1.06920  -1.06512
 Alpha  occ. eigenvalues --   -1.05149  -1.04641  -1.04230  -0.90181  -0.89285
 Alpha  occ. eigenvalues --   -0.87826  -0.85402  -0.83468  -0.81457  -0.75285
 Alpha  occ. eigenvalues --   -0.73914  -0.73030  -0.72478  -0.71237  -0.70732
 Alpha  occ. eigenvalues --   -0.70425  -0.69796  -0.67131  -0.65846  -0.65350
 Alpha  occ. eigenvalues --   -0.64442  -0.63202  -0.62353  -0.61864  -0.61145
 Alpha  occ. eigenvalues --   -0.60838  -0.60016  -0.59589  -0.58821  -0.58524
 Alpha  occ. eigenvalues --   -0.57318  -0.57081  -0.56494  -0.55705  -0.55508
 Alpha  occ. eigenvalues --   -0.54594  -0.53942  -0.53528  -0.53189  -0.52930
 Alpha  occ. eigenvalues --   -0.51803  -0.51466  -0.50663  -0.50494  -0.50343
 Alpha  occ. eigenvalues --   -0.50044  -0.49249  -0.48241  -0.43437  -0.42080
 Alpha  occ. eigenvalues --   -0.41719  -0.41101  -0.40261  -0.40206  -0.39729
 Alpha  occ. eigenvalues --   -0.38793  -0.38495  -0.37937  -0.37343  -0.36421
 Alpha virt. eigenvalues --   -0.12986  -0.12666  -0.12412  -0.10898  -0.10574
 Alpha virt. eigenvalues --   -0.10361  -0.06246  -0.04571  -0.03036  -0.02438
 Alpha virt. eigenvalues --   -0.01234  -0.00666  -0.00018   0.00512   0.00856

 Mulliken charges:
               1
     1  N   -0.810250
     2  H    0.451821
     3  H    0.402778
     4  H    0.450527
     5  C   -0.266811
     6  H    0.237015
     7  H    0.227085
     8  C    0.604582
     9  O   -0.498749
    10  N   -0.604540
    11  H    0.384074
    12  C   -0.237304
    13  H    0.214625
    14  H    0.197476
    15  C    0.596542
    16  O   -0.546132
    17  N   -0.551731
    18  H    0.384861
    19  C   -0.231790
    20  H    0.216304
    21  H    0.196258
    22  C    0.618084
    23  O   -0.559349
    24  N   -0.574145
    25  H    0.364692
    26  C   -0.233238
    27  H    0.211735
    28  H    0.216047
    29  C    0.580196
    30  O   -0.529506
    31  N   -0.614402
    32  H    0.401630
    33  C   -0.230591
    34  H    0.211551
    35  H    0.193234
    36  C    0.671824
    37  O   -0.608202
    38  N   -0.584506
    39  H    0.379232
    40  C   -0.190365
    41  H    0.221537
    42  H    0.213441
    43  C    0.579199
    44  O   -0.444265
    45  O   -0.549226
    46  H    0.438753
 Sum of Mulliken charges =   1.00000

 Dipole moment (field-independent basis, Debye):
    X=              1.2405    Y=              1.2632    Z=             -0.3415  Tot=              1.8031
 Quadrupole moment (field-independent basis, Debye-Ang):
   XX=           -132.9959   YY=           -113.6379   ZZ=            -87.5256
   XY=             -1.2168   XZ=              1.1321   YZ=             21.6397

 Normal termination of Gaussian 16 at Thu Jun 30 18:40:15 2022.
