 Gaussian 16, Revision C.01,
 Gaussian 16:  ES64L-G16RevC.01  3-Jul-2019

 ----------------------------------------------------------------------
 # B3LYP/6-31G* empiricaldispersion=gd3 guess=read geom=check nosymm in
 tegral(ultrafinegrid)
 ----------------------------------------------------------------------

 ------------------------------------------------------
 Candidate Structure: Conf:669 Charge calc in gas phase
 ------------------------------------------------------
 Structure from the checkpoint file:  "conf-669.chk"
 Charge =  1 Multiplicity = 1

                          Input orientation:
 ---------------------------------------------------------------------
 Center     Atomic      Atomic             Coordinates (Angstroms)
 Number     Number       Type             X           Y           Z
 ---------------------------------------------------------------------
      1          7           0       -5.311567    3.240412    0.092554
      2          1           0       -6.023468    2.999453    0.787806
      3          1           0       -4.969086    2.357545   -0.408633
      4          1           0       -5.729202    3.881057   -0.588639
      5          6           0       -4.029134    3.754229    0.690331
      6          1           0       -4.104396    3.743064    1.779576
      7          1           0       -3.845359    4.775281    0.351464
      8          6           0       -2.957697    2.755759    0.176255
      9          8           0       -3.364858    1.804516   -0.507103
     10          7           0       -1.691698    2.999003    0.492759
     11          1           0       -1.470467    3.760632    1.123291
     12          6           0       -0.597179    2.093763    0.096665
     13          1           0        0.326771    2.664454    0.038984
     14          1           0       -0.815558    1.684678   -0.888892
     15          6           0       -0.413774    0.982112    1.143277
     16          8           0        0.468403    1.040341    1.989566
     17          7           0       -1.367837    0.006892    1.095973
     18          1           0       -1.908669   -0.088633    0.242358
     19          6           0       -1.219080   -1.222414    1.863856
     20          1           0       -2.164333   -1.475550    2.357681
     21          1           0       -0.458713   -1.051972    2.628181
     22          6           0       -0.864772   -2.347419    0.887462
     23          8           0       -1.482560   -2.439106   -0.176664
     24          7           0        0.138804   -3.182940    1.243262
     25          1           0        0.710995   -2.944711    2.042950
     26          6           0        0.685065   -4.162375    0.296933
     27          1           0       -0.149045   -4.628053   -0.233109
     28          1           0        1.243390   -4.918581    0.848421
     29          6           0        1.647108   -3.434738   -0.656229
     30          8           0        2.861684   -3.452332   -0.488327
     31          7           0        1.024471   -2.702816   -1.623963
     32          1           0        0.015525   -2.601976   -1.552113
     33          6           0        1.763032   -1.670205   -2.342109
     34          1           0        2.718948   -2.086945   -2.667955
     35          1           0        1.184279   -1.362920   -3.214209
     36          6           0        1.957825   -0.441732   -1.440986
     37          8           0        1.136349    0.482244   -1.420446
     38          7           0        3.051222   -0.474758   -0.652674
     39          1           0        3.616157   -1.319506   -0.597380
     40          6           0        3.341730    0.593263    0.281285
     41          1           0        2.522520    0.746619    0.994585
     42          1           0        3.477368    1.545150   -0.246369
     43          6           0        4.605734    0.264181    1.046092
     44          8           0        5.218700   -0.775648    0.960787
     45          8           0        4.956302    1.286186    1.852258
     46          1           0        5.767726    1.012912    2.321025
 ---------------------------------------------------------------------

 SCF Done:  E(RB3LYP) =  -1324.90838314     A.U. after    2 cycles

 Alpha  occ. eigenvalues --  -19.30266 -19.26882 -19.22177 -19.21838 -19.21400
 Alpha  occ. eigenvalues --  -19.19409 -19.19218 -14.63641 -14.53268 -14.46801
 Alpha  occ. eigenvalues --  -14.46406 -14.43455 -14.43244 -10.47073 -10.44175
 Alpha  occ. eigenvalues --  -10.39625 -10.39608 -10.39071 -10.36467 -10.36176
 Alpha  occ. eigenvalues --  -10.34535 -10.32973 -10.31403 -10.30384 -10.30031
 Alpha  occ. eigenvalues --   -1.22710  -1.17893  -1.17235  -1.14381  -1.13594
 Alpha  occ. eigenvalues --   -1.11422  -1.10536  -1.09221  -1.09065  -1.02586
 Alpha  occ. eigenvalues --   -1.02404  -0.99954  -0.99348  -0.93312  -0.86908
 Alpha  occ. eigenvalues --   -0.84549  -0.83091  -0.80488  -0.77650  -0.77477
 Alpha  occ. eigenvalues --   -0.77320  -0.75099  -0.70173  -0.69575  -0.68753
 Alpha  occ. eigenvalues --   -0.68165  -0.66176  -0.65923  -0.65347  -0.64519
 Alpha  occ. eigenvalues --   -0.63574  -0.61920  -0.60930  -0.60465  -0.58393
 Alpha  occ. eigenvalues --   -0.57952  -0.56956  -0.56234  -0.56114  -0.55842
 Alpha  occ. eigenvalues --   -0.55165  -0.54544  -0.53836  -0.53564  -0.53206
 Alpha  occ. eigenvalues --   -0.51675  -0.51352  -0.49859  -0.49739  -0.49243
 Alpha  occ. eigenvalues --   -0.48370  -0.48094  -0.47576  -0.46892  -0.46365
 Alpha  occ. eigenvalues --   -0.45725  -0.45268  -0.45102  -0.43992  -0.42984
 Alpha  occ. eigenvalues --   -0.39117  -0.37241  -0.37162  -0.36041  -0.35631
 Alpha  occ. eigenvalues --   -0.34935  -0.34623  -0.33075  -0.32498  -0.31453
 Alpha virt. eigenvalues --   -0.15467  -0.14592  -0.10048  -0.09195  -0.08626
 Alpha virt. eigenvalues --   -0.07667  -0.06173  -0.05910  -0.04754  -0.04431
 Alpha virt. eigenvalues --   -0.03522  -0.02466  -0.00992   0.00897   0.01133

 Mulliken charges:
               1
     1  N   -0.749135
     2  H    0.427170
     3  H    0.443747
     4  H    0.428089
     5  C   -0.279004
     6  H    0.252090
     7  H    0.251097
     8  C    0.644856
     9  O   -0.525415
    10  N   -0.578707
    11  H    0.366293
    12  C   -0.245329
    13  H    0.215740
    14  H    0.240151
    15  C    0.611735
    16  O   -0.498594
    17  N   -0.583339
    18  H    0.361700
    19  C   -0.236880
    20  H    0.190655
    21  H    0.199155
    22  C    0.619218
    23  O   -0.537662
    24  N   -0.577143
    25  H    0.354122
    26  C   -0.240334
    27  H    0.204800
    28  H    0.200556
    29  C    0.583623
    30  O   -0.503123
    31  N   -0.581035
    32  H    0.371394
    33  C   -0.227135
    34  H    0.197476
    35  H    0.182221
    36  C    0.590566
    37  O   -0.558685
    38  N   -0.597146
    39  H    0.388358
    40  C   -0.212856
    41  H    0.230712
    42  H    0.194877
    43  C    0.564523
    44  O   -0.444807
    45  O   -0.562340
    46  H    0.423743
 Sum of Mulliken charges =   1.00000

 Dipole moment (field-independent basis, Debye):
    X=            -19.1902    Y=             14.3634    Z=              4.0698  Tot=             24.3133
 Quadrupole moment (field-independent basis, Debye-Ang):
   XX=            -34.0621   YY=            -72.6341   ZZ=           -129.7744
   XY=            -64.1521   XZ=             -6.0575   YZ=              2.2790

 Normal termination of Gaussian 16 at Thu Jun 30 18:39:55 2022.
