 Gaussian 16, Revision C.01,
 Gaussian 16:  ES64L-G16RevC.01  3-Jul-2019

 ----------------------------------------------------------------------
 # B3LYP/6-31G* empiricaldispersion=gd3 guess=read geom=check nosymm in
 tegral(ultrafinegrid)
 ----------------------------------------------------------------------

 ------------------------------------------------------
 Candidate Structure: Conf:472 Charge calc in gas phase
 ------------------------------------------------------
 Structure from the checkpoint file:  "conf-472.chk"
 Charge =  1 Multiplicity = 1

                          Input orientation:
 ---------------------------------------------------------------------
 Center     Atomic      Atomic             Coordinates (Angstroms)
 Number     Number       Type             X           Y           Z
 ---------------------------------------------------------------------
      1          7           0       -4.198424    2.474291    0.227655
      2          1           0       -4.184754    2.641576    1.236709
      3          1           0       -3.555569    1.669018   -0.040869
      4          1           0       -5.147498    2.227388   -0.088857
      5          6           0       -3.753478    3.657241   -0.580239
      6          1           0       -2.690717    3.815546   -0.392062
      7          1           0       -4.328087    4.536947   -0.279476
      8          6           0       -4.074041    3.245519   -2.025198
      9          8           0       -5.090805    2.573714   -2.211920
     10          7           0       -3.196924    3.598150   -2.981756
     11          1           0       -2.307681    3.990819   -2.695536
     12          6           0       -3.185787    2.872217   -4.263862
     13          1           0       -2.600419    3.437572   -4.987967
     14          1           0       -4.213347    2.764628   -4.614737
     15          6           0       -2.486478    1.535574   -3.964089
     16          8           0       -1.273614    1.413592   -4.044045
     17          7           0       -3.300073    0.564306   -3.448110
     18          1           0       -4.258835    0.809875   -3.235425
     19          6           0       -2.688508   -0.527973   -2.721546
     20          1           0       -2.014962   -1.079815   -3.382726
     21          1           0       -3.476548   -1.213110   -2.393376
     22          6           0       -1.921541   -0.034705   -1.482780
     23          8           0       -2.328903    0.919578   -0.780614
     24          7           0       -0.812993   -0.700391   -1.183460
     25          1           0       -0.421912   -1.417122   -1.796314
     26          6           0        0.035394   -0.397272   -0.048867
     27          1           0       -0.505278   -0.548638    0.893128
     28          1           0        0.358314    0.650190   -0.080560
     29          6           0        1.247886   -1.342194   -0.137762
     30          8           0        1.345863   -2.146717   -1.063193
     31          7           0        2.149969   -1.208615    0.847049
     32          1           0        2.054995   -0.532493    1.600923
     33          6           0        3.358231   -2.002683    0.909093
     34          1           0        3.120254   -3.067842    1.030670
     35          1           0        3.935452   -1.904476   -0.018323
     36          6           0        4.167427   -1.507435    2.113308
     37          8           0        3.727240   -0.634685    2.855743
     38          7           0        5.387809   -2.084489    2.265293
     39          1           0        5.596191   -2.908014    1.715479
     40          6           0        6.165099   -1.873610    3.470687
     41          1           0        5.966445   -0.865287    3.839617
     42          1           0        7.233615   -1.938040    3.244158
     43          6           0        5.875455   -2.841915    4.615001
     44          8           0        6.401827   -2.760648    5.697007
     45          8           0        4.983799   -3.802202    4.273279
     46          1           0        4.872655   -4.366825    5.062096
 ---------------------------------------------------------------------

 SCF Done:  E(RB3LYP) =  -1324.92505180     A.U. after    1 cycles

 Alpha  occ. eigenvalues --  -19.27576 -19.27304 -19.25764 -19.23061 -19.21983
 Alpha  occ. eigenvalues --  -19.21369 -19.21022 -14.59694 -14.51611 -14.48632
 Alpha  occ. eigenvalues --  -14.47457 -14.45883 -14.45539 -10.44992 -10.42221
 Alpha  occ. eigenvalues --  -10.41131 -10.40242 -10.39518 -10.39346 -10.38547
 Alpha  occ. eigenvalues --  -10.35393 -10.35017 -10.34453 -10.32505 -10.31577
 Alpha  occ. eigenvalues --   -1.20059  -1.17919  -1.16893  -1.15141  -1.14203
 Alpha  occ. eigenvalues --   -1.13919  -1.13130  -1.08969  -1.07572  -1.04902
 Alpha  occ. eigenvalues --   -1.03800  -1.02422  -1.01819  -0.90974  -0.88142
 Alpha  occ. eigenvalues --   -0.85941  -0.84362  -0.81869  -0.79209  -0.75091
 Alpha  occ. eigenvalues --   -0.74089  -0.73753  -0.71295  -0.70129  -0.69907
 Alpha  occ. eigenvalues --   -0.69022  -0.67697  -0.67089  -0.65993  -0.64112
 Alpha  occ. eigenvalues --   -0.63616  -0.62006  -0.61182  -0.60524  -0.59686
 Alpha  occ. eigenvalues --   -0.58698  -0.58309  -0.57646  -0.56951  -0.56645
 Alpha  occ. eigenvalues --   -0.55878  -0.55311  -0.55106  -0.54399  -0.54238
 Alpha  occ. eigenvalues --   -0.53054  -0.52858  -0.52248  -0.52005  -0.51343
 Alpha  occ. eigenvalues --   -0.49929  -0.49691  -0.48789  -0.48523  -0.47792
 Alpha  occ. eigenvalues --   -0.46865  -0.46765  -0.45212  -0.42398  -0.41466
 Alpha  occ. eigenvalues --   -0.40501  -0.39061  -0.38991  -0.37619  -0.37361
 Alpha  occ. eigenvalues --   -0.36559  -0.36066  -0.35424  -0.35183  -0.33152
 Alpha virt. eigenvalues --   -0.14740  -0.11348  -0.09846  -0.09006  -0.07662
 Alpha virt. eigenvalues --   -0.06599  -0.06119  -0.05891  -0.03715  -0.02456
 Alpha virt. eigenvalues --   -0.01237  -0.01067  -0.00579  -0.00086   0.00013

 Mulliken charges:
               1
     1  N   -0.746523
     2  H    0.409504
     3  H    0.447569
     4  H    0.416626
     5  C   -0.271540
     6  H    0.226408
     7  H    0.245631
     8  C    0.641758
     9  O   -0.525783
    10  N   -0.566314
    11  H    0.361585
    12  C   -0.249744
    13  H    0.216201
    14  H    0.215872
    15  C    0.587744
    16  O   -0.489194
    17  N   -0.567278
    18  H    0.362050
    19  C   -0.244510
    20  H    0.211522
    21  H    0.199462
    22  C    0.657870
    23  O   -0.625944
    24  N   -0.580064
    25  H    0.382639
    26  C   -0.204106
    27  H    0.191414
    28  H    0.198168
    29  C    0.616782
    30  O   -0.521138
    31  N   -0.623944
    32  H    0.361584
    33  C   -0.199944
    34  H    0.202362
    35  H    0.203839
    36  C    0.606354
    37  O   -0.517205
    38  N   -0.582772
    39  H    0.346240
    40  C   -0.244725
    41  H    0.235322
    42  H    0.208713
    43  C    0.587474
    44  O   -0.434072
    45  O   -0.569011
    46  H    0.423120
 Sum of Mulliken charges =   1.00000

 Dipole moment (field-independent basis, Debye):
    X=            -10.9161    Y=              6.5625    Z=             -0.8760  Tot=             12.7670
 Quadrupole moment (field-independent basis, Debye-Ang):
   XX=            -60.1662   YY=            -85.1712   ZZ=           -138.1721
   XY=            -55.1106   XZ=              5.9405   YZ=            -15.9056

 Normal termination of Gaussian 16 at Thu Jun 30 18:39:43 2022.
