 Gaussian 16, Revision C.01,
 Gaussian 16:  ES64L-G16RevC.01  3-Jul-2019

 ----------------------------------------------------------------------
 # B3LYP/6-31G* empiricaldispersion=gd3 guess=read geom=check nosymm in
 tegral(ultrafinegrid)
 ----------------------------------------------------------------------

 ------------------------------------------------------
 Candidate Structure: Conf:428 Charge calc in gas phase
 ------------------------------------------------------
 Structure from the checkpoint file:  "conf-428.chk"
 Charge =  1 Multiplicity = 1

                          Input orientation:
 ---------------------------------------------------------------------
 Center     Atomic      Atomic             Coordinates (Angstroms)
 Number     Number       Type             X           Y           Z
 ---------------------------------------------------------------------
      1          7           0       -4.040910    0.484605   -2.622569
      2          1           0       -4.088374    0.619617   -3.635311
      3          1           0       -4.958346    0.665631   -2.186822
      4          1           0       -3.778826   -0.514511   -2.400161
      5          6           0       -3.043603    1.384812   -1.950252
      6          1           0       -3.194198    2.407457   -2.305124
      7          1           0       -2.038024    1.030619   -2.180341
      8          6           0       -3.377739    1.265110   -0.456979
      9          8           0       -4.560388    1.078408   -0.142946
     10          7           0       -2.343901    1.316259    0.398629
     11          1           0       -1.413235    1.186383   -0.005504
     12          6           0       -2.510851    0.852777    1.785013
     13          1           0       -3.475678    1.196862    2.162056
     14          1           0       -1.704355    1.251266    2.399380
     15          6           0       -2.394176   -0.679065    1.717899
     16          8           0       -1.340076   -1.261251    1.947288
     17          7           0       -3.500215   -1.299773    1.201160
     18          1           0       -4.275223   -0.705751    0.924236
     19          6           0       -3.348119   -2.565875    0.488965
     20          1           0       -4.333206   -2.926097    0.189972
     21          1           0       -2.883209   -3.304618    1.145810
     22          6           0       -2.507160   -2.309945   -0.771642
     23          8           0       -3.009030   -1.867202   -1.819639
     24          7           0       -1.189371   -2.547190   -0.630404
     25          1           0       -0.866583   -2.710921    0.318613
     26          6           0       -0.193565   -2.147271   -1.613042
     27          1           0       -0.698616   -2.040751   -2.575063
     28          1           0        0.564388   -2.931477   -1.697727
     29          6           0        0.417393   -0.791755   -1.230415
     30          8           0       -0.284792    0.232499   -1.189609
     31          7           0        1.718711   -0.793873   -0.936538
     32          1           0        2.295886   -1.634040   -0.963400
     33          6           0        2.447418    0.390033   -0.530008
     34          1           0        2.392509    1.164158   -1.304818
     35          1           0        2.016406    0.811644    0.386602
     36          6           0        3.902928   -0.047000   -0.292161
     37          8           0        4.237448   -1.220506   -0.444363
     38          7           0        4.746106    0.930559    0.085316
     39          1           0        4.443438    1.891553    0.206424
     40          6           0        6.146281    0.670232    0.354450
     41          1           0        6.655360    0.268614   -0.529743
     42          1           0        6.267841   -0.073511    1.150831
     43          6           0        6.802416    1.973145    0.770476
     44          8           0        6.218397    3.032903    0.851182
     45          8           0        8.103878    1.795072    1.034018
     46          1           0        8.475698    2.659442    1.295164
 ---------------------------------------------------------------------

 SCF Done:  E(RB3LYP) =  -1324.94951314     A.U. after    1 cycles

 Alpha  occ. eigenvalues --  -19.28929 -19.26604 -19.25885 -19.24548 -19.23969
 Alpha  occ. eigenvalues --  -19.23681 -19.22296 -14.58714 -14.49805 -14.49557
 Alpha  occ. eigenvalues --  -14.48543 -14.47912 -14.46426 -10.43690 -10.42614
 Alpha  occ. eigenvalues --  -10.41895 -10.41686 -10.40896 -10.39643 -10.39032
 Alpha  occ. eigenvalues --  -10.35423 -10.35119 -10.34973 -10.34390 -10.32984
 Alpha  occ. eigenvalues --   -1.20097  -1.18898  -1.17319  -1.16049  -1.15630
 Alpha  occ. eigenvalues --   -1.14257  -1.13001  -1.11340  -1.06394  -1.05776
 Alpha  occ. eigenvalues --   -1.04601  -1.04106  -1.02834  -0.90132  -0.88707
 Alpha  occ. eigenvalues --   -0.86646  -0.84795  -0.82640  -0.80589  -0.73846
 Alpha  occ. eigenvalues --   -0.73399  -0.72685  -0.71923  -0.71235  -0.70681
 Alpha  occ. eigenvalues --   -0.69826  -0.69037  -0.66432  -0.66333  -0.64759
 Alpha  occ. eigenvalues --   -0.62815  -0.62093  -0.61322  -0.60820  -0.60061
 Alpha  occ. eigenvalues --   -0.59369  -0.59195  -0.58498  -0.58159  -0.57838
 Alpha  occ. eigenvalues --   -0.57345  -0.56068  -0.55601  -0.55203  -0.54693
 Alpha  occ. eigenvalues --   -0.53918  -0.53374  -0.52676  -0.51909  -0.51521
 Alpha  occ. eigenvalues --   -0.51138  -0.50503  -0.50405  -0.49806  -0.49631
 Alpha  occ. eigenvalues --   -0.48834  -0.48052  -0.46192  -0.41610  -0.41301
 Alpha  occ. eigenvalues --   -0.41211  -0.41166  -0.40393  -0.38495  -0.37967
 Alpha  occ. eigenvalues --   -0.37735  -0.37296  -0.36308  -0.36225  -0.35709
 Alpha virt. eigenvalues --   -0.13938  -0.12827  -0.10448  -0.09368  -0.08636
 Alpha virt. eigenvalues --   -0.08409  -0.07435  -0.02857  -0.02450  -0.01492
 Alpha virt. eigenvalues --   -0.00985  -0.00585  -0.00119   0.00497   0.01206

 Mulliken charges:
               1
     1  N   -0.756489
     2  H    0.408907
     3  H    0.414801
     4  H    0.455598
     5  C   -0.296259
     6  H    0.235924
     7  H    0.260420
     8  C    0.618385
     9  O   -0.537455
    10  N   -0.584793
    11  H    0.396866
    12  C   -0.246126
    13  H    0.216564
    14  H    0.208419
    15  C    0.585984
    16  O   -0.507324
    17  N   -0.574294
    18  H    0.370332
    19  C   -0.231466
    20  H    0.202755
    21  H    0.206246
    22  C    0.604260
    23  O   -0.581921
    24  N   -0.539271
    25  H    0.378785
    26  C   -0.241246
    27  H    0.211722
    28  H    0.193358
    29  C    0.628507
    30  O   -0.571159
    31  N   -0.587773
    32  H    0.375440
    33  C   -0.205743
    34  H    0.201239
    35  H    0.198974
    36  C    0.616492
    37  O   -0.519276
    38  N   -0.623859
    39  H    0.361349
    40  C   -0.182304
    41  H    0.218754
    42  H    0.219134
    43  C    0.572358
    44  O   -0.456855
    45  O   -0.549796
    46  H    0.431833
 Sum of Mulliken charges =   1.00000

 Dipole moment (field-independent basis, Debye):
    X=             -5.3535    Y=              1.6641    Z=             -6.4701  Tot=              8.5610
 Quadrupole moment (field-independent basis, Debye-Ang):
   XX=            -49.0757   YY=           -127.5084   ZZ=           -114.7544
   XY=             13.7501   XZ=             30.3477   YZ=             -2.7264

 Normal termination of Gaussian 16 at Thu Jun 30 18:39:39 2022.
