 Gaussian 16, Revision C.01,
 Gaussian 16:  ES64L-G16RevC.01  3-Jul-2019

 ----------------------------------------------------------------------
 # B3LYP/6-31G* empiricaldispersion=gd3 guess=read geom=check nosymm in
 tegral(ultrafinegrid)
 ----------------------------------------------------------------------

 ------------------------------------------------------
 Candidate Structure: Conf:549 Charge calc in gas phase
 ------------------------------------------------------
 Structure from the checkpoint file:  "conf-549.chk"
 Charge =  1 Multiplicity = 1

                          Input orientation:
 ---------------------------------------------------------------------
 Center     Atomic      Atomic             Coordinates (Angstroms)
 Number     Number       Type             X           Y           Z
 ---------------------------------------------------------------------
      1          7           0       -7.392976    2.908286    3.021731
      2          1           0       -8.055404    3.319195    2.358047
      3          1           0       -6.481065    3.474918    3.027326
      4          1           0       -7.818879    2.920393    3.952592
      5          6           0       -6.885274    1.553375    2.607023
      6          1           0       -7.368718    1.244914    1.678418
      7          1           0       -7.103996    0.821810    3.386894
      8          6           0       -5.359118    1.776628    2.426673
      9          8           0       -4.928530    2.917897    2.649262
     10          7           0       -4.644557    0.730666    2.050148
     11          1           0       -5.039548   -0.197903    1.871423
     12          6           0       -3.206934    0.766558    1.829051
     13          1           0       -2.681015    1.040761    2.750510
     14          1           0       -2.953078    1.509550    1.064766
     15          6           0       -2.823208   -0.654879    1.374570
     16          8           0       -3.689407   -1.528139    1.292052
     17          7           0       -1.527955   -0.842675    1.092606
     18          1           0       -0.835847   -0.098025    1.140554
     19          6           0       -1.009677   -2.113058    0.626054
     20          1           0       -1.603996   -2.479405   -0.219780
     21          1           0       -1.067140   -2.873254    1.415476
     22          6           0        0.449723   -1.888213    0.212567
     23          8           0        0.988630   -0.790751    0.387853
     24          7           0        1.080154   -2.953050   -0.319987
     25          1           0        0.549632   -3.786735   -0.536652
     26          6           0        2.474482   -2.893071   -0.766086
     27          1           0        2.870635   -3.907736   -0.802793
     28          1           0        3.039257   -2.308491   -0.033913
     29          6           0        2.603766   -2.289033   -2.178249
     30          8           0        2.840271   -2.986263   -3.152517
     31          7           0        2.416538   -0.935471   -2.218373
     32          1           0        2.152121   -0.469514   -1.356484
     33          6           0        2.403704   -0.183005   -3.460924
     34          1           0        2.478721   -0.903594   -4.280727
     35          1           0        1.465493    0.367888   -3.578511
     36          6           0        3.541201    0.835887   -3.612031
     37          8           0        3.438429    1.783165   -4.380846
     38          7           0        4.648065    0.585530   -2.869563
     39          1           0        4.670985   -0.186236   -2.215801
     40          6           0        5.802650    1.448234   -2.917690
     41          1           0        5.501921    2.501674   -2.872346
     42          1           0        6.366760    1.333072   -3.853346
     43          6           0        6.715641    1.123045   -1.754116
     44          8           0        6.508844    0.254087   -0.933220
     45          8           0        7.800195    1.918678   -1.750581
     46          1           0        8.352584    1.650389   -0.992046
 ---------------------------------------------------------------------

 SCF Done:  E(RB3LYP) =  -1324.90154981     A.U. after    1 cycles

 Alpha  occ. eigenvalues --  -19.29542 -19.26107 -19.24217 -19.23167 -19.20744
 Alpha  occ. eigenvalues --  -19.18529 -19.16100 -14.62983 -14.52050 -14.47907
 Alpha  occ. eigenvalues --  -14.47291 -14.42990 -14.41320 -10.46393 -10.43424
 Alpha  occ. eigenvalues --  -10.41497 -10.40265 -10.38854 -10.36657 -10.35967
 Alpha  occ. eigenvalues --  -10.34302 -10.33770 -10.31480 -10.29260 -10.28584
 Alpha  occ. eigenvalues --   -1.22019  -1.17166  -1.16711  -1.16173  -1.14882
 Alpha  occ. eigenvalues --   -1.10483  -1.08572  -1.08543  -1.08026  -1.04389
 Alpha  occ. eigenvalues --   -1.03101  -0.99416  -0.97440  -0.92971  -0.88138
 Alpha  occ. eigenvalues --   -0.85036  -0.82304  -0.80445  -0.77087  -0.76828
 Alpha  occ. eigenvalues --   -0.76730  -0.74632  -0.71287  -0.69642  -0.69062
 Alpha  occ. eigenvalues --   -0.68051  -0.66000  -0.65468  -0.64292  -0.63775
 Alpha  occ. eigenvalues --   -0.63438  -0.61276  -0.60830  -0.60470  -0.58802
 Alpha  occ. eigenvalues --   -0.58565  -0.57954  -0.57068  -0.56217  -0.55153
 Alpha  occ. eigenvalues --   -0.55031  -0.54552  -0.54062  -0.53765  -0.52325
 Alpha  occ. eigenvalues --   -0.51908  -0.50764  -0.50411  -0.49453  -0.49352
 Alpha  occ. eigenvalues --   -0.48433  -0.47690  -0.46922  -0.46592  -0.45738
 Alpha  occ. eigenvalues --   -0.44681  -0.44606  -0.44233  -0.41917  -0.40874
 Alpha  occ. eigenvalues --   -0.38934  -0.38390  -0.38104  -0.37415  -0.36648
 Alpha  occ. eigenvalues --   -0.34800  -0.33531  -0.31807  -0.30791  -0.29416
 Alpha virt. eigenvalues --   -0.14587  -0.14058  -0.09773  -0.08759  -0.08409
 Alpha virt. eigenvalues --   -0.07171  -0.05340  -0.05274  -0.03676  -0.02751
 Alpha virt. eigenvalues --   -0.02284  -0.01711  -0.01085   0.00012   0.01142

 Mulliken charges:
               1
     1  N   -0.749861
     2  H    0.425977
     3  H    0.441495
     4  H    0.425812
     5  C   -0.277350
     6  H    0.251475
     7  H    0.251557
     8  C    0.640597
     9  O   -0.520189
    10  N   -0.605064
    11  H    0.381448
    12  C   -0.211477
    13  H    0.218436
    14  H    0.217400
    15  C    0.620251
    16  O   -0.528212
    17  N   -0.621676
    18  H    0.369767
    19  C   -0.198599
    20  H    0.205420
    21  H    0.208989
    22  C    0.613869
    23  O   -0.540726
    24  N   -0.587942
    25  H    0.354404
    26  C   -0.245744
    27  H    0.200644
    28  H    0.204341
    29  C    0.582095
    30  O   -0.483279
    31  N   -0.619546
    32  H    0.364610
    33  C   -0.228459
    34  H    0.224399
    35  H    0.177255
    36  C    0.594691
    37  O   -0.514701
    38  N   -0.605179
    39  H    0.352332
    40  C   -0.174820
    41  H    0.211429
    42  H    0.207371
    43  C    0.564685
    44  O   -0.465392
    45  O   -0.554817
    46  H    0.422287
 Sum of Mulliken charges =   1.00000

 Dipole moment (field-independent basis, Debye):
    X=            -26.7894    Y=              6.1177    Z=             14.5034  Tot=             31.0716
 Quadrupole moment (field-independent basis, Debye-Ang):
   XX=            100.2040   YY=           -114.4709   ZZ=           -126.9912
   XY=            -67.3035   XZ=            -75.4761   YZ=             27.3465

 Normal termination of Gaussian 16 at Thu Jun 30 18:39:47 2022.
