 Gaussian 16, Revision C.01,
 Gaussian 16:  ES64L-G16RevC.01  3-Jul-2019

 ----------------------------------------------------------------------
 # B3LYP/6-31G* empiricaldispersion=gd3 guess=read geom=check nosymm in
 tegral(ultrafinegrid)
 ----------------------------------------------------------------------

 ------------------------------------------------------
 Candidate Structure: Conf:705 Charge calc in gas phase
 ------------------------------------------------------
 Structure from the checkpoint file:  "conf-705.chk"
 Charge =  1 Multiplicity = 1

                          Input orientation:
 ---------------------------------------------------------------------
 Center     Atomic      Atomic             Coordinates (Angstroms)
 Number     Number       Type             X           Y           Z
 ---------------------------------------------------------------------
      1          7           0       -3.911502    2.424067    1.940967
      2          1           0       -3.807297    3.355943    2.349519
      3          1           0       -3.498431    1.695561    2.584826
      4          1           0       -4.908371    2.191102    1.812481
      5          6           0       -3.245955    2.285222    0.601374
      6          1           0       -2.165696    2.244901    0.746483
      7          1           0       -3.529351    3.135067   -0.024623
      8          6           0       -3.808631    0.973522    0.036752
      9          8           0       -4.966332    0.662035    0.344121
     10          7           0       -2.974594    0.230831   -0.709359
     11          1           0       -1.980180    0.461061   -0.644654
     12          6           0       -3.289728   -1.179992   -0.984075
     13          1           0       -2.704309   -1.522389   -1.836542
     14          1           0       -4.355948   -1.271442   -1.199080
     15          6           0       -2.854086   -1.944719    0.276774
     16          8           0       -1.762163   -2.495759    0.357669
     17          7           0       -3.698725   -1.786849    1.343187
     18          1           0       -4.517145   -1.203631    1.201196
     19          6           0       -3.163324   -1.858224    2.700190
     20          1           0       -2.677371   -2.824345    2.854086
     21          1           0       -3.983062   -1.755031    3.412150
     22          6           0       -2.186136   -0.687961    2.893195
     23          8           0       -2.576587    0.453683    3.194264
     24          7           0       -0.894284   -0.983781    2.656171
     25          1           0       -0.714716   -1.887132    2.228045
     26          6           0        0.155662    0.018684    2.570808
     27          1           0        1.056525   -0.360555    3.062130
     28          1           0       -0.187651    0.906279    3.106399
     29          6           0        0.416914    0.405721    1.108061
     30          8           0       -0.476988    0.917978    0.414196
     31          7           0        1.642849    0.154050    0.644058
     32          1           0        2.375523   -0.270257    1.211371
     33          6           0        2.059986    0.448889   -0.711217
     34          1           0        1.471229   -0.134195   -1.431394
     35          1           0        1.906718    1.509751   -0.941374
     36          6           0        3.544814    0.067671   -0.813509
     37          8           0        4.123287   -0.444472    0.139058
     38          7           0        4.139508    0.361877   -1.996532
     39          1           0        3.548390    0.619173   -2.776426
     40          6           0        5.466734   -0.138099   -2.305400
     41          1           0        6.044032   -0.183721   -1.379529
     42          1           0        5.979237    0.553091   -2.980634
     43          6           0        5.509727   -1.526807   -2.938763
     44          8           0        6.537098   -2.084064   -3.232590
     45          8           0        4.275041   -2.046425   -3.141810
     46          1           0        4.410727   -2.927327   -3.540958
 ---------------------------------------------------------------------

 SCF Done:  E(RB3LYP) =  -1324.94352943     A.U. after    1 cycles

 Alpha  occ. eigenvalues --  -19.28323 -19.26835 -19.26107 -19.24881 -19.24171
 Alpha  occ. eigenvalues --  -19.23015 -19.22009 -14.58939 -14.50043 -14.49790
 Alpha  occ. eigenvalues --  -14.48914 -14.48107 -14.47136 -10.43926 -10.42835
 Alpha  occ. eigenvalues --  -10.42029 -10.41098 -10.40541 -10.40264 -10.39284
 Alpha  occ. eigenvalues --  -10.35706 -10.35307 -10.35191 -10.34850 -10.32764
 Alpha  occ. eigenvalues --   -1.19134  -1.18920  -1.17550  -1.16401  -1.15841
 Alpha  occ. eigenvalues --   -1.14904  -1.13228  -1.09992  -1.06628  -1.06005
 Alpha  occ. eigenvalues --   -1.04972  -1.04312  -1.03426  -0.90369  -0.88991
 Alpha  occ. eigenvalues --   -0.86756  -0.84782  -0.82568  -0.80640  -0.74070
 Alpha  occ. eigenvalues --   -0.73584  -0.72852  -0.71810  -0.71358  -0.70813
 Alpha  occ. eigenvalues --   -0.70052  -0.69349  -0.66849  -0.66576  -0.65082
 Alpha  occ. eigenvalues --   -0.63147  -0.62623  -0.61873  -0.61121  -0.60521
 Alpha  occ. eigenvalues --   -0.59593  -0.59468  -0.58652  -0.58094  -0.57908
 Alpha  occ. eigenvalues --   -0.56633  -0.56080  -0.55407  -0.54396  -0.54237
 Alpha  occ. eigenvalues --   -0.54040  -0.53616  -0.53037  -0.52149  -0.51672
 Alpha  occ. eigenvalues --   -0.50874  -0.50669  -0.50400  -0.50231  -0.49369
 Alpha  occ. eigenvalues --   -0.48405  -0.47920  -0.47183  -0.41843  -0.41510
 Alpha  occ. eigenvalues --   -0.41383  -0.40620  -0.39986  -0.39252  -0.38359
 Alpha  occ. eigenvalues --   -0.38069  -0.37515  -0.36940  -0.36489  -0.34431
 Alpha virt. eigenvalues --   -0.14162  -0.13025  -0.10768  -0.09625  -0.08848
 Alpha virt. eigenvalues --   -0.08427  -0.07123  -0.03074  -0.02732  -0.02720
 Alpha virt. eigenvalues --   -0.01629  -0.00481  -0.00079   0.00227   0.00650

 Mulliken charges:
               1
     1  N   -0.756061
     2  H    0.409210
     3  H    0.455433
     4  H    0.415226
     5  C   -0.296204
     6  H    0.259213
     7  H    0.236096
     8  C    0.618294
     9  O   -0.536746
    10  N   -0.586040
    11  H    0.397730
    12  C   -0.245869
    13  H    0.208047
    14  H    0.216908
    15  C    0.585741
    16  O   -0.506749
    17  N   -0.574027
    18  H    0.370201
    19  C   -0.231454
    20  H    0.206844
    21  H    0.203335
    22  C    0.603933
    23  O   -0.582350
    24  N   -0.539396
    25  H    0.379408
    26  C   -0.242508
    27  H    0.193971
    28  H    0.212808
    29  C    0.629699
    30  O   -0.570725
    31  N   -0.589220
    32  H    0.376530
    33  C   -0.208501
    34  H    0.201347
    35  H    0.201298
    36  C    0.611516
    37  O   -0.507556
    38  N   -0.582331
    39  H    0.344495
    40  C   -0.247035
    41  H    0.240592
    42  H    0.211486
    43  C    0.588730
    44  O   -0.428474
    45  O   -0.572099
    46  H    0.425255
 Sum of Mulliken charges =   1.00000

 Dipole moment (field-independent basis, Debye):
    X=             -9.2820    Y=              6.2779    Z=              3.3329  Tot=             11.6908
 Quadrupole moment (field-independent basis, Debye-Ang):
   XX=           -101.9228   YY=           -113.4405   ZZ=           -108.7920
   XY=            -12.5663   XZ=            -28.1186   YZ=              6.9223

 Normal termination of Gaussian 16 at Thu Jun 30 18:40:04 2022.
