 Gaussian 16, Revision C.01,
 Gaussian 16:  ES64L-G16RevC.01  3-Jul-2019

 ----------------------------------------------------------------------
 # B3LYP/6-31G* empiricaldispersion=gd3 guess=read geom=check nosymm in
 tegral(ultrafinegrid)
 ----------------------------------------------------------------------

 ------------------------------------------------------
 Candidate Structure: Conf:538 Charge calc in gas phase
 ------------------------------------------------------
 Structure from the checkpoint file:  "conf-538.chk"
 Charge =  1 Multiplicity = 1

                          Input orientation:
 ---------------------------------------------------------------------
 Center     Atomic      Atomic             Coordinates (Angstroms)
 Number     Number       Type             X           Y           Z
 ---------------------------------------------------------------------
      1          7           0       -1.083513    2.563515   -1.968801
      2          1           0       -1.209230    3.267813   -2.698991
      3          1           0       -0.775862    1.651222   -2.380046
      4          1           0       -0.287151    2.829249   -1.352084
      5          6           0       -2.325850    2.290294   -1.184573
      6          1           0       -3.005944    1.711576   -1.811254
      7          1           0       -2.791321    3.239990   -0.909548
      8          6           0       -1.878932    1.569759    0.095240
      9          8           0       -0.892681    1.996252    0.685870
     10          7           0       -2.652401    0.539699    0.504699
     11          1           0       -3.252617    0.084117   -0.172704
     12          6           0       -2.265608   -0.267015    1.649666
     13          1           0       -3.142542   -0.459547    2.278268
     14          1           0       -1.532914    0.299042    2.228988
     15          6           0       -1.688444   -1.611712    1.184119
     16          8           0       -2.063604   -2.120985    0.122197
     17          7           0       -0.813953   -2.166810    2.051090
     18          1           0       -0.420361   -1.530549    2.742568
     19          6           0        0.009295   -3.342870    1.745953
     20          1           0       -0.283994   -3.742651    0.776570
     21          1           0       -0.123684   -4.110838    2.515941
     22          6           0        1.440418   -2.804233    1.681864
     23          8           0        1.939604   -2.406123    0.633227
     24          7           0        2.045877   -2.594789    2.888839
     25          1           0        1.537455   -2.838490    3.728652
     26          6           0        2.968210   -1.469643    2.978404
     27          1           0        3.871730   -1.680443    2.400422
     28          1           0        3.250650   -1.328644    4.024645
     29          6           0        2.229220   -0.214827    2.461215
     30          8           0        1.047929   -0.025654    2.748282
     31          7           0        2.936207    0.604498    1.642294
     32          1           0        3.885832    0.348753    1.405170
     33          6           0        2.306780    1.675587    0.888845
     34          1           0        1.393351    1.973156    1.408740
     35          1           0        2.967671    2.544216    0.829234
     36          6           0        1.893981    1.312812   -0.542261
     37          8           0        1.498189    2.203495   -1.304128
     38          7           0        1.989352    0.014696   -0.907422
     39          1           0        2.199878   -0.705878   -0.218821
     40          6           0        1.526093   -0.457877   -2.207603
     41          1           0        2.128227   -1.315806   -2.511287
     42          1           0        1.620329    0.350958   -2.932380
     43          6           0        0.063259   -0.863611   -2.063900
     44          8           0       -0.876658   -0.086595   -2.228600
     45          8           0       -0.078507   -2.103924   -1.647385
     46          1           0       -0.985888   -2.235835   -1.262169
 ---------------------------------------------------------------------

 SCF Done:  E(RB3LYP) =  -1324.96885603     A.U. after    1 cycles

 Alpha  occ. eigenvalues --  -19.30410 -19.27014 -19.25234 -19.24834 -19.24780
 Alpha  occ. eigenvalues --  -19.24270 -19.23603 -14.56584 -14.49508 -14.48979
 Alpha  occ. eigenvalues --  -14.48869 -14.48834 -14.48086 -10.44711 -10.42918
 Alpha  occ. eigenvalues --  -10.41883 -10.41690 -10.41505 -10.41042 -10.38728
 Alpha  occ. eigenvalues --  -10.35430 -10.35016 -10.34901 -10.34775 -10.34034
 Alpha  occ. eigenvalues --   -1.22536  -1.17749  -1.17276  -1.16286  -1.15681
 Alpha  occ. eigenvalues --   -1.15263  -1.13626  -1.11417  -1.05804  -1.05680
 Alpha  occ. eigenvalues --   -1.05289  -1.04521  -1.03651  -0.89770  -0.88422
 Alpha  occ. eigenvalues --   -0.87192  -0.85122  -0.82562  -0.80663  -0.74126
 Alpha  occ. eigenvalues --   -0.72790  -0.72380  -0.71762  -0.71093  -0.70683
 Alpha  occ. eigenvalues --   -0.70365  -0.69947  -0.67017  -0.65718  -0.64567
 Alpha  occ. eigenvalues --   -0.63001  -0.62757  -0.62206  -0.61561  -0.61157
 Alpha  occ. eigenvalues --   -0.60406  -0.60189  -0.59458  -0.58522  -0.57311
 Alpha  occ. eigenvalues --   -0.56795  -0.56497  -0.55476  -0.55286  -0.54585
 Alpha  occ. eigenvalues --   -0.53965  -0.53745  -0.53438  -0.52451  -0.52094
 Alpha  occ. eigenvalues --   -0.51883  -0.51055  -0.50936  -0.49921  -0.49525
 Alpha  occ. eigenvalues --   -0.48482  -0.48214  -0.47275  -0.43886  -0.42039
 Alpha  occ. eigenvalues --   -0.40667  -0.40361  -0.39949  -0.39728  -0.39524
 Alpha  occ. eigenvalues --   -0.37971  -0.37677  -0.37420  -0.36807  -0.36143
 Alpha virt. eigenvalues --   -0.13344  -0.12532  -0.11853  -0.10275  -0.09536
 Alpha virt. eigenvalues --   -0.08803  -0.06488  -0.04250  -0.03405  -0.03240
 Alpha virt. eigenvalues --   -0.00947   0.00342   0.00907   0.01562   0.02256

 Mulliken charges:
               1
     1  N   -0.758740
     2  H    0.401981
     3  H    0.433936
     4  H    0.444916
     5  C   -0.258966
     6  H    0.215824
     7  H    0.236061
     8  C    0.626693
     9  O   -0.504301
    10  N   -0.570924
    11  H    0.360883
    12  C   -0.267551
    13  H    0.215645
    14  H    0.236115
    15  C    0.627425
    16  O   -0.558634
    17  N   -0.586831
    18  H    0.373056
    19  C   -0.227024
    20  H    0.223269
    21  H    0.191465
    22  C    0.586695
    23  O   -0.510814
    24  N   -0.546341
    25  H    0.349942
    26  C   -0.238413
    27  H    0.195227
    28  H    0.210420
    29  C    0.603751
    30  O   -0.527410
    31  N   -0.593548
    32  H    0.351372
    33  C   -0.250268
    34  H    0.259073
    35  H    0.207241
    36  C    0.627630
    37  O   -0.576316
    38  N   -0.619425
    39  H    0.408005
    40  C   -0.204751
    41  H    0.210574
    42  H    0.201392
    43  C    0.603739
    44  O   -0.525189
    45  O   -0.541616
    46  H    0.464733
 Sum of Mulliken charges =   1.00000

 Dipole moment (field-independent basis, Debye):
    X=              0.0416    Y=              1.6683    Z=              1.3550  Tot=              2.1497
 Quadrupole moment (field-independent basis, Debye-Ang):
   XX=           -102.7798   YY=           -113.9698   ZZ=           -104.6415
   XY=            -14.7314   XZ=             16.9817   YZ=            -29.7439

 Normal termination of Gaussian 16 at Thu Jun 30 18:39:44 2022.
