 Gaussian 16, Revision C.01,
 Gaussian 16:  ES64L-G16RevC.01  3-Jul-2019

 ----------------------------------------------------------------------
 # B3LYP/6-31G* empiricaldispersion=gd3 guess=read geom=check nosymm in
 tegral(ultrafinegrid)
 ----------------------------------------------------------------------

 ------------------------------------------------------
 Candidate Structure: Conf:584 Charge calc in gas phase
 ------------------------------------------------------
 Structure from the checkpoint file:  "conf-584.chk"
 Charge =  1 Multiplicity = 1

                          Input orientation:
 ---------------------------------------------------------------------
 Center     Atomic      Atomic             Coordinates (Angstroms)
 Number     Number       Type             X           Y           Z
 ---------------------------------------------------------------------
      1          7           0       -2.163034   -1.292341   -1.035588
      2          1           0       -1.181025   -1.671118   -0.866399
      3          1           0       -2.442898   -1.625846   -1.962240
      4          1           0       -2.786027   -1.640133   -0.299190
      5          6           0       -2.130104    0.199674   -1.008371
      6          1           0       -3.109188    0.575888   -1.319446
      7          1           0       -1.365690    0.531009   -1.707635
      8          6           0       -1.856206    0.659262    0.421900
      9          8           0       -2.221742   -0.042846    1.371447
     10          7           0       -1.297620    1.882479    0.520220
     11          1           0       -0.647348    2.136914   -0.221084
     12          6           0       -1.097493    2.508464    1.823535
     13          1           0       -2.026507    2.427668    2.393561
     14          1           0       -0.880096    3.566406    1.657766
     15          6           0        0.093539    1.859432    2.535944
     16          8           0        1.170739    1.735678    1.964077
     17          7           0       -0.137093    1.363596    3.782391
     18          1           0       -1.059703    1.424729    4.189479
     19          6           0        0.873374    0.515745    4.400854
     20          1           0        0.493465    0.154868    5.360456
     21          1           0        1.797697    1.070329    4.574862
     22          6           0        1.241702   -0.669879    3.495121
     23          8           0        2.390339   -1.090958    3.418312
     24          7           0        0.211730   -1.205391    2.774430
     25          1           0       -0.670180   -0.708018    2.712389
     26          6           0        0.474538   -2.179503    1.734934
     27          1           0       -0.427917   -2.761705    1.541169
     28          1           0        1.258480   -2.858686    2.086038
     29          6           0        0.930411   -1.577381    0.399103
     30          8           0        0.403411   -1.920090   -0.682526
     31          7           0        1.924554   -0.685807    0.432667
     32          1           0        2.331074   -0.433451    1.328570
     33          6           0        2.504302   -0.111984   -0.769702
     34          1           0        3.070777    0.772177   -0.466309
     35          1           0        3.202426   -0.825519   -1.223900
     36          6           0        1.476602    0.368855   -1.805595
     37          8           0        0.640955    1.238716   -1.559153
     38          7           0        1.644102   -0.144360   -3.051558
     39          1           0        2.215739   -0.970497   -3.160699
     40          6           0        0.872888    0.300263   -4.187304
     41          1           0        1.476097    0.243597   -5.096853
     42          1           0        0.604820    1.351515   -4.033734
     43          6           0       -0.428752   -0.467161   -4.403093
     44          8           0       -1.045227   -1.074525   -3.548876
     45          8           0       -0.831945   -0.348270   -5.673388
     46          1           0       -1.683593   -0.814878   -5.776732
 ---------------------------------------------------------------------

 SCF Done:  E(RB3LYP) =  -1324.96600667     A.U. after    1 cycles

 Alpha  occ. eigenvalues --  -19.32688 -19.27720 -19.26344 -19.25275 -19.24812
 Alpha  occ. eigenvalues --  -19.22979 -19.21947 -14.56789 -14.49357 -14.49084
 Alpha  occ. eigenvalues --  -14.48674 -14.48090 -14.46542 -10.45708 -10.43189
 Alpha  occ. eigenvalues --  -10.42268 -10.41666 -10.40257 -10.39345 -10.37737
 Alpha  occ. eigenvalues --  -10.36196 -10.35376 -10.34990 -10.34285 -10.33501
 Alpha  occ. eigenvalues --   -1.23894  -1.18080  -1.17132  -1.16178  -1.15312
 Alpha  occ. eigenvalues --   -1.14974  -1.13841  -1.11570  -1.05745  -1.05400
 Alpha  occ. eigenvalues --   -1.04968  -1.04305  -1.02362  -0.89400  -0.89328
 Alpha  occ. eigenvalues --   -0.86787  -0.84882  -0.82654  -0.80428  -0.75758
 Alpha  occ. eigenvalues --   -0.72657  -0.72415  -0.71863  -0.71380  -0.70278
 Alpha  occ. eigenvalues --   -0.69620  -0.69230  -0.65915  -0.65656  -0.64569
 Alpha  occ. eigenvalues --   -0.63609  -0.63091  -0.62133  -0.61791  -0.61399
 Alpha  occ. eigenvalues --   -0.60146  -0.59676  -0.59252  -0.58825  -0.57542
 Alpha  occ. eigenvalues --   -0.57023  -0.55850  -0.55479  -0.54966  -0.54890
 Alpha  occ. eigenvalues --   -0.53916  -0.53098  -0.52796  -0.52428  -0.52317
 Alpha  occ. eigenvalues --   -0.51438  -0.51350  -0.50805  -0.50148  -0.49980
 Alpha  occ. eigenvalues --   -0.48686  -0.47832  -0.46834  -0.45182  -0.41937
 Alpha  occ. eigenvalues --   -0.40911  -0.40600  -0.40039  -0.39824  -0.38874
 Alpha  occ. eigenvalues --   -0.38409  -0.37439  -0.36301  -0.35705  -0.35013
 Alpha virt. eigenvalues --   -0.12710  -0.12508  -0.11839  -0.10750  -0.09573
 Alpha virt. eigenvalues --   -0.08073  -0.06896  -0.04253  -0.03996  -0.03043
 Alpha virt. eigenvalues --   -0.01633  -0.00505   0.00415   0.00964   0.01322

 Mulliken charges:
               1
     1  N   -0.755691
     2  H    0.455685
     3  H    0.414973
     4  H    0.399725
     5  C   -0.293924
     6  H    0.225615
     7  H    0.255149
     8  C    0.624481
     9  O   -0.549164
    10  N   -0.575595
    11  H    0.397721
    12  C   -0.248108
    13  H    0.186611
    14  H    0.211904
    15  C    0.611323
    16  O   -0.513067
    17  N   -0.598557
    18  H    0.351060
    19  C   -0.218941
    20  H    0.200182
    21  H    0.221675
    22  C    0.595199
    23  O   -0.516518
    24  N   -0.586382
    25  H    0.370358
    26  C   -0.235793
    27  H    0.174153
    28  H    0.230330
    29  C    0.603187
    30  O   -0.588037
    31  N   -0.548511
    32  H    0.399565
    33  C   -0.207755
    34  H    0.222707
    35  H    0.181235
    36  C    0.633991
    37  O   -0.544089
    38  N   -0.562648
    39  H    0.357129
    40  C   -0.238981
    41  H    0.218179
    42  H    0.233358
    43  C    0.598956
    44  O   -0.493236
    45  O   -0.529299
    46  H    0.429844
 Sum of Mulliken charges =   1.00000

 Dipole moment (field-independent basis, Debye):
    X=             -5.4195    Y=             -0.7137    Z=             -4.8477  Tot=              7.3062
 Quadrupole moment (field-independent basis, Debye-Ang):
   XX=           -116.3592   YY=           -128.0622   ZZ=            -81.2011
   XY=              1.8993   XZ=             -4.7618   YZ=             14.2067

 Normal termination of Gaussian 16 at Thu Jun 30 18:39:48 2022.
