 Gaussian 16, Revision C.01,
 Gaussian 16:  ES64L-G16RevC.01  3-Jul-2019

 ----------------------------------------------------------------------
 # B3LYP/6-31G* empiricaldispersion=gd3 guess=read geom=check nosymm in
 tegral(ultrafinegrid)
 ----------------------------------------------------------------------

 -----------------------------------------------------
 Candidate Structure: Conf:35 Charge calc in gas phase
 -----------------------------------------------------
 Structure from the checkpoint file:  "conf-35.chk"
 Charge =  1 Multiplicity = 1

                          Input orientation:
 ---------------------------------------------------------------------
 Center     Atomic      Atomic             Coordinates (Angstroms)
 Number     Number       Type             X           Y           Z
 ---------------------------------------------------------------------
      1          7           0       -6.129741    2.347337    1.836448
      2          1           0       -6.322749    1.341295    1.846920
      3          1           0       -7.010465    2.847785    1.987435
      4          1           0       -5.442154    2.584373    2.614396
      5          6           0       -5.380808    2.795736    0.609788
      6          1           0       -5.964513    3.541455    0.067029
      7          1           0       -5.187156    1.934573   -0.032645
      8          6           0       -4.049872    3.352582    1.164829
      9          8           0       -3.877416    3.306699    2.382769
     10          7           0       -3.177228    3.853454    0.273095
     11          1           0       -3.373093    3.667270   -0.704187
     12          6           0       -1.765131    3.854204    0.633594
     13          1           0       -1.651091    4.323561    1.613710
     14          1           0       -1.209502    4.446502   -0.098507
     15          6           0       -1.267286    2.388682    0.679905
     16          8           0       -2.056677    1.460972    0.484362
     17          7           0        0.037464    2.219677    0.956821
     18          1           0        0.637939    3.029894    1.039387
     19          6           0        0.642141    0.899834    1.146427
     20          1           0       -0.071431    0.271666    1.691088
     21          1           0        1.544217    1.010779    1.748090
     22          6           0        1.036899    0.157664   -0.138438
     23          8           0        2.135386   -0.380074   -0.231941
     24          7           0        0.090778    0.120932   -1.118946
     25          1           0       -0.864652    0.266699   -0.807586
     26          6           0        0.290942   -0.822494   -2.208095
     27          1           0        1.234266   -0.589193   -2.709005
     28          1           0       -0.524301   -0.704125   -2.927800
     29          6           0        0.303328   -2.262723   -1.653062
     30          8           0       -0.363013   -2.551628   -0.666170
     31          7           0        1.109242   -3.130088   -2.323572
     32          1           0        1.776651   -2.721259   -2.968215
     33          6           0        1.536064   -4.392209   -1.721197
     34          1           0        0.860388   -4.604204   -0.888352
     35          1           0        1.487932   -5.208886   -2.443644
     36          6           0        2.997405   -4.275966   -1.250242
     37          8           0        3.842879   -5.096774   -1.568303
     38          7           0        3.259299   -3.160305   -0.494572
     39          1           0        2.525118   -2.471406   -0.382907
     40          6           0        4.593183   -2.610076   -0.449334
     41          1           0        5.305950   -3.428789   -0.592644
     42          1           0        4.800455   -2.142775    0.516140
     43          6           0        4.868658   -1.563141   -1.523402
     44          8           0        5.751005   -0.742097   -1.464480
     45          8           0        4.035489   -1.663612   -2.602758
     46          1           0        4.357587   -0.992873   -3.234001
 ---------------------------------------------------------------------

 SCF Done:  E(RB3LYP) =  -1324.89437529     A.U. after    1 cycles

 Alpha  occ. eigenvalues --  -19.30840 -19.26127 -19.25745 -19.21876 -19.19757
 Alpha  occ. eigenvalues --  -19.19191 -19.16928 -14.63987 -14.53423 -14.49975
 Alpha  occ. eigenvalues --  -14.45196 -14.43557 -14.40865 -10.47639 -10.44212
 Alpha  occ. eigenvalues --  -10.42878 -10.38806 -10.38063 -10.37953 -10.36444
 Alpha  occ. eigenvalues --  -10.34116 -10.34045 -10.31682 -10.28705 -10.28649
 Alpha  occ. eigenvalues --   -1.23380  -1.17927  -1.17297  -1.16454  -1.13705
 Alpha  occ. eigenvalues --   -1.11063  -1.09978  -1.08782  -1.07471  -1.05800
 Alpha  occ. eigenvalues --   -1.01566  -1.00037  -0.97453  -0.93923  -0.88609
 Alpha  occ. eigenvalues --   -0.84770  -0.82272  -0.79829  -0.77727  -0.77604
 Alpha  occ. eigenvalues --   -0.76582  -0.75675  -0.72474  -0.70117  -0.68244
 Alpha  occ. eigenvalues --   -0.67627  -0.66554  -0.65951  -0.65578  -0.64418
 Alpha  occ. eigenvalues --   -0.63950  -0.62639  -0.62056  -0.60885  -0.59461
 Alpha  occ. eigenvalues --   -0.58429  -0.57890  -0.56982  -0.56674  -0.55388
 Alpha  occ. eigenvalues --   -0.54632  -0.54368  -0.53419  -0.52779  -0.52199
 Alpha  occ. eigenvalues --   -0.52035  -0.51253  -0.50815  -0.50073  -0.49931
 Alpha  occ. eigenvalues --   -0.48570  -0.47445  -0.46881  -0.46065  -0.45735
 Alpha  occ. eigenvalues --   -0.45704  -0.44137  -0.43576  -0.43485  -0.42364
 Alpha  occ. eigenvalues --   -0.40488  -0.39667  -0.37811  -0.36481  -0.34996
 Alpha  occ. eigenvalues --   -0.34557  -0.34224  -0.32774  -0.30263  -0.30000
 Alpha virt. eigenvalues --   -0.16070  -0.14703  -0.11574  -0.09496  -0.09000
 Alpha virt. eigenvalues --   -0.08527  -0.06140  -0.05195  -0.04818  -0.04684
 Alpha virt. eigenvalues --   -0.03286  -0.02755  -0.02697  -0.00413   0.00249

 Mulliken charges:
               1
     1  N   -0.747765
     2  H    0.432098
     3  H    0.428148
     4  H    0.443080
     5  C   -0.283338
     6  H    0.250432
     7  H    0.261895
     8  C    0.643134
     9  O   -0.500557
    10  N   -0.547637
    11  H    0.358521
    12  C   -0.275423
    13  H    0.238624
    14  H    0.213163
    15  C    0.630625
    16  O   -0.544920
    17  N   -0.578612
    18  H    0.357597
    19  C   -0.258227
    20  H    0.222236
    21  H    0.206874
    22  C    0.613023
    23  O   -0.510272
    24  N   -0.572625
    25  H    0.363702
    26  C   -0.247498
    27  H    0.184377
    28  H    0.181635
    29  C    0.593865
    30  O   -0.521584
    31  N   -0.582764
    32  H    0.351064
    33  C   -0.239671
    34  H    0.212672
    35  H    0.193462
    36  C    0.568903
    37  O   -0.489466
    38  N   -0.590195
    39  H    0.374261
    40  C   -0.235151
    41  H    0.229865
    42  H    0.194165
    43  C    0.597696
    44  O   -0.448689
    45  O   -0.583177
    46  H    0.412452
 Sum of Mulliken charges =   1.00000

 Dipole moment (field-independent basis, Debye):
    X=            -25.2798    Y=             16.8901    Z=              2.6159  Tot=             30.5154
 Quadrupole moment (field-independent basis, Debye-Ang):
   XX=            -12.7803   YY=           -114.0801   ZZ=           -117.6886
   XY=            -49.5752   XZ=            -26.6190   YZ=              8.5166

 Normal termination of Gaussian 16 at Thu Jun 30 18:39:42 2022.
