 Gaussian 16, Revision C.01,
 Gaussian 16:  ES64L-G16RevC.01  3-Jul-2019

 ----------------------------------------------------------------------
 # B3LYP/6-31G* empiricaldispersion=gd3 guess=read geom=check nosymm in
 tegral(ultrafinegrid)
 ----------------------------------------------------------------------

 ------------------------------------------------------
 Candidate Structure: Conf:197 Charge calc in gas phase
 ------------------------------------------------------
 Structure from the checkpoint file:  "conf-197.chk"
 Charge =  1 Multiplicity = 1

                          Input orientation:
 ---------------------------------------------------------------------
 Center     Atomic      Atomic             Coordinates (Angstroms)
 Number     Number       Type             X           Y           Z
 ---------------------------------------------------------------------
      1          7           0       -4.904853    8.279224    2.748212
      2          1           0       -4.993836    9.142158    2.205037
      3          1           0       -3.907710    8.193044    3.144366
      4          1           0       -5.585565    8.305760    3.512101
      5          6           0       -4.980716    7.029163    1.913856
      6          1           0       -5.160646    7.290414    0.869621
      7          1           0       -5.792743    6.393517    2.271106
      8          6           0       -3.588549    6.372082    2.121562
      9          8           0       -2.793874    6.969683    2.864456
     10          7           0       -3.368922    5.234147    1.490481
     11          1           0       -4.053947    4.771902    0.881743
     12          6           0       -2.126777    4.480230    1.566305
     13          1           0       -1.916408    4.184607    2.600092
     14          1           0       -1.285100    5.085464    1.211916
     15          6           0       -2.345076    3.246159    0.666422
     16          8           0       -3.423669    3.100845    0.083574
     17          7           0       -1.313595    2.402715    0.586096
     18          1           0       -0.431093    2.546221    1.077039
     19          6           0       -1.337006    1.193350   -0.212476
     20          1           0       -1.522665    1.427650   -1.267637
     21          1           0       -2.140394    0.524016    0.118240
     22          6           0        0.036445    0.524053   -0.036046
     23          8           0        0.894758    1.035972    0.684871
     24          7           0        0.207983   -0.622547   -0.711362
     25          1           0       -0.509388   -1.031297   -1.306116
     26          6           0        1.440479   -1.379079   -0.659611
     27          1           0        1.664946   -1.688976    0.368865
     28          1           0        2.286292   -0.769321   -1.001326
     29          6           0        1.261167   -2.606412   -1.563755
     30          8           0        0.207250   -2.803794   -2.168799
     31          7           0        2.326645   -3.425297   -1.636798
     32          1           0        3.191066   -3.253661   -1.130882
     33          6           0        2.321103   -4.622871   -2.445955
     34          1           0        1.554448   -5.327855   -2.096100
     35          1           0        2.083290   -4.385327   -3.490395
     36          6           0        3.705293   -5.268890   -2.337942
     37          8           0        4.571149   -4.805863   -1.603756
     38          7           0        3.892169   -6.361031   -3.129999
     39          1           0        3.077222   -6.775468   -3.563395
     40          6           0        5.058906   -7.203889   -2.966757
     41          1           0        5.891163   -6.578142   -2.636598
     42          1           0        5.341657   -7.650422   -3.924823
     43          6           0        4.914819   -8.337154   -1.954451
     44          8           0        5.800461   -9.117960   -1.705843
     45          8           0        3.687998   -8.374945   -1.382210
     46          1           0        3.702028   -9.122078   -0.753947
 ---------------------------------------------------------------------

 SCF Done:  E(RB3LYP) =  -1324.90524113     A.U. after    2 cycles

 Alpha  occ. eigenvalues --  -19.28775 -19.25876 -19.22848 -19.20197 -19.19595
 Alpha  occ. eigenvalues --  -19.19364 -19.19138 -14.62253 -14.51127 -14.46257
 Alpha  occ. eigenvalues --  -14.44015 -14.43653 -14.43190 -10.45574 -10.42702
 Alpha  occ. eigenvalues --  -10.40092 -10.38068 -10.37478 -10.36545 -10.36412
 Alpha  occ. eigenvalues --  -10.35539 -10.32195 -10.30630 -10.30314 -10.29965
 Alpha  occ. eigenvalues --   -1.21246  -1.16492  -1.15860  -1.14800  -1.12240
 Alpha  occ. eigenvalues --   -1.11533  -1.10733  -1.07651  -1.07521  -1.02763
 Alpha  occ. eigenvalues --   -1.00520  -1.00052  -0.99577  -0.92153  -0.86789
 Alpha  occ. eigenvalues --   -0.84373  -0.82678  -0.80038  -0.76752  -0.76161
 Alpha  occ. eigenvalues --   -0.75995  -0.73605  -0.69748  -0.68484  -0.68145
 Alpha  occ. eigenvalues --   -0.67363  -0.66455  -0.65549  -0.64948  -0.63018
 Alpha  occ. eigenvalues --   -0.62644  -0.60927  -0.59800  -0.59454  -0.57664
 Alpha  occ. eigenvalues --   -0.56771  -0.56627  -0.55589  -0.55218  -0.54819
 Alpha  occ. eigenvalues --   -0.54390  -0.54246  -0.53585  -0.53300  -0.52658
 Alpha  occ. eigenvalues --   -0.52127  -0.51238  -0.50775  -0.50020  -0.48143
 Alpha  occ. eigenvalues --   -0.47903  -0.47206  -0.46340  -0.46092  -0.45490
 Alpha  occ. eigenvalues --   -0.45182  -0.44254  -0.43866  -0.42552  -0.41036
 Alpha  occ. eigenvalues --   -0.37559  -0.37498  -0.36146  -0.35862  -0.34790
 Alpha  occ. eigenvalues --   -0.33981  -0.33834  -0.32774  -0.32608  -0.31409
 Alpha virt. eigenvalues --   -0.13799  -0.13441  -0.08445  -0.07776  -0.06406
 Alpha virt. eigenvalues --   -0.05769  -0.05165  -0.04700  -0.04084  -0.02895
 Alpha virt. eigenvalues --   -0.01980   0.00111   0.00550   0.01058   0.01502

 Mulliken charges:
               1
     1  N   -0.750687
     2  H    0.424194
     3  H    0.440988
     4  H    0.424188
     5  C   -0.277071
     6  H    0.250198
     7  H    0.250254
     8  C    0.640206
     9  O   -0.523391
    10  N   -0.604070
    11  H    0.381000
    12  C   -0.212321
    13  H    0.216253
    14  H    0.216242
    15  C    0.620285
    16  O   -0.534176
    17  N   -0.620705
    18  H    0.368967
    19  C   -0.200419
    20  H    0.201925
    21  H    0.201963
    22  C    0.612567
    23  O   -0.532162
    24  N   -0.622479
    25  H    0.363371
    26  C   -0.195274
    27  H    0.198000
    28  H    0.198373
    29  C    0.609271
    30  O   -0.531725
    31  N   -0.623671
    32  H    0.363299
    33  C   -0.195893
    34  H    0.196744
    35  H    0.197206
    36  C    0.603341
    37  O   -0.512127
    38  N   -0.584088
    39  H    0.342389
    40  C   -0.243407
    41  H    0.236310
    42  H    0.204426
    43  C    0.585669
    44  O   -0.437889
    45  O   -0.567363
    46  H    0.421289
 Sum of Mulliken charges =   1.00000

 Dipole moment (field-independent basis, Debye):
    X=            -18.7167    Y=             24.7663    Z=              6.1348  Tot=             31.6437
 Quadrupole moment (field-independent basis, Debye-Ang):
   XX=            -55.7558   YY=            136.6724   ZZ=           -105.4403
   XY=           -159.2068   XZ=            -62.0677   YZ=             89.8664

 Normal termination of Gaussian 16 at Thu Jun 30 18:39:49 2022.
