 Gaussian 16, Revision C.01,
 Gaussian 16:  ES64L-G16RevC.01  3-Jul-2019

 ----------------------------------------------------------------------
 # B3LYP/6-31G* empiricaldispersion=gd3 guess=read geom=check nosymm in
 tegral(ultrafinegrid)
 ----------------------------------------------------------------------

 ------------------------------------------------------
 Candidate Structure: Conf:961 Charge calc in gas phase
 ------------------------------------------------------
 Structure from the checkpoint file:  "conf-961.chk"
 Charge =  1 Multiplicity = 1

                          Input orientation:
 ---------------------------------------------------------------------
 Center     Atomic      Atomic             Coordinates (Angstroms)
 Number     Number       Type             X           Y           Z
 ---------------------------------------------------------------------
      1          7           0       -0.252163    2.015067   -0.939496
      2          1           0        0.517038    2.249353   -1.584053
      3          1           0        0.207295    1.443289   -0.183596
      4          1           0       -0.590641    2.863720   -0.479636
      5          6           0       -1.358308    1.248970   -1.573718
      6          1           0       -0.888774    0.466911   -2.175652
      7          1           0       -1.933506    1.909340   -2.228826
      8          6           0       -2.225068    0.673123   -0.449596
      9          8           0       -2.070163    1.043326    0.708513
     10          7           0       -3.153635   -0.248388   -0.822794
     11          1           0       -3.037336   -0.696444   -1.723223
     12          6           0       -3.747715   -1.055458    0.229464
     13          1           0       -4.519306   -1.695068   -0.209313
     14          1           0       -4.222439   -0.397690    0.962021
     15          6           0       -2.663237   -1.926672    0.889761
     16          8           0       -1.632160   -2.218344    0.292103
     17          7           0       -2.891810   -2.330564    2.167450
     18          1           0       -3.776498   -2.128918    2.613976
     19          6           0       -1.956212   -3.251597    2.808013
     20          1           0       -1.900865   -4.200228    2.267901
     21          1           0       -2.305451   -3.445127    3.826182
     22          6           0       -0.522998   -2.704687    2.856867
     23          8           0        0.442002   -3.445111    2.697499
     24          7           0       -0.394408   -1.373014    3.131904
     25          1           0       -1.206038   -0.778314    3.011470
     26          6           0        0.914965   -0.736771    3.016335
     27          1           0        1.663613   -1.410874    3.437988
     28          1           0        0.912364    0.206619    3.562547
     29          6           0        1.164054   -0.445234    1.537383
     30          8           0        0.937708    0.677836    1.074665
     31          7           0        1.559666   -1.498692    0.776532
     32          1           0        1.526385   -2.404673    1.244018
     33          6           0        1.284812   -1.503496   -0.659037
     34          1           0        1.662438   -2.446882   -1.066243
     35          1           0        0.207496   -1.475333   -0.839857
     36          6           0        1.920935   -0.368972   -1.459703
     37          8           0        1.336688    0.105089   -2.436344
     38          7           0        3.164538    0.021396   -1.095100
     39          1           0        3.552870   -0.337233   -0.233219
     40          6           0        3.914810    0.985650   -1.866781
     41          1           0        3.796825    0.764404   -2.934647
     42          1           0        4.976913    0.902468   -1.628128
     43          6           0        3.471371    2.433749   -1.679705
     44          8           0        2.376899    2.813236   -1.310044
     45          8           0        4.459084    3.265420   -2.031371
     46          1           0        4.128888    4.182199   -1.961959
 ---------------------------------------------------------------------

 SCF Done:  E(RB3LYP) =  -1324.96483190     A.U. after    1 cycles

 Alpha  occ. eigenvalues --  -19.31511 -19.26500 -19.25400 -19.25148 -19.24267
 Alpha  occ. eigenvalues --  -19.23583 -19.22698 -14.55164 -14.49280 -14.49099
 Alpha  occ. eigenvalues --  -14.48313 -14.48058 -14.47428 -10.44593 -10.42618
 Alpha  occ. eigenvalues --  -10.41383 -10.41351 -10.40948 -10.40084 -10.37572
 Alpha  occ. eigenvalues --  -10.35645 -10.35379 -10.34351 -10.34127 -10.33971
 Alpha  occ. eigenvalues --   -1.22751  -1.17880  -1.16763  -1.16250  -1.15431
 Alpha  occ. eigenvalues --   -1.14493  -1.13713  -1.10361  -1.05609  -1.05048
 Alpha  occ. eigenvalues --   -1.04993  -1.04006  -1.02918  -0.89267  -0.88476
 Alpha  occ. eigenvalues --   -0.86657  -0.84719  -0.82409  -0.80503  -0.74598
 Alpha  occ. eigenvalues --   -0.72770  -0.71363  -0.70905  -0.70587  -0.70182
 Alpha  occ. eigenvalues --   -0.69659  -0.68947  -0.66116  -0.65052  -0.64193
 Alpha  occ. eigenvalues --   -0.63063  -0.62418  -0.61952  -0.61655  -0.60346
 Alpha  occ. eigenvalues --   -0.59986  -0.59568  -0.58104  -0.57742  -0.57511
 Alpha  occ. eigenvalues --   -0.56671  -0.56196  -0.55573  -0.55312  -0.54225
 Alpha  occ. eigenvalues --   -0.53712  -0.53042  -0.52344  -0.52207  -0.52028
 Alpha  occ. eigenvalues --   -0.51744  -0.50818  -0.50600  -0.50012  -0.49369
 Alpha  occ. eigenvalues --   -0.49153  -0.47725  -0.47049  -0.44023  -0.41051
 Alpha  occ. eigenvalues --   -0.40389  -0.39939  -0.39431  -0.39134  -0.38950
 Alpha  occ. eigenvalues --   -0.37888  -0.37640  -0.36997  -0.36350  -0.35751
 Alpha virt. eigenvalues --   -0.11833  -0.11606  -0.11503  -0.10098  -0.09661
 Alpha virt. eigenvalues --   -0.08701  -0.05742  -0.04408  -0.03654  -0.03092
 Alpha virt. eigenvalues --   -0.02273   0.00164   0.00349   0.00890   0.01572

 Mulliken charges:
               1
     1  N   -0.769586
     2  H    0.436802
     3  H    0.468240
     4  H    0.399664
     5  C   -0.290816
     6  H    0.252723
     7  H    0.226627
     8  C    0.618697
     9  O   -0.511321
    10  N   -0.562044
    11  H    0.353902
    12  C   -0.257695
    13  H    0.210147
    14  H    0.206550
    15  C    0.623060
    16  O   -0.514629
    17  N   -0.613744
    18  H    0.353769
    19  C   -0.216825
    20  H    0.216333
    21  H    0.202476
    22  C    0.616676
    23  O   -0.520110
    24  N   -0.569721
    25  H    0.355068
    26  C   -0.232390
    27  H    0.210961
    28  H    0.199614
    29  C    0.596918
    30  O   -0.541689
    31  N   -0.594294
    32  H    0.389143
    33  C   -0.244928
    34  H    0.208206
    35  H    0.212222
    36  C    0.609756
    37  O   -0.556186
    38  N   -0.559482
    39  H    0.357782
    40  C   -0.230221
    41  H    0.233845
    42  H    0.211793
    43  C    0.607513
    44  O   -0.492457
    45  O   -0.531975
    46  H    0.431626
 Sum of Mulliken charges =   1.00000

 Dipole moment (field-independent basis, Debye):
    X=             -2.0815    Y=              1.9231    Z=             -0.3629  Tot=              2.8571
 Quadrupole moment (field-independent basis, Debye-Ang):
   XX=            -80.8567   YY=           -115.8938   ZZ=           -118.1422
   XY=             22.2545   XZ=            -13.3350   YZ=            -17.2163

 Normal termination of Gaussian 16 at Thu Jun 30 18:39:46 2022.
