 Gaussian 16, Revision C.01,
 Gaussian 16:  ES64L-G16RevC.01  3-Jul-2019

 ----------------------------------------------------------------------
 # B3LYP/6-31G* empiricaldispersion=gd3 guess=read geom=check nosymm in
 tegral(ultrafinegrid)
 ----------------------------------------------------------------------

 ------------------------------------------------------
 Candidate Structure: Conf:607 Charge calc in gas phase
 ------------------------------------------------------
 Structure from the checkpoint file:  "conf-607.chk"
 Charge =  1 Multiplicity = 1

                          Input orientation:
 ---------------------------------------------------------------------
 Center     Atomic      Atomic             Coordinates (Angstroms)
 Number     Number       Type             X           Y           Z
 ---------------------------------------------------------------------
      1          7           0       -7.962477    4.519095   -1.993172
      2          1           0       -8.392794    5.303542   -1.495912
      3          1           0       -8.688793    4.040980   -2.533277
      4          1           0       -7.191048    4.877847   -2.650384
      5          6           0       -7.169083    3.601160   -1.102719
      6          1           0       -7.559158    2.584547   -1.176556
      7          1           0       -7.237945    3.938797   -0.067161
      8          6           0       -5.724001    3.715838   -1.660422
      9          8           0       -5.556104    4.472957   -2.628840
     10          7           0       -4.795136    2.997552   -1.056543
     11          1           0       -4.975642    2.380308   -0.257398
     12          6           0       -3.393051    2.981238   -1.445068
     13          1           0       -2.959067    3.984381   -1.368386
     14          1           0       -3.283693    2.646690   -2.482648
     15          6           0       -2.709726    2.002636   -0.468603
     16          8           0       -3.379426    1.442907    0.403605
     17          7           0       -1.396954    1.829662   -0.648576
     18          1           0       -0.865167    2.299730   -1.380049
     19          6           0       -0.599535    0.942960    0.174901
     20          1           0       -0.988604   -0.081577    0.131217
     21          1           0       -0.628811    1.256233    1.225733
     22          6           0        0.836454    1.003683   -0.368183
     23          8           0        1.119403    1.725607   -1.324433
     24          7           0        1.727744    0.225677    0.270566
     25          1           0        1.478421   -0.374763    1.051618
     26          6           0        3.117202    0.165170   -0.127772
     27          1           0        3.606823    1.138052    0.009937
     28          1           0        3.200399   -0.085473   -1.193008
     29          6           0        3.806546   -0.899490    0.731031
     30          8           0        3.189550   -1.493748    1.620483
     31          7           0        5.108425   -1.119110    0.455707
     32          1           0        5.524268   -0.672936   -0.351123
     33          6           0        5.918721   -2.085046    1.198228
     34          1           0        6.969311   -1.814254    1.093095
     35          1           0        5.634584   -2.022934    2.253584
     36          6           0        5.767223   -3.535816    0.703192
     37          8           0        6.714949   -4.155670    0.245563
     38          7           0        4.498867   -4.033360    0.810868
     39          1           0        3.826261   -3.488711    1.340514
     40          6           0        4.224486   -5.428714    0.558993
     41          1           0        5.010177   -5.812154   -0.099084
     42          1           0        3.267595   -5.556395    0.043910
     43          6           0        4.195721   -6.326630    1.791887
     44          8           0        3.778887   -7.460831    1.775762
     45          8           0        4.695836   -5.722924    2.893811
     46          1           0        4.664399   -6.388206    3.607393
 ---------------------------------------------------------------------

 SCF Done:  E(RB3LYP) =  -1324.90259170     A.U. after    1 cycles

 Alpha  occ. eigenvalues --  -19.29148 -19.24917 -19.23455 -19.21462 -19.21293
 Alpha  occ. eigenvalues --  -19.18748 -19.17304 -14.62619 -14.51563 -14.46969
 Alpha  occ. eigenvalues --  -14.45684 -14.45301 -14.41509 -10.45970 -10.43059
 Alpha  occ. eigenvalues --  -10.40713 -10.38585 -10.38557 -10.37164 -10.36057
 Alpha  occ. eigenvalues --  -10.34623 -10.33068 -10.32296 -10.30120 -10.28764
 Alpha  occ. eigenvalues --   -1.21622  -1.16257  -1.15606  -1.15417  -1.13618
 Alpha  occ. eigenvalues --   -1.12874  -1.09187  -1.08087  -1.06586  -1.03474
 Alpha  occ. eigenvalues --   -1.01820  -1.01472  -0.98021  -0.92549  -0.87453
 Alpha  occ. eigenvalues --   -0.85128  -0.82512  -0.79997  -0.77181  -0.76498
 Alpha  occ. eigenvalues --   -0.76363  -0.74100  -0.70496  -0.68951  -0.68543
 Alpha  occ. eigenvalues --   -0.67851  -0.66945  -0.65453  -0.64434  -0.63528
 Alpha  occ. eigenvalues --   -0.63030  -0.61056  -0.60128  -0.59959  -0.59132
 Alpha  occ. eigenvalues --   -0.57701  -0.57447  -0.56372  -0.56131  -0.55653
 Alpha  occ. eigenvalues --   -0.54915  -0.54148  -0.53279  -0.53224  -0.52993
 Alpha  occ. eigenvalues --   -0.51233  -0.50939  -0.50483  -0.49313  -0.49005
 Alpha  occ. eigenvalues --   -0.48249  -0.47755  -0.47303  -0.46170  -0.44980
 Alpha  occ. eigenvalues --   -0.44769  -0.44228  -0.43863  -0.42985  -0.41457
 Alpha  occ. eigenvalues --   -0.38107  -0.36906  -0.36712  -0.36452  -0.35948
 Alpha  occ. eigenvalues --   -0.35050  -0.34446  -0.34236  -0.30624  -0.30107
 Alpha virt. eigenvalues --   -0.14183  -0.13757  -0.08988  -0.08198  -0.07434
 Alpha virt. eigenvalues --   -0.06780  -0.06367  -0.04114  -0.03623  -0.03277
 Alpha virt. eigenvalues --   -0.02357  -0.00605  -0.00171   0.00602   0.00722

 Mulliken charges:
               1
     1  N   -0.750276
     2  H    0.424916
     3  H    0.424944
     4  H    0.441114
     5  C   -0.277227
     6  H    0.250737
     7  H    0.250809
     8  C    0.640288
     9  O   -0.522199
    10  N   -0.604480
    11  H    0.381191
    12  C   -0.211842
    13  H    0.216778
    14  H    0.216637
    15  C    0.620489
    16  O   -0.532032
    17  N   -0.621384
    18  H    0.369124
    19  C   -0.199737
    20  H    0.202719
    21  H    0.203740
    22  C    0.613102
    23  O   -0.528444
    24  N   -0.623765
    25  H    0.364286
    26  C   -0.193835
    27  H    0.202831
    28  H    0.200320
    29  C    0.613306
    30  O   -0.543440
    31  N   -0.587853
    32  H    0.350999
    33  C   -0.248379
    34  H    0.196020
    35  H    0.205526
    36  C    0.595974
    37  O   -0.490332
    38  N   -0.590605
    39  H    0.363162
    40  C   -0.233927
    41  H    0.231073
    42  H    0.188346
    43  C    0.578932
    44  O   -0.447894
    45  O   -0.557765
    46  H    0.418052
 Sum of Mulliken charges =   1.00000

 Dipole moment (field-independent basis, Debye):
    X=            -27.2262    Y=             18.0908    Z=             -4.9393  Tot=             33.0597
 Quadrupole moment (field-independent basis, Debye-Ang):
   XX=            107.1022   YY=            -97.4493   ZZ=           -126.9103
   XY=           -113.8997   XZ=             57.1787   YZ=            -26.0532

 Normal termination of Gaussian 16 at Thu Jun 30 18:39:41 2022.
