 Gaussian 16, Revision C.01,
 Gaussian 16:  ES64L-G16RevC.01  3-Jul-2019

 ----------------------------------------------------------------------
 # B3LYP/6-31G* empiricaldispersion=gd3 guess=read geom=check nosymm in
 tegral(ultrafinegrid)
 ----------------------------------------------------------------------

 ------------------------------------------------------
 Candidate Structure: Conf:727 Charge calc in gas phase
 ------------------------------------------------------
 Structure from the checkpoint file:  "conf-727.chk"
 Charge =  1 Multiplicity = 1

                          Input orientation:
 ---------------------------------------------------------------------
 Center     Atomic      Atomic             Coordinates (Angstroms)
 Number     Number       Type             X           Y           Z
 ---------------------------------------------------------------------
      1          7           0       -1.220774    7.543182    0.852248
      2          1           0       -1.741201    7.968979    1.624500
      3          1           0       -1.889811    7.305104    0.049772
      4          1           0       -0.515072    8.212155    0.531459
      5          6           0       -0.660413    6.184783    1.179447
      6          1           0       -0.886826    5.931431    2.216694
      7          1           0        0.421815    6.188036    1.037720
      8          6           0       -1.378285    5.241726    0.176735
      9          8           0       -2.181623    5.762096   -0.609862
     10          7           0       -1.074273    3.955587    0.242431
     11          1           0       -0.411862    3.560690    0.914652
     12          6           0       -1.672455    2.945369   -0.617222
     13          1           0       -1.438198    3.148315   -1.668764
     14          1           0       -2.762980    2.949542   -0.510649
     15          6           0       -1.077275    1.598153   -0.172660
     16          8           0       -0.243158    1.572225    0.741587
     17          7           0       -1.522852    0.514980   -0.821471
     18          1           0       -2.171000    0.627477   -1.590402
     19          6           0       -1.105326   -0.847992   -0.472566
     20          1           0       -1.841898   -1.552484   -0.857754
     21          1           0       -1.071684   -0.946905    0.614992
     22          6           0        0.259877   -1.223183   -1.066524
     23          8           0        0.371796   -2.038550   -1.980800
     24          7           0        1.337420   -0.613913   -0.506761
     25          1           0        1.174008    0.061588    0.231531
     26          6           0        2.685400   -1.082434   -0.812537
     27          1           0        3.403394   -0.378139   -0.382175
     28          1           0        2.836182   -1.127282   -1.892059
     29          6           0        2.956725   -2.508554   -0.277957
     30          8           0        3.621510   -3.308103   -0.911110
     31          7           0        2.417707   -2.757718    0.963554
     32          1           0        1.716901   -2.092650    1.272873
     33          6           0        2.054507   -4.113626    1.343306
     34          1           0        2.577696   -4.808534    0.681438
     35          1           0        2.357345   -4.326482    2.375844
     36          6           0        0.526651   -4.222485    1.225887
     37          8           0       -0.179504   -3.225110    1.391036
     38          7           0       -0.006126   -5.434308    0.917001
     39          1           0        0.621637   -6.125746    0.527523
     40          6           0       -1.386872   -5.453922    0.437291
     41          1           0       -2.071854   -5.151642    1.229851
     42          1           0       -1.632625   -6.472095    0.123362
     43          6           0       -1.568268   -4.476646   -0.731851
     44          8           0       -2.524931   -3.743106   -0.865831
     45          8           0       -0.513685   -4.528366   -1.555608
     46          1           0       -0.463589   -3.691962   -2.074709
 ---------------------------------------------------------------------

 SCF Done:  E(RB3LYP) =  -1324.90674912     A.U. after    2 cycles

 Alpha  occ. eigenvalues --  -19.30153 -19.25540 -19.24016 -19.20996 -19.19852
 Alpha  occ. eigenvalues --  -19.19674 -19.17927 -14.63553 -14.52805 -14.49221
 Alpha  occ. eigenvalues --  -14.44892 -14.43897 -14.42018 -10.47046 -10.44007
 Alpha  occ. eigenvalues --  -10.42585 -10.37942 -10.37922 -10.37547 -10.36552
 Alpha  occ. eigenvalues --  -10.35212 -10.31923 -10.30420 -10.30026 -10.29805
 Alpha  occ. eigenvalues --   -1.22641  -1.17488  -1.16965  -1.15692  -1.12691
 Alpha  occ. eigenvalues --   -1.11667  -1.09703  -1.09290  -1.06968  -1.05090
 Alpha  occ. eigenvalues --   -1.01181  -0.99952  -0.98394  -0.93589  -0.88239
 Alpha  occ. eigenvalues --   -0.84013  -0.82411  -0.79931  -0.77351  -0.77318
 Alpha  occ. eigenvalues --   -0.76630  -0.75281  -0.71760  -0.69710  -0.68785
 Alpha  occ. eigenvalues --   -0.67203  -0.66224  -0.65870  -0.64115  -0.64015
 Alpha  occ. eigenvalues --   -0.63589  -0.61877  -0.61541  -0.61135  -0.60315
 Alpha  occ. eigenvalues --   -0.58322  -0.57172  -0.56373  -0.56286  -0.55334
 Alpha  occ. eigenvalues --   -0.54852  -0.54172  -0.53648  -0.52928  -0.51866
 Alpha  occ. eigenvalues --   -0.51612  -0.51092  -0.50617  -0.49588  -0.49016
 Alpha  occ. eigenvalues --   -0.48743  -0.47666  -0.47094  -0.46147  -0.45325
 Alpha  occ. eigenvalues --   -0.45181  -0.43793  -0.43326  -0.42628  -0.42603
 Alpha  occ. eigenvalues --   -0.40164  -0.39229  -0.37271  -0.35960  -0.35710
 Alpha  occ. eigenvalues --   -0.34111  -0.34069  -0.32359  -0.31605  -0.30872
 Alpha virt. eigenvalues --   -0.15218  -0.14540  -0.10929  -0.09105  -0.08041
 Alpha virt. eigenvalues --   -0.07764  -0.06308  -0.04610  -0.04383  -0.04253
 Alpha virt. eigenvalues --   -0.03588  -0.02867  -0.00607  -0.00164   0.01214

 Mulliken charges:
               1
     1  N   -0.749235
     2  H    0.427382
     3  H    0.442136
     4  H    0.427238
     5  C   -0.277564
     6  H    0.252725
     7  H    0.252048
     8  C    0.641485
     9  O   -0.517277
    10  N   -0.605922
    11  H    0.381345
    12  C   -0.210681
    13  H    0.219988
    14  H    0.221177
    15  C    0.624665
    16  O   -0.548180
    17  N   -0.590160
    18  H    0.359863
    19  C   -0.273006
    20  H    0.234690
    21  H    0.226229
    22  C    0.627447
    23  O   -0.530601
    24  N   -0.612557
    25  H    0.364249
    26  C   -0.230644
    27  H    0.180029
    28  H    0.214254
    29  C    0.590002
    30  O   -0.481736
    31  N   -0.568219
    32  H    0.332808
    33  C   -0.242949
    34  H    0.203158
    35  H    0.192615
    36  C    0.612536
    37  O   -0.540713
    38  N   -0.564864
    39  H    0.347986
    40  C   -0.215469
    41  H    0.208994
    42  H    0.192305
    43  C    0.590410
    44  O   -0.475730
    45  O   -0.579310
    46  H    0.447049
 Sum of Mulliken charges =   1.00000

 Dipole moment (field-independent basis, Debye):
    X=             -4.8157    Y=             27.1078    Z=              5.6247  Tot=             28.1009
 Quadrupole moment (field-independent basis, Debye-Ang):
   XX=           -144.2019   YY=             91.9147   ZZ=           -137.7396
   XY=            -21.0608   XZ=              3.1346   YZ=             20.5864

 Normal termination of Gaussian 16 at Thu Jun 30 18:40:12 2022.
