 Gaussian 16, Revision C.01,
 Gaussian 16:  ES64L-G16RevC.01  3-Jul-2019

 ----------------------------------------------------------------------
 # B3LYP/6-31G* empiricaldispersion=gd3 guess=read geom=check nosymm in
 tegral(ultrafinegrid)
 ----------------------------------------------------------------------

 ------------------------------------------------------
 Candidate Structure: Conf:824 Charge calc in gas phase
 ------------------------------------------------------
 Structure from the checkpoint file:  "conf-824.chk"
 Charge =  1 Multiplicity = 1

                          Input orientation:
 ---------------------------------------------------------------------
 Center     Atomic      Atomic             Coordinates (Angstroms)
 Number     Number       Type             X           Y           Z
 ---------------------------------------------------------------------
      1          7           0        0.906661    2.836806    0.448738
      2          1           0        1.517603    2.848990    1.283883
      3          1           0        0.973389    3.701412   -0.093575
      4          1           0        1.275743    2.063273   -0.162328
      5          6           0       -0.490407    2.565926    0.895443
      6          1           0       -0.900923    3.475929    1.341263
      7          1           0       -0.428612    1.783017    1.649991
      8          6           0       -1.306645    2.113083   -0.311585
      9          8           0       -0.862955    2.249706   -1.448977
     10          7           0       -2.524969    1.601864   -0.019831
     11          1           0       -2.716419    1.310198    0.930316
     12          6           0       -3.361826    1.027219   -1.073300
     13          1           0       -3.318647    1.685824   -1.943254
     14          1           0       -4.388958    0.964216   -0.712942
     15          6           0       -2.876011   -0.390752   -1.391489
     16          8           0       -3.329946   -1.366997   -0.789951
     17          7           0       -1.888995   -0.473165   -2.317303
     18          1           0       -1.417582    0.383338   -2.591048
     19          6           0       -1.272621   -1.752730   -2.652062
     20          1           0       -0.749687   -1.658905   -3.603500
     21          1           0       -2.063785   -2.502840   -2.741922
     22          6           0       -0.248197   -2.173252   -1.592632
     23          8           0        0.962569   -2.134451   -1.839809
     24          7           0       -0.780961   -2.576065   -0.415159
     25          1           0       -1.788126   -2.438926   -0.309944
     26          6           0        0.020219   -2.805440    0.759563
     27          1           0        0.994151   -3.201055    0.451720
     28          1           0       -0.460536   -3.560481    1.391035
     29          6           0        0.261281   -1.511697    1.554844
     30          8           0       -0.004572   -0.402680    1.096431
     31          7           0        0.857173   -1.656486    2.773746
     32          1           0        0.959668   -2.576888    3.180863
     33          6           0        1.187800   -0.477231    3.571663
     34          1           0        0.293027    0.085095    3.850947
     35          1           0        1.692430   -0.807247    4.484165
     36          6           0        2.089618    0.484580    2.777594
     37          8           0        1.856084    1.693850    2.734149
     38          7           0        3.132361   -0.111169    2.144241
     39          1           0        3.141307   -1.124637    2.156848
     40          6           0        3.734147    0.477066    0.949896
     41          1           0        4.759353    0.115830    0.839725
     42          1           0        3.741196    1.561397    1.045713
     43          6           0        2.877481    0.034487   -0.238938
     44          8           0        2.158289    0.781789   -0.889063
     45          8           0        2.941371   -1.274147   -0.395319
     46          1           0        2.226316   -1.596648   -1.034576
 ---------------------------------------------------------------------

 SCF Done:  E(RB3LYP) =  -1324.97499974     A.U. after    3 cycles

 Alpha  occ. eigenvalues --  -19.30068 -19.26688 -19.26383 -19.26217 -19.25632
 Alpha  occ. eigenvalues --  -19.24551 -19.23422 -14.56735 -14.50921 -14.49988
 Alpha  occ. eigenvalues --  -14.49817 -14.47824 -14.47743 -10.44666 -10.43271
 Alpha  occ. eigenvalues --  -10.43156 -10.42950 -10.41167 -10.40422 -10.38110
 Alpha  occ. eigenvalues --  -10.36916 -10.36057 -10.36045 -10.34687 -10.33829
 Alpha  occ. eigenvalues --   -1.22187  -1.18509  -1.17837  -1.17446  -1.16027
 Alpha  occ. eigenvalues --   -1.14979  -1.13510  -1.11516  -1.07360  -1.05909
 Alpha  occ. eigenvalues --   -1.05675  -1.04768  -1.03547  -0.90243  -0.89325
 Alpha  occ. eigenvalues --   -0.87582  -0.85277  -0.83156  -0.80850  -0.74966
 Alpha  occ. eigenvalues --   -0.73474  -0.72694  -0.72236  -0.71575  -0.70984
 Alpha  occ. eigenvalues --   -0.70500  -0.69347  -0.67221  -0.65868  -0.65221
 Alpha  occ. eigenvalues --   -0.64333  -0.62981  -0.62618  -0.62447  -0.61772
 Alpha  occ. eigenvalues --   -0.60014  -0.59728  -0.59547  -0.59013  -0.58259
 Alpha  occ. eigenvalues --   -0.57791  -0.57421  -0.56142  -0.55460  -0.54530
 Alpha  occ. eigenvalues --   -0.54382  -0.53866  -0.53675  -0.53044  -0.52540
 Alpha  occ. eigenvalues --   -0.52085  -0.51804  -0.50688  -0.50218  -0.49862
 Alpha  occ. eigenvalues --   -0.49475  -0.48951  -0.48414  -0.43847  -0.42552
 Alpha  occ. eigenvalues --   -0.41655  -0.40692  -0.40506  -0.39938  -0.39655
 Alpha  occ. eigenvalues --   -0.39138  -0.38293  -0.37863  -0.36457  -0.36061
 Alpha virt. eigenvalues --   -0.13453  -0.12191  -0.11955  -0.11269  -0.10713
 Alpha virt. eigenvalues --   -0.09302  -0.07077  -0.05674  -0.04135  -0.02132
 Alpha virt. eigenvalues --   -0.01187  -0.00536  -0.00287   0.00336   0.00866

 Mulliken charges:
               1
     1  N   -0.780153
     2  H    0.430776
     3  H    0.404501
     4  H    0.463404
     5  C   -0.275914
     6  H    0.226588
     7  H    0.245871
     8  C    0.640067
     9  O   -0.518295
    10  N   -0.580658
    11  H    0.354220
    12  C   -0.239594
    13  H    0.210159
    14  H    0.209358
    15  C    0.605356
    16  O   -0.527356
    17  N   -0.571683
    18  H    0.378142
    19  C   -0.243882
    20  H    0.208492
    21  H    0.213084
    22  C    0.621013
    23  O   -0.551533
    24  N   -0.561233
    25  H    0.390598
    26  C   -0.265944
    27  H    0.218295
    28  H    0.198306
    29  C    0.620699
    30  O   -0.531012
    31  N   -0.609960
    32  H    0.358220
    33  C   -0.223188
    34  H    0.206377
    35  H    0.210091
    36  C    0.620692
    37  O   -0.554185
    38  N   -0.546587
    39  H    0.353362
    40  C   -0.223792
    41  H    0.218011
    42  H    0.191619
    43  C    0.611328
    44  O   -0.497436
    45  O   -0.590758
    46  H    0.484534
 Sum of Mulliken charges =   1.00000

 Dipole moment (field-independent basis, Debye):
    X=              1.7473    Y=              1.7322    Z=              6.5364  Tot=              6.9841
 Quadrupole moment (field-independent basis, Debye-Ang):
   XX=           -116.7925   YY=           -104.5046   ZZ=           -115.9922
   XY=             -4.4257   XZ=             13.3209   YZ=             -7.8948

 Normal termination of Gaussian 16 at Thu Jun 30 18:40:27 2022.
