 Gaussian 16, Revision C.01,
 Gaussian 16:  ES64L-G16RevC.01  3-Jul-2019

 ----------------------------------------------------------------------
 # B3LYP/6-31G* empiricaldispersion=gd3 guess=read geom=check nosymm in
 tegral(ultrafinegrid)
 ----------------------------------------------------------------------

 ------------------------------------------------------
 Candidate Structure: Conf:315 Charge calc in gas phase
 ------------------------------------------------------
 Structure from the checkpoint file:  "conf-315.chk"
 Charge =  1 Multiplicity = 1

                          Input orientation:
 ---------------------------------------------------------------------
 Center     Atomic      Atomic             Coordinates (Angstroms)
 Number     Number       Type             X           Y           Z
 ---------------------------------------------------------------------
      1          7           0       -9.509458    3.720688    1.537984
      2          1           0      -10.375438    3.186078    1.646804
      3          1           0       -9.752936    4.695420    1.342553
      4          1           0       -8.921500    3.659626    2.437756
      5          6           0       -8.552379    3.125079    0.541150
      6          1           0       -8.328169    3.854185   -0.239353
      7          1           0       -8.994604    2.236419    0.087524
      8          6           0       -7.303660    2.784052    1.399939
      9          8           0       -7.367206    3.053808    2.609870
     10          7           0       -6.281613    2.236598    0.770057
     11          1           0       -6.268729    2.029489   -0.235269
     12          6           0       -5.032847    1.851868    1.410090
     13          1           0       -5.213547    1.109763    2.195547
     14          1           0       -4.551807    2.720734    1.872678
     15          6           0       -4.160977    1.267095    0.279352
     16          8           0       -4.607461    1.220103   -0.870802
     17          7           0       -2.949956    0.843209    0.646829
     18          1           0       -2.604054    0.892570    1.605216
     19          6           0       -1.995759    0.265564   -0.278786
     20          1           0       -1.750075    0.975525   -1.077733
     21          1           0       -2.410344   -0.630538   -0.756124
     22          6           0       -0.743736   -0.084654    0.543234
     23          8           0       -0.706349    0.141485    1.754162
     24          7           0        0.262547   -0.636421   -0.151064
     25          1           0        0.216079   -0.816263   -1.151736
     26          6           0        1.512937   -1.026988    0.463902
     27          1           0        1.343718   -1.769764    1.253617
     28          1           0        2.001615   -0.164883    0.935036
     29          6           0        2.401492   -1.611118   -0.643640
     30          8           0        2.004870   -1.679277   -1.807397
     31          7           0        3.615659   -2.029756   -0.243793
     32          1           0        3.933074   -1.969181    0.720065
     33          6           0        4.573288   -2.604668   -1.161666
     34          1           0        4.161396   -3.500070   -1.644974
     35          1           0        4.819017   -1.896244   -1.963367
     36          6           0        5.829779   -2.960494   -0.358124
     37          8           0        5.900213   -2.750578    0.851158
     38          7           0        6.833405   -3.512584   -1.072689
     39          1           0        6.758238   -3.678252   -2.070215
     40          6           0        8.079983   -3.899512   -0.448412
     41          1           0        7.918269   -4.642258    0.342434
     42          1           0        8.571704   -3.042852    0.028642
     43          6           0        8.996224   -4.481402   -1.505847
     44          8           0        8.707890   -4.593781   -2.677938
     45          8           0       10.170952   -4.856816   -0.973738
     46          1           0       10.715278   -5.221334   -1.697506
 ---------------------------------------------------------------------

 SCF Done:  E(RB3LYP) =  -1324.90993902     A.U. after    2 cycles

 Alpha  occ. eigenvalues --  -19.28691 -19.26541 -19.22728 -19.21205 -19.20010
 Alpha  occ. eigenvalues --  -19.18817 -19.18645 -14.62171 -14.51032 -14.46125
 Alpha  occ. eigenvalues --  -14.43799 -14.43002 -14.42824 -10.45486 -10.42618
 Alpha  occ. eigenvalues --  -10.39970 -10.39381 -10.37289 -10.36092 -10.35932
 Alpha  occ. eigenvalues --  -10.35436 -10.32030 -10.30384 -10.30217 -10.29868
 Alpha  occ. eigenvalues --   -1.21161  -1.17645  -1.15774  -1.14681  -1.12029
 Alpha  occ. eigenvalues --   -1.11024  -1.10298  -1.08821  -1.07557  -1.02628
 Alpha  occ. eigenvalues --   -1.00303  -0.99570  -0.99147  -0.92065  -0.86664
 Alpha  occ. eigenvalues --   -0.84205  -0.82780  -0.80193  -0.76774  -0.76083
 Alpha  occ. eigenvalues --   -0.75913  -0.73505  -0.69695  -0.68831  -0.68055
 Alpha  occ. eigenvalues --   -0.67062  -0.66185  -0.65292  -0.64846  -0.62738
 Alpha  occ. eigenvalues --   -0.62558  -0.60429  -0.59411  -0.59352  -0.56865
 Alpha  occ. eigenvalues --   -0.56593  -0.56418  -0.55711  -0.55700  -0.54851
 Alpha  occ. eigenvalues --   -0.54644  -0.54164  -0.53859  -0.53071  -0.52667
 Alpha  occ. eigenvalues --   -0.52425  -0.52092  -0.50667  -0.49836  -0.48419
 Alpha  occ. eigenvalues --   -0.47785  -0.47649  -0.46623  -0.45783  -0.45511
 Alpha  occ. eigenvalues --   -0.45348  -0.43784  -0.43559  -0.41944  -0.40944
 Alpha  occ. eigenvalues --   -0.38803  -0.37379  -0.36008  -0.35268  -0.34588
 Alpha  occ. eigenvalues --   -0.33832  -0.33398  -0.32902  -0.32276  -0.31663
 Alpha virt. eigenvalues --   -0.13713  -0.13367  -0.08342  -0.07681  -0.06319
 Alpha virt. eigenvalues --   -0.05837  -0.05553  -0.04536  -0.03553  -0.02810
 Alpha virt. eigenvalues --   -0.01895   0.00226   0.01160   0.01477   0.01639

 Mulliken charges:
               1
     1  N   -0.750742
     2  H    0.424070
     3  H    0.424066
     4  H    0.440926
     5  C   -0.277077
     6  H    0.250165
     7  H    0.250201
     8  C    0.640204
     9  O   -0.523662
    10  N   -0.604013
    11  H    0.381057
    12  C   -0.212356
    13  H    0.216124
    14  H    0.216135
    15  C    0.620341
    16  O   -0.534353
    17  N   -0.620598
    18  H    0.368818
    19  C   -0.200640
    20  H    0.201932
    21  H    0.201980
    22  C    0.612450
    23  O   -0.532880
    24  N   -0.622246
    25  H    0.363561
    26  C   -0.195296
    27  H    0.197505
    28  H    0.197542
    29  C    0.609137
    30  O   -0.532000
    31  N   -0.623117
    32  H    0.362412
    33  C   -0.193196
    34  H    0.196006
    35  H    0.195953
    36  C    0.608862
    37  O   -0.524746
    38  N   -0.625125
    39  H    0.359817
    40  C   -0.176539
    41  H    0.212692
    42  H    0.212731
    43  C    0.568115
    44  O   -0.456506
    45  O   -0.554581
    46  H    0.426868
 Sum of Mulliken charges =   1.00000

 Dipole moment (field-independent basis, Debye):
    X=            -28.6164    Y=              9.9519    Z=              2.8340  Tot=             30.4298
 Quadrupole moment (field-independent basis, Debye-Ang):
   XX=            261.4520   YY=            -72.3682   ZZ=           -150.5090
   XY=           -159.2557   XZ=            -50.6862   YZ=             16.5676

 Normal termination of Gaussian 16 at Thu Jun 30 18:40:00 2022.
