 Gaussian 16, Revision C.01,
 Gaussian 16:  ES64L-G16RevC.01  3-Jul-2019

 ----------------------------------------------------------------------
 # B3LYP/6-31G* empiricaldispersion=gd3 guess=read geom=check nosymm in
 tegral(ultrafinegrid)
 ----------------------------------------------------------------------

 ------------------------------------------------------
 Candidate Structure: Conf:883 Charge calc in gas phase
 ------------------------------------------------------
 Structure from the checkpoint file:  "conf-883.chk"
 Charge =  1 Multiplicity = 1

                          Input orientation:
 ---------------------------------------------------------------------
 Center     Atomic      Atomic             Coordinates (Angstroms)
 Number     Number       Type             X           Y           Z
 ---------------------------------------------------------------------
      1          7           0        1.663373    3.185044   -1.688510
      2          1           0        2.649535    3.413613   -1.833341
      3          1           0        1.146577    3.157959   -2.584573
      4          1           0        1.540411    2.219776   -1.262816
      5          6           0        0.939063    4.166779   -0.818388
      6          1           0        1.197190    5.182195   -1.130960
      7          1           0        1.244452    4.006002    0.216777
      8          6           0       -0.547818    3.857021   -1.076318
      9          8           0       -0.847628    3.336480   -2.147466
     10          7           0       -1.425833    4.114266   -0.088423
     11          1           0       -1.117054    4.552361    0.769480
     12          6           0       -2.787566    3.575953   -0.187750
     13          1           0       -3.290672    3.966820   -1.073395
     14          1           0       -3.343525    3.883426    0.701400
     15          6           0       -2.783414    2.035976   -0.325081
     16          8           0       -3.606530    1.463967   -1.012981
     17          7           0       -1.806787    1.399515    0.399862
     18          1           0       -1.110012    1.968947    0.858401
     19          6           0       -1.362976    0.069187    0.055172
     20          1           0       -2.112573   -0.392966   -0.589535
     21          1           0       -1.246922   -0.555634    0.950444
     22          6           0        0.010685    0.111473   -0.613769
     23          8           0        0.809719    1.050744   -0.359036
     24          7           0        0.330878   -0.928940   -1.389916
     25          1           0       -0.317417   -1.716974   -1.370768
     26          6           0        1.712772   -1.258624   -1.752435
     27          1           0        2.283307   -0.334440   -1.862744
     28          1           0        1.722149   -1.814934   -2.689424
     29          6           0        2.256487   -2.157596   -0.630035
     30          8           0        2.336740   -3.370788   -0.757282
     31          7           0        2.495468   -1.501334    0.549200
     32          1           0        2.217872   -0.527213    0.599600
     33          6           0        2.379449   -2.258496    1.797121
     34          1           0        3.002130   -3.152008    1.726722
     35          1           0        2.727328   -1.638396    2.624219
     36          6           0        0.893213   -2.579152    2.016616
     37          8           0        0.120854   -1.739555    2.473400
     38          7           0        0.501740   -3.818580    1.607402
     39          1           0        1.136348   -4.337789    1.011416
     40          6           0       -0.883454   -4.213137    1.658933
     41          1           0       -1.343075   -3.779622    2.552682
     42          1           0       -0.965170   -5.300778    1.743497
     43          6           0       -1.707636   -3.758186    0.460147
     44          8           0       -1.322338   -3.047894   -0.448758
     45          8           0       -2.951127   -4.244689    0.538919
     46          1           0       -3.455208   -3.929118   -0.235793
 ---------------------------------------------------------------------

 SCF Done:  E(RB3LYP) =  -1324.93335863     A.U. after    1 cycles

 Alpha  occ. eigenvalues --  -19.30530 -19.27430 -19.27006 -19.25793 -19.23066
 Alpha  occ. eigenvalues --  -19.21928 -19.21853 -14.59942 -14.51667 -14.49461
 Alpha  occ. eigenvalues --  -14.47029 -14.46635 -14.46443 -10.44887 -10.43634
 Alpha  occ. eigenvalues --  -10.42934 -10.41488 -10.40075 -10.39563 -10.38997
 Alpha  occ. eigenvalues --  -10.35123 -10.35041 -10.33772 -10.33652 -10.32974
 Alpha  occ. eigenvalues --   -1.21869  -1.20151  -1.17758  -1.15048  -1.14447
 Alpha  occ. eigenvalues --   -1.13847  -1.13613  -1.12869  -1.07607  -1.06009
 Alpha  occ. eigenvalues --   -1.03243  -1.02992  -1.02637  -0.91066  -0.88361
 Alpha  occ. eigenvalues --   -0.86348  -0.85022  -0.82307  -0.80120  -0.75352
 Alpha  occ. eigenvalues --   -0.74444  -0.73977  -0.73282  -0.71223  -0.69621
 Alpha  occ. eigenvalues --   -0.69135  -0.68150  -0.67313  -0.66497  -0.64252
 Alpha  occ. eigenvalues --   -0.63923  -0.62562  -0.61471  -0.61391  -0.61216
 Alpha  occ. eigenvalues --   -0.60073  -0.59568  -0.59426  -0.58091  -0.57348
 Alpha  occ. eigenvalues --   -0.56810  -0.56245  -0.55611  -0.55506  -0.54837
 Alpha  occ. eigenvalues --   -0.53921  -0.53105  -0.52042  -0.51661  -0.51506
 Alpha  occ. eigenvalues --   -0.50664  -0.50498  -0.49842  -0.49357  -0.48652
 Alpha  occ. eigenvalues --   -0.48288  -0.47690  -0.46830  -0.43161  -0.42126
 Alpha  occ. eigenvalues --   -0.41529  -0.41383  -0.40561  -0.39709  -0.38367
 Alpha  occ. eigenvalues --   -0.36559  -0.36224  -0.35941  -0.35395  -0.34301
 Alpha virt. eigenvalues --   -0.14154  -0.12854  -0.10292  -0.10182  -0.09009
 Alpha virt. eigenvalues --   -0.08717  -0.08105  -0.06803  -0.04399  -0.02923
 Alpha virt. eigenvalues --   -0.02227  -0.01979  -0.01483   0.00097   0.00865

 Mulliken charges:
               1
     1  N   -0.756431
     2  H    0.407968
     3  H    0.420727
     4  H    0.449286
     5  C   -0.280489
     6  H    0.244251
     7  H    0.224743
     8  C    0.645779
     9  O   -0.497450
    10  N   -0.609607
    11  H    0.355796
    12  C   -0.234693
    13  H    0.233654
    14  H    0.207583
    15  C    0.600159
    16  O   -0.473559
    17  N   -0.567708
    18  H    0.321202
    19  C   -0.257462
    20  H    0.219452
    21  H    0.243999
    22  C    0.620495
    23  O   -0.629881
    24  N   -0.567950
    25  H    0.413314
    26  C   -0.241529
    27  H    0.166536
    28  H    0.214756
    29  C    0.588892
    30  O   -0.489458
    31  N   -0.571402
    32  H    0.345093
    33  C   -0.234141
    34  H    0.201285
    35  H    0.194657
    36  C    0.580323
    37  O   -0.520804
    38  N   -0.559969
    39  H    0.370027
    40  C   -0.235811
    41  H    0.234946
    42  H    0.215722
    43  C    0.600005
    44  O   -0.491380
    45  O   -0.532019
    46  H    0.431095
 Sum of Mulliken charges =   1.00000

 Dipole moment (field-independent basis, Debye):
    X=              5.0345    Y=              8.9718    Z=             -1.1857  Tot=             10.3559
 Quadrupole moment (field-independent basis, Debye-Ang):
   XX=           -124.6250   YY=            -56.2576   ZZ=           -134.0614
   XY=             22.7653   XZ=            -13.0010   YZ=            -10.8958

 Normal termination of Gaussian 16 at Thu Jun 30 18:40:12 2022.
