 Gaussian 16, Revision C.01,
 Gaussian 16:  ES64L-G16RevC.01  3-Jul-2019

 ----------------------------------------------------------------------
 # B3LYP/6-31G* empiricaldispersion=gd3 guess=read geom=check nosymm in
 tegral(ultrafinegrid)
 ----------------------------------------------------------------------

 -----------------------------------------------------
 Candidate Structure: Conf:95 Charge calc in gas phase
 -----------------------------------------------------
 Structure from the checkpoint file:  "conf-95.chk"
 Charge =  1 Multiplicity = 1

                          Input orientation:
 ---------------------------------------------------------------------
 Center     Atomic      Atomic             Coordinates (Angstroms)
 Number     Number       Type             X           Y           Z
 ---------------------------------------------------------------------
      1          7           0       -6.879072    6.446710   -0.099237
      2          1           0       -7.758999    6.433401   -0.621979
      3          1           0       -6.071251    6.744770   -0.744398
      4          1           0       -6.972880    7.108854    0.675637
      5          6           0       -6.407628    5.082046    0.325148
      6          1           0       -7.135412    4.327328    0.022165
      7          1           0       -6.287862    5.051918    1.409510
      8          6           0       -5.053016    4.920941   -0.417798
      9          8           0       -4.690263    5.869604   -1.130944
     10          7           0       -4.402262    3.788474   -0.227816
     11          1           0       -4.738172    3.025193    0.370225
     12          6           0       -3.124550    3.464249   -0.843801
     13          1           0       -2.357727    4.188715   -0.547868
     14          1           0       -3.205299    3.487989   -1.936149
     15          6           0       -2.777257    2.048176   -0.339949
     16          8           0       -3.547344    1.470448    0.432779
     17          7           0       -1.629519    1.540340   -0.795424
     18          1           0       -1.014404    2.033911   -1.442158
     19          6           0       -1.149513    0.220256   -0.438415
     20          1           0       -1.888589   -0.545654   -0.702441
     21          1           0       -0.977361    0.147361    0.642437
     22          6           0        0.162532    0.005098   -1.211661
     23          8           0        0.610988    0.889912   -1.942285
     24          7           0        0.748872   -1.188060   -1.026510
     25          1           0        0.352756   -1.907856   -0.428775
     26          6           0        1.982158   -1.558970   -1.689391
     27          1           0        2.836862   -1.021258   -1.260153
     28          1           0        1.927594   -1.314340   -2.755821
     29          6           0        2.204726   -3.052436   -1.462146
     30          8           0        1.515993   -3.683186   -0.655346
     31          7           0        3.193638   -3.614376   -2.197426
     32          1           0        3.834766   -2.994038   -2.677200
     33          6           0        3.697145   -4.955509   -1.887447
     34          1           0        2.840392   -5.599039   -1.675292
     35          1           0        4.242114   -5.338023   -2.750662
     36          6           0        4.662362   -4.851183   -0.698668
     37          8           0        5.870415   -4.761982   -0.851822
     38          7           0        4.040376   -4.776766    0.524668
     39          1           0        3.036315   -4.623089    0.500825
     40          6           0        4.763303   -4.167239    1.614815
     41          1           0        5.787296   -4.548639    1.631382
     42          1           0        4.299547   -4.416549    2.574277
     43          6           0        4.819527   -2.648051    1.469444
     44          8           0        4.283286   -2.005589    0.590877
     45          8           0        5.544744   -2.096743    2.460294
     46          1           0        5.558999   -1.132697    2.309566
 ---------------------------------------------------------------------

 SCF Done:  E(RB3LYP) =  -1324.91168616     A.U. after    3 cycles

 Alpha  occ. eigenvalues --  -19.28941 -19.26460 -19.23076 -19.21145 -19.20469
 Alpha  occ. eigenvalues --  -19.20442 -19.17576 -14.62417 -14.51313 -14.46503
 Alpha  occ. eigenvalues --  -14.44513 -14.44408 -14.41535 -10.45748 -10.42865
 Alpha  occ. eigenvalues --  -10.40323 -10.38993 -10.37783 -10.37453 -10.35745
 Alpha  occ. eigenvalues --  -10.34630 -10.32486 -10.30724 -10.29558 -10.29557
 Alpha  occ. eigenvalues --   -1.21414  -1.17448  -1.16031  -1.15026  -1.12692
 Alpha  occ. eigenvalues --   -1.11969  -1.09549  -1.08434  -1.07835  -1.03008
 Alpha  occ. eigenvalues --   -1.00893  -1.00486  -0.98256  -0.92325  -0.87012
 Alpha  occ. eigenvalues --   -0.84390  -0.82272  -0.80070  -0.76894  -0.76315
 Alpha  occ. eigenvalues --   -0.76160  -0.73803  -0.70014  -0.68991  -0.68361
 Alpha  occ. eigenvalues --   -0.67423  -0.66193  -0.65131  -0.63773  -0.62980
 Alpha  occ. eigenvalues --   -0.62814  -0.60600  -0.59656  -0.59570  -0.58281
 Alpha  occ. eigenvalues --   -0.57146  -0.56879  -0.56693  -0.56036  -0.55385
 Alpha  occ. eigenvalues --   -0.54632  -0.54371  -0.53959  -0.53070  -0.52630
 Alpha  occ. eigenvalues --   -0.52352  -0.51683  -0.50428  -0.48903  -0.48290
 Alpha  occ. eigenvalues --   -0.47512  -0.47191  -0.46758  -0.46468  -0.45862
 Alpha  occ. eigenvalues --   -0.44534  -0.44029  -0.43803  -0.43113  -0.41216
 Alpha  occ. eigenvalues --   -0.38768  -0.37724  -0.36417  -0.35722  -0.35189
 Alpha  occ. eigenvalues --   -0.34880  -0.34083  -0.33627  -0.32091  -0.30268
 Alpha virt. eigenvalues --   -0.13970  -0.13588  -0.08649  -0.07957  -0.06646
 Alpha virt. eigenvalues --   -0.06573  -0.05705  -0.05600  -0.03749  -0.03062
 Alpha virt. eigenvalues --   -0.02147  -0.00115   0.00796   0.01098   0.01307

 Mulliken charges:
               1
     1  N   -0.750546
     2  H    0.424482
     3  H    0.441036
     4  H    0.424403
     5  C   -0.277097
     6  H    0.250376
     7  H    0.250328
     8  C    0.640190
     9  O   -0.523014
    10  N   -0.604189
    11  H    0.380955
    12  C   -0.212138
    13  H    0.216359
    14  H    0.216266
    15  C    0.620033
    16  O   -0.533922
    17  N   -0.620756
    18  H    0.369080
    19  C   -0.200634
    20  H    0.201849
    21  H    0.200984
    22  C    0.613054
    23  O   -0.531518
    24  N   -0.622741
    25  H    0.361184
    26  C   -0.200636
    27  H    0.225233
    28  H    0.195017
    29  C    0.625203
    30  O   -0.549017
    31  N   -0.582389
    32  H    0.351886
    33  C   -0.243531
    34  H    0.198929
    35  H    0.193564
    36  C    0.586333
    37  O   -0.493630
    38  N   -0.568959
    39  H    0.362109
    40  C   -0.240813
    41  H    0.230418
    42  H    0.196598
    43  C    0.588840
    44  O   -0.477666
    45  O   -0.549450
    46  H    0.417934
 Sum of Mulliken charges =   1.00000

 Dipole moment (field-independent basis, Debye):
    X=            -24.3127    Y=             20.7472    Z=              0.6717  Tot=             31.9688
 Quadrupole moment (field-independent basis, Debye-Ang):
   XX=             40.3453   YY=              0.1521   ZZ=           -130.6064
   XY=           -158.9301   XZ=              1.7366   YZ=             10.2617

 Normal termination of Gaussian 16 at Thu Jun 30 18:40:02 2022.
