 Gaussian 16, Revision C.01,
 Gaussian 16:  ES64L-G16RevC.01  3-Jul-2019

 ----------------------------------------------------------------------
 # B3LYP/6-31G* empiricaldispersion=gd3 guess=read geom=check nosymm in
 tegral(ultrafinegrid)
 ----------------------------------------------------------------------

 ------------------------------------------------------
 Candidate Structure: Conf:879 Charge calc in gas phase
 ------------------------------------------------------
 Structure from the checkpoint file:  "conf-879.chk"
 Charge =  1 Multiplicity = 1

                          Input orientation:
 ---------------------------------------------------------------------
 Center     Atomic      Atomic             Coordinates (Angstroms)
 Number     Number       Type             X           Y           Z
 ---------------------------------------------------------------------
      1          7           0       -3.539679    1.567246   -1.698013
      2          1           0       -3.010120    0.610601   -1.724959
      3          1           0       -2.979634    2.242502   -2.234047
      4          1           0       -4.483884    1.491070   -2.081892
      5          6           0       -3.518002    1.976815   -0.264804
      6          1           0       -3.871105    1.133205    0.331681
      7          1           0       -4.170671    2.840726   -0.110827
      8          6           0       -2.053855    2.335500    0.040133
      9          8           0       -1.289214    2.563136   -0.893159
     10          7           0       -1.740876    2.443132    1.349214
     11          1           0       -2.369629    2.023491    2.022429
     12          6           0       -0.358939    2.601687    1.755904
     13          1           0       -0.320276    3.067715    2.745138
     14          1           0        0.133464    3.267277    1.040616
     15          6           0        0.386216    1.256482    1.739867
     16          8           0       -0.140495    0.232066    1.320878
     17          7           0        1.665375    1.312622    2.210558
     18          1           0        2.062421    2.241830    2.289936
     19          6           0        2.596449    0.293844    1.753481
     20          1           0        2.219575   -0.695797    2.016644
     21          1           0        3.558291    0.439480    2.253861
     22          6           0        2.772638    0.413305    0.229774
     23          8           0        2.481619    1.458999   -0.354855
     24          7           0        3.269734   -0.678055   -0.400891
     25          1           0        3.185375   -1.572756    0.069535
     26          6           0        3.344535   -0.704524   -1.862415
     27          1           0        4.043980   -1.480119   -2.174519
     28          1           0        3.691473    0.271996   -2.206213
     29          6           0        1.962241   -1.055794   -2.420639
     30          8           0        1.677767   -2.201184   -2.772923
     31          7           0        1.039668   -0.053392   -2.382909
     32          1           0        1.280790    0.801407   -1.884360
     33          6           0       -0.356052   -0.325993   -2.675025
     34          1           0       -0.850201    0.618067   -2.907678
     35          1           0       -0.408725   -0.983063   -3.550061
     36          6           0       -1.126060   -0.986372   -1.522946
     37          8           0       -2.273913   -0.603740   -1.193068
     38          7           0       -0.519186   -1.997819   -0.904376
     39          1           0        0.359461   -2.340053   -1.291214
     40          6           0       -0.974048   -2.547945    0.351826
     41          1           0       -1.514840   -3.493576    0.217967
     42          1           0       -1.649683   -1.838475    0.831497
     43          6           0        0.213364   -2.793208    1.265059
     44          8           0        1.380074   -2.688003    0.944233
     45          8           0       -0.200716   -3.181867    2.478155
     46          1           0        0.588973   -3.375433    3.018421
 ---------------------------------------------------------------------

 SCF Done:  E(RB3LYP) =  -1324.96117395     A.U. after    1 cycles

 Alpha  occ. eigenvalues --  -19.30747 -19.26482 -19.25879 -19.25599 -19.23955
 Alpha  occ. eigenvalues --  -19.22626 -19.22003 -14.57513 -14.50367 -14.47945
 Alpha  occ. eigenvalues --  -14.47342 -14.46803 -14.46304 -10.43902 -10.43807
 Alpha  occ. eigenvalues --  -10.41870 -10.40736 -10.39798 -10.39525 -10.39058
 Alpha  occ. eigenvalues --  -10.35410 -10.34446 -10.34369 -10.33552 -10.32610
 Alpha  occ. eigenvalues --   -1.21953  -1.18848  -1.16813  -1.15865  -1.14520
 Alpha  occ. eigenvalues --   -1.13697  -1.13067  -1.12260  -1.06653  -1.04880
 Alpha  occ. eigenvalues --   -1.03860  -1.03051  -1.02259  -0.90085  -0.88136
 Alpha  occ. eigenvalues --   -0.86545  -0.84513  -0.82379  -0.79523  -0.74274
 Alpha  occ. eigenvalues --   -0.73316  -0.72940  -0.72569  -0.70549  -0.69351
 Alpha  occ. eigenvalues --   -0.69004  -0.68225  -0.66370  -0.64898  -0.63973
 Alpha  occ. eigenvalues --   -0.63113  -0.62340  -0.61750  -0.61028  -0.60174
 Alpha  occ. eigenvalues --   -0.59478  -0.59371  -0.58333  -0.57816  -0.57609
 Alpha  occ. eigenvalues --   -0.57444  -0.56046  -0.55007  -0.54407  -0.54371
 Alpha  occ. eigenvalues --   -0.53919  -0.53032  -0.52629  -0.51914  -0.51555
 Alpha  occ. eigenvalues --   -0.50883  -0.50451  -0.50188  -0.48829  -0.48768
 Alpha  occ. eigenvalues --   -0.47991  -0.47867  -0.46794  -0.43113  -0.41235
 Alpha  occ. eigenvalues --   -0.40954  -0.40212  -0.39633  -0.38500  -0.38279
 Alpha  occ. eigenvalues --   -0.38117  -0.37275  -0.36163  -0.35809  -0.34529
 Alpha virt. eigenvalues --   -0.12554  -0.11112  -0.10162  -0.09962  -0.09016
 Alpha virt. eigenvalues --   -0.08904  -0.07452  -0.05651  -0.03303  -0.03001
 Alpha virt. eigenvalues --   -0.02540  -0.00907  -0.00235   0.00444   0.01763

 Mulliken charges:
               1
     1  N   -0.757691
     2  H    0.455407
     3  H    0.407841
     4  H    0.402408
     5  C   -0.282077
     6  H    0.230430
     7  H    0.236002
     8  C    0.651402
     9  O   -0.516935
    10  N   -0.568145
    11  H    0.352562
    12  C   -0.272373
    13  H    0.203141
    14  H    0.236842
    15  C    0.618160
    16  O   -0.524493
    17  N   -0.553259
    18  H    0.348336
    19  C   -0.263593
    20  H    0.208566
    21  H    0.205219
    22  C    0.619091
    23  O   -0.541046
    24  N   -0.585012
    25  H    0.373762
    26  C   -0.233654
    27  H    0.203944
    28  H    0.206845
    29  C    0.578825
    30  O   -0.519235
    31  N   -0.574095
    32  H    0.385785
    33  C   -0.240691
    34  H    0.167211
    35  H    0.224837
    36  C    0.658864
    37  O   -0.610879
    38  N   -0.575900
    39  H    0.399362
    40  C   -0.199461
    41  H    0.213940
    42  H    0.223863
    43  C    0.612121
    44  O   -0.486810
    45  O   -0.547429
    46  H    0.428014
 Sum of Mulliken charges =   1.00000

 Dipole moment (field-independent basis, Debye):
    X=             -7.7753    Y=              4.5873    Z=              1.5292  Tot=              9.1563
 Quadrupole moment (field-independent basis, Debye-Ang):
   XX=            -79.8473   YY=           -119.6646   ZZ=           -113.9281
   XY=            -22.1001   XZ=             20.2345   YZ=             -5.2875

 Normal termination of Gaussian 16 at Thu Jun 30 18:39:54 2022.
