 Gaussian 16, Revision C.01,
 Gaussian 16:  ES64L-G16RevC.01  3-Jul-2019

 ----------------------------------------------------------------------
 # B3LYP/6-31G* empiricaldispersion=gd3 guess=read geom=check nosymm in
 tegral(ultrafinegrid)
 ----------------------------------------------------------------------

 ------------------------------------------------------
 Candidate Structure: Conf:112 Charge calc in gas phase
 ------------------------------------------------------
 Structure from the checkpoint file:  "conf-112.chk"
 Charge =  1 Multiplicity = 1

                          Input orientation:
 ---------------------------------------------------------------------
 Center     Atomic      Atomic             Coordinates (Angstroms)
 Number     Number       Type             X           Y           Z
 ---------------------------------------------------------------------
      1          7           0        0.367607    3.848640   -1.166104
      2          1           0        1.072085    3.087767   -0.930655
      3          1           0        0.055851    4.253822   -0.271487
      4          1           0        0.777417    4.561096   -1.774376
      5          6           0       -0.805394    3.148780   -1.774052
      6          1           0       -0.435595    2.478706   -2.551861
      7          1           0       -1.487492    3.886443   -2.205265
      8          6           0       -1.466495    2.393343   -0.607143
      9          8           0       -1.206258    2.753882    0.545645
     10          7           0       -2.294225    1.403143   -0.948112
     11          1           0       -2.390594    1.100508   -1.913859
     12          6           0       -2.887270    0.495254    0.027193
     13          1           0       -3.959128    0.699095    0.134103
     14          1           0       -2.399900    0.652322    0.988026
     15          6           0       -2.715802   -0.923508   -0.531071
     16          8           0       -2.956082   -1.137261   -1.711937
     17          7           0       -2.327287   -1.858366    0.376463
     18          1           0       -1.895288   -1.517281    1.228536
     19          6           0       -2.018408   -3.222948   -0.035892
     20          1           0       -2.596874   -3.443435   -0.933622
     21          1           0       -2.306968   -3.915336    0.761916
     22          6           0       -0.533481   -3.341425   -0.397460
     23          8           0       -0.118375   -3.048472   -1.518313
     24          7           0        0.294956   -3.728767    0.609126
     25          1           0       -0.077012   -3.897370    1.533015
     26          6           0        1.736858   -3.849272    0.411675
     27          1           0        1.916956   -4.384147   -0.526047
     28          1           0        2.160039   -4.417011    1.240239
     29          6           0        2.430186   -2.479396    0.388794
     30          8           0        3.072321   -2.059325    1.356803
     31          7           0        2.271132   -1.778957   -0.760453
     32          1           0        1.572199   -2.123266   -1.420245
     33          6           0        2.897700   -0.483360   -0.968490
     34          1           0        3.932188   -0.531226   -0.609888
     35          1           0        2.900776   -0.258213   -2.034979
     36          6           0        2.172601    0.662295   -0.251090
     37          8           0        1.640714    1.578104   -0.908760
     38          7           0        2.185818    0.581099    1.087936
     39          1           0        2.616575   -0.268429    1.472893
     40          6           0        1.403494    1.413313    1.967374
     41          1           0        1.091545    2.322121    1.449218
     42          1           0        1.989796    1.709626    2.842086
     43          6           0        0.129674    0.716549    2.431371
     44          8           0       -0.325964   -0.298442    1.941688
     45          8           0       -0.422740    1.386194    3.447798
     46          1           0       -1.248516    0.936446    3.708101
 ---------------------------------------------------------------------

 SCF Done:  E(RB3LYP) =  -1324.95204786     A.U. after    3 cycles

 Alpha  occ. eigenvalues --  -19.32053 -19.27053 -19.26432 -19.26191 -19.22942
 Alpha  occ. eigenvalues --  -19.22613 -19.22340 -14.58870 -14.50206 -14.48510
 Alpha  occ. eigenvalues --  -14.47888 -14.47102 -14.46742 -10.45057 -10.43989
 Alpha  occ. eigenvalues --  -10.42400 -10.40186 -10.39792 -10.39790 -10.39767
 Alpha  occ. eigenvalues --  -10.35796 -10.34605 -10.34388 -10.33521 -10.33267
 Alpha  occ. eigenvalues --   -1.23260  -1.18825  -1.17084  -1.15076  -1.14513
 Alpha  occ. eigenvalues --   -1.14400  -1.13989  -1.13274  -1.06382  -1.05549
 Alpha  occ. eigenvalues --   -1.03755  -1.03258  -1.02734  -0.90254  -0.89058
 Alpha  occ. eigenvalues --   -0.86854  -0.84863  -0.82517  -0.79999  -0.75223
 Alpha  occ. eigenvalues --   -0.74243  -0.73372  -0.72788  -0.71055  -0.70217
 Alpha  occ. eigenvalues --   -0.69571  -0.68564  -0.66622  -0.65022  -0.64497
 Alpha  occ. eigenvalues --   -0.63244  -0.62972  -0.62889  -0.61208  -0.60245
 Alpha  occ. eigenvalues --   -0.59968  -0.59625  -0.59352  -0.58790  -0.58186
 Alpha  occ. eigenvalues --   -0.57600  -0.56953  -0.55725  -0.54647  -0.53951
 Alpha  occ. eigenvalues --   -0.53354  -0.52887  -0.52472  -0.51992  -0.51575
 Alpha  occ. eigenvalues --   -0.51202  -0.50612  -0.50045  -0.49572  -0.49127
 Alpha  occ. eigenvalues --   -0.48635  -0.48091  -0.47510  -0.44461  -0.41258
 Alpha  occ. eigenvalues --   -0.41154  -0.40969  -0.39837  -0.39019  -0.38916
 Alpha  occ. eigenvalues --   -0.38578  -0.36409  -0.36161  -0.35248  -0.34525
 Alpha virt. eigenvalues --   -0.12723  -0.11588  -0.11440  -0.10069  -0.09428
 Alpha virt. eigenvalues --   -0.09144  -0.07521  -0.04947  -0.04273  -0.03223
 Alpha virt. eigenvalues --   -0.02871  -0.01235   0.00083   0.00530   0.01234

 Mulliken charges:
               1
     1  N   -0.750906
     2  H    0.450816
     3  H    0.412563
     4  H    0.407970
     5  C   -0.280943
     6  H    0.239334
     7  H    0.239587
     8  C    0.647138
     9  O   -0.538653
    10  N   -0.588117
    11  H    0.369214
    12  C   -0.222869
    13  H    0.212466
    14  H    0.190851
    15  C    0.603877
    16  O   -0.498775
    17  N   -0.598059
    18  H    0.362214
    19  C   -0.239082
    20  H    0.233999
    21  H    0.175205
    22  C    0.614102
    23  O   -0.513092
    24  N   -0.578676
    25  H    0.347999
    26  C   -0.233745
    27  H    0.208718
    28  H    0.202006
    29  C    0.604207
    30  O   -0.532026
    31  N   -0.583473
    32  H    0.392194
    33  C   -0.240168
    34  H    0.213610
    35  H    0.196134
    36  C    0.617255
    37  O   -0.592032
    38  N   -0.559775
    39  H    0.402545
    40  C   -0.240982
    41  H    0.201842
    42  H    0.219630
    43  C    0.622633
    44  O   -0.487420
    45  O   -0.536546
    46  H    0.427227
 Sum of Mulliken charges =   1.00000

 Dipole moment (field-independent basis, Debye):
    X=              0.1805    Y=              7.3833    Z=              0.4103  Tot=              7.3969
 Quadrupole moment (field-independent basis, Debye-Ang):
   XX=           -127.2669   YY=            -73.2543   ZZ=           -124.4399
   XY=              2.4800   XZ=            -11.1257   YZ=            -28.1051

 Normal termination of Gaussian 16 at Thu Jun 30 18:40:22 2022.
