 Gaussian 16, Revision C.01,
 Gaussian 16:  ES64L-G16RevC.01  3-Jul-2019

 ----------------------------------------------------------------------
 # B3LYP/6-31G* empiricaldispersion=gd3 guess=read geom=check nosymm in
 tegral(ultrafinegrid)
 ----------------------------------------------------------------------

 ------------------------------------------------------
 Candidate Structure: Conf:797 Charge calc in gas phase
 ------------------------------------------------------
 Structure from the checkpoint file:  "conf-797.chk"
 Charge =  1 Multiplicity = 1

                          Input orientation:
 ---------------------------------------------------------------------
 Center     Atomic      Atomic             Coordinates (Angstroms)
 Number     Number       Type             X           Y           Z
 ---------------------------------------------------------------------
      1          7           0       -0.928573    2.067451    3.976485
      2          1           0       -0.698409    2.037938    4.972174
      3          1           0       -1.533153    2.877552    3.761790
      4          1           0       -0.066822    2.187347    3.382890
      5          6           0       -1.649235    0.845965    3.487342
      6          1           0       -2.451105    0.601472    4.188581
      7          1           0       -0.941127    0.020185    3.403744
      8          6           0       -2.224648    1.265107    2.127593
      9          8           0       -2.547948    2.445574    1.968412
     10          7           0       -2.312842    0.300508    1.195346
     11          1           0       -1.758984   -0.541455    1.348292
     12          6           0       -2.578121    0.656598   -0.204770
     13          1           0       -3.274940    1.496288   -0.225825
     14          1           0       -3.009637   -0.200254   -0.721604
     15          6           0       -1.209730    0.980968   -0.823387
     16          8           0       -0.577365    0.132014   -1.438928
     17          7           0       -0.714197    2.215044   -0.497567
     18          1           0       -1.268451    2.776815    0.141216
     19          6           0        0.730386    2.427882   -0.442464
     20          1           0        0.938829    3.499664   -0.459504
     21          1           0        1.193083    1.950985   -1.307962
     22          6           0        1.215367    1.830981    0.886422
     23          8           0        0.782873    2.296756    1.955351
     24          7           0        2.033609    0.767140    0.804162
     25          1           0        2.207934    0.363229   -0.122848
     26          6           0        2.206473   -0.167884    1.918681
     27          1           0        1.903385    0.319087    2.843789
     28          1           0        3.253414   -0.475556    1.996853
     29          6           0        1.257891   -1.319527    1.559127
     30          8           0        0.058813   -1.271006    1.842850
     31          7           0        1.812268   -2.269966    0.758100
     32          1           0        2.791303   -2.117952    0.541819
     33          6           0        1.074803   -2.788551   -0.382367
     34          1           0        1.330598   -3.837044   -0.567322
     35          1           0        0.006575   -2.726047   -0.162801
     36          6           0        1.420577   -1.911324   -1.606888
     37          8           0        2.207120   -0.963216   -1.509136
     38          7           0        0.830631   -2.239512   -2.766079
     39          1           0        0.215542   -3.039205   -2.814746
     40          6           0        0.976012   -1.372576   -3.923378
     41          1           0        0.661426   -0.358817   -3.665916
     42          1           0        0.325825   -1.746634   -4.719509
     43          6           0        2.394668   -1.284874   -4.477692
     44          8           0        2.802070   -0.329713   -5.091838
     45          8           0        3.109371   -2.408596   -4.253564
     46          1           0        3.982940   -2.266387   -4.665514
 ---------------------------------------------------------------------

 SCF Done:  E(RB3LYP) =  -1324.94499184     A.U. after    1 cycles

 Alpha  occ. eigenvalues --  -19.27700 -19.26570 -19.26011 -19.25855 -19.23709
 Alpha  occ. eigenvalues --  -19.23588 -19.21736 -14.58921 -14.50102 -14.49292
 Alpha  occ. eigenvalues --  -14.48924 -14.47716 -14.47599 -10.43775 -10.42721
 Alpha  occ. eigenvalues --  -10.42490 -10.40765 -10.40539 -10.40307 -10.39412
 Alpha  occ. eigenvalues --  -10.36065 -10.35073 -10.34973 -10.34609 -10.32852
 Alpha  occ. eigenvalues --   -1.18978  -1.18565  -1.17709  -1.16871  -1.15538
 Alpha  occ. eigenvalues --   -1.15155  -1.13262  -1.09605  -1.06579  -1.06199
 Alpha  occ. eigenvalues --   -1.05043  -1.03899  -1.03703  -0.90235  -0.88886
 Alpha  occ. eigenvalues --   -0.86495  -0.84758  -0.82365  -0.80542  -0.74352
 Alpha  occ. eigenvalues --   -0.73200  -0.72629  -0.72029  -0.71449  -0.70603
 Alpha  occ. eigenvalues --   -0.69839  -0.68850  -0.66871  -0.66433  -0.64953
 Alpha  occ. eigenvalues --   -0.63332  -0.62850  -0.61981  -0.61324  -0.60583
 Alpha  occ. eigenvalues --   -0.59928  -0.58925  -0.58729  -0.58316  -0.57424
 Alpha  occ. eigenvalues --   -0.56551  -0.55899  -0.55326  -0.54925  -0.53884
 Alpha  occ. eigenvalues --   -0.53590  -0.53258  -0.52883  -0.52587  -0.52227
 Alpha  occ. eigenvalues --   -0.51416  -0.50747  -0.49935  -0.49695  -0.49415
 Alpha  occ. eigenvalues --   -0.49175  -0.47351  -0.46745  -0.41863  -0.41508
 Alpha  occ. eigenvalues --   -0.40830  -0.40540  -0.39692  -0.39625  -0.38430
 Alpha  occ. eigenvalues --   -0.37783  -0.37651  -0.37309  -0.36112  -0.34708
 Alpha virt. eigenvalues --   -0.14061  -0.13599  -0.10583  -0.09061  -0.08983
 Alpha virt. eigenvalues --   -0.08878  -0.07110  -0.03862  -0.03077  -0.02656
 Alpha virt. eigenvalues --   -0.01708  -0.00850  -0.00308   0.00055   0.00578

 Mulliken charges:
               1
     1  N   -0.751953
     2  H    0.407812
     3  H    0.419303
     4  H    0.454231
     5  C   -0.299230
     6  H    0.239171
     7  H    0.248803
     8  C    0.631344
     9  O   -0.529662
    10  N   -0.589280
    11  H    0.392536
    12  C   -0.243617
    13  H    0.217555
    14  H    0.202177
    15  C    0.581901
    16  O   -0.504668
    17  N   -0.568468
    18  H    0.366752
    19  C   -0.239075
    20  H    0.206882
    21  H    0.217914
    22  C    0.612209
    23  O   -0.585958
    24  N   -0.580222
    25  H    0.413476
    26  C   -0.233680
    27  H    0.182686
    28  H    0.196627
    29  C    0.591590
    30  O   -0.531806
    31  N   -0.529541
    32  H    0.350253
    33  C   -0.270449
    34  H    0.207239
    35  H    0.213013
    36  C    0.666845
    37  O   -0.556032
    38  N   -0.572601
    39  H    0.349198
    40  C   -0.223861
    41  H    0.224478
    42  H    0.198867
    43  C    0.598555
    44  O   -0.442677
    45  O   -0.561722
    46  H    0.423088
 Sum of Mulliken charges =   1.00000

 Dipole moment (field-independent basis, Debye):
    X=             -0.7602    Y=             -0.6600    Z=              9.2803  Tot=              9.3347
 Quadrupole moment (field-independent basis, Debye-Ang):
   XX=           -120.9666   YY=           -113.9313   ZZ=            -83.4748
   XY=            -11.1160   XZ=             -5.3901   YZ=             33.6315

 Normal termination of Gaussian 16 at Thu Jun 30 18:39:53 2022.
