 Gaussian 16, Revision C.01,
 Gaussian 16:  ES64L-G16RevC.01  3-Jul-2019

 ----------------------------------------------------------------------
 # B3LYP/6-31G* empiricaldispersion=gd3 guess=read geom=check nosymm in
 tegral(ultrafinegrid)
 ----------------------------------------------------------------------

 ------------------------------------------------------
 Candidate Structure: Conf:315 Charge calc in gas phase
 ------------------------------------------------------
 Structure from the checkpoint file:  "conf-315.chk"
 Charge =  1 Multiplicity = 1

                          Input orientation:
 ---------------------------------------------------------------------
 Center     Atomic      Atomic             Coordinates (Angstroms)
 Number     Number       Type             X           Y           Z
 ---------------------------------------------------------------------
      1          7           0       -5.766500    0.100900    3.004822
      2          1           0       -6.058134    1.062069    2.831342
      3          1           0       -5.882010   -0.376334    2.109797
      4          6           0       -4.344601    0.075884    3.334540
      5          1           0       -4.186786    0.705117    4.220612
      6          6           0       -3.472800    0.564756    2.158401
      7          6           0       -3.929612   -1.374035    3.673654
      8          1           0       -4.721376   -1.791949    4.299937
      9          1           0       -3.926529   -1.941893    2.735845
     10          8           0       -3.788882    0.323995    0.999083
     11          6           0       -2.558992   -1.492362    4.391061
     12          1           0       -2.669370   -1.921781    5.388666
     13          1           0       -2.110532   -0.503497    4.534422
     14          6           0       -1.527804   -2.310542    3.655103
     15          8           0       -0.953437   -3.282729    4.085284
     16          8           0       -1.297268   -1.781851    2.429241
     17          7           0       -2.323304    1.239070    2.483124
     18          1           0       -2.071323    1.382848    3.451901
     19          6           0       -1.276301    1.436809    1.500476
     20          1           0       -1.570292    0.834686    0.639350
     21          6           0        0.094206    0.990944    2.010331
     22          6           0       -1.149937    2.910765    1.039282
     23          1           0       -0.177106    3.024534    0.538479
     24          1           0       -1.126796    3.562593    1.917205
     25          8           0        0.622501    1.500440    2.990662
     26          6           0       -2.241817    3.282453    0.086292
     27          6           0       -3.284883    4.154871    0.267246
     28          1           0       -3.541229    4.751431    1.131996
     29          6           0       -2.412386    2.712365   -1.228119
     30          6           0       -3.569467    3.306418   -1.802866
     31          6           0       -1.654836    1.811195   -1.992831
     32          1           0       -0.779114    1.323878   -1.571129
     33          7           0       -4.073769    4.194792   -0.875746
     34          1           0       -4.967295    4.659032   -0.942388
     35          6           0       -3.173678    2.181567   -3.869755
     36          1           0       -3.457234    1.951683   -4.892093
     37          6           0       -3.959337    3.057621   -3.123971
     38          1           0       -4.842175    3.523151   -3.552611
     39          6           0       -2.037171    1.556090   -3.307892
     40          1           0       -1.480147    0.836208   -3.901531
     41          7           0        0.699385    0.101311    1.174498
     42          1           0        0.109704   -0.458762    0.574181
     43          6           0        2.061697   -0.382017    1.315299
     44          1           0        2.573232    0.280318    2.017738
     45          6           0        2.648535   -0.309791   -0.096556
     46          6           0        2.087838   -1.846296    1.836542
     47          1           0        3.074776   -2.280305    1.619136
     48          8           0        2.186140   -1.008890   -0.998163
     49          6           0        1.821912   -1.905320    3.334509
     50          1           0        2.714409   -1.589948    3.883762
     51          1           0        1.556309   -2.922344    3.629622
     52          1           0        1.001647   -1.242193    3.613059
     53          8           0        1.088706   -2.609227    1.144472
     54          1           0       -0.580333   -2.354396    1.987352
     55          7           0        3.621107    0.620384   -0.297347
     56          1           0        4.116665    0.990396    0.505563
     57          6           0        4.300177    0.734383   -1.576725
     58          1           0        4.029024   -0.150450   -2.161087
     59          6           0        5.805159    0.745401   -1.334322
     60          6           0        3.893038    1.995685   -2.371007
     61          1           0        4.347070    1.922714   -3.365848
     62          1           0        4.324644    2.886386   -1.893803
     63          8           0        6.320120    0.875063   -0.246875
     64          6           0        2.372179    2.167830   -2.472643
     65          1           0        1.895141    1.225677   -2.769574
     66          1           0        1.965185    2.420348   -1.486071
     67          6           0        2.021529    3.263342   -3.490417
     68          1           0        2.645641    4.154002   -3.353971
     69          1           0        2.220424    2.916358   -4.508400
     70          7           0        0.614947    3.678828   -3.446280
     71          1           0       -0.070748    3.036204   -3.833980
     72          7           0        0.867411    5.300526   -1.784943
     73          1           0        0.567715    6.194855   -1.424634
     74          1           0        1.818844    5.025317   -1.600188
     75          7           0       -1.169748    5.035912   -2.836994
     76          1           0       -1.760425    4.479901   -3.446779
     77          1           0       -1.651113    5.338404   -1.995610
     78          6           0        0.112953    4.654651   -2.689475
     79          8           0        6.484685    0.646560   -2.490113
     80          1           0        7.436669    0.681492   -2.277588
     81          1           0        1.318246   -2.588655    0.205004
 ---------------------------------------------------------------------

 SCF Done:  E(RB3LYP) =  -2054.05695305     A.U. after    1 cycles

 Alpha  occ. eigenvalues --  -19.30335 -19.24870 -19.24236 -19.23904 -19.23006
 Alpha  occ. eigenvalues --  -19.20576 -19.18783 -19.18450 -14.53766 -14.53381
 Alpha  occ. eigenvalues --  -14.51948 -14.48865 -14.47353 -14.45346 -14.43717
 Alpha  occ. eigenvalues --  -14.37319 -10.49409 -10.42908 -10.39773 -10.37691
 Alpha  occ. eigenvalues --  -10.37649 -10.36914 -10.35216 -10.35055 -10.33172
 Alpha  occ. eigenvalues --  -10.32898 -10.32749 -10.32708 -10.32197 -10.31756
 Alpha  occ. eigenvalues --  -10.31706 -10.30273 -10.30160 -10.29948 -10.29671
 Alpha  occ. eigenvalues --  -10.29442 -10.29317 -10.28965 -10.28788 -10.25699
 Alpha  occ. eigenvalues --  -10.25218 -10.24138  -1.21379  -1.18092  -1.15150
 Alpha  occ. eigenvalues --   -1.14812  -1.12609  -1.12500  -1.11060  -1.10396
 Alpha  occ. eigenvalues --   -1.08767  -1.07572  -1.06106  -1.06011  -1.03989
 Alpha  occ. eigenvalues --   -1.01881  -1.00068  -0.95263  -0.94918  -0.93418
 Alpha  occ. eigenvalues --   -0.91056  -0.88837  -0.86850  -0.85381  -0.84950
 Alpha  occ. eigenvalues --   -0.84497  -0.82598  -0.82583  -0.80012  -0.79185
 Alpha  occ. eigenvalues --   -0.77327  -0.75367  -0.74984  -0.73783  -0.73284
 Alpha  occ. eigenvalues --   -0.72325  -0.71417  -0.70330  -0.69996  -0.69768
 Alpha  occ. eigenvalues --   -0.67778  -0.67485  -0.66892  -0.66637  -0.65771
 Alpha  occ. eigenvalues --   -0.65129  -0.64990  -0.64438  -0.63644  -0.62706
 Alpha  occ. eigenvalues --   -0.61344  -0.61122  -0.60266  -0.59447  -0.59178
 Alpha  occ. eigenvalues --   -0.58436  -0.58407  -0.58236  -0.57260  -0.56749
 Alpha  occ. eigenvalues --   -0.56739  -0.56206  -0.55899  -0.54756  -0.54556
 Alpha  occ. eigenvalues --   -0.54357  -0.54273  -0.53986  -0.53489  -0.53067
 Alpha  occ. eigenvalues --   -0.52857  -0.52329  -0.51773  -0.51529  -0.51110
 Alpha  occ. eigenvalues --   -0.51045  -0.50599  -0.49835  -0.49667  -0.49385
 Alpha  occ. eigenvalues --   -0.48675  -0.48601  -0.48151  -0.47669  -0.47428
 Alpha  occ. eigenvalues --   -0.47019  -0.46703  -0.46504  -0.46437  -0.46063
 Alpha  occ. eigenvalues --   -0.45465  -0.45157  -0.44697  -0.44272  -0.43928
 Alpha  occ. eigenvalues --   -0.43858  -0.43673  -0.42562  -0.42315  -0.42219
 Alpha  occ. eigenvalues --   -0.41737  -0.41007  -0.40329  -0.38668  -0.38585
 Alpha  occ. eigenvalues --   -0.37450  -0.37160  -0.36997  -0.36653  -0.35101
 Alpha  occ. eigenvalues --   -0.33833  -0.33692  -0.32973  -0.32530  -0.32120
 Alpha  occ. eigenvalues --   -0.31120  -0.29779
 Alpha virt. eigenvalues --   -0.14242  -0.12535  -0.09918  -0.09634  -0.09479
 Alpha virt. eigenvalues --   -0.09262  -0.06542  -0.05583  -0.04672  -0.04347
 Alpha virt. eigenvalues --   -0.04172  -0.03817  -0.02984  -0.02754  -0.02271

 Mulliken charges:
               1
     1  N   -0.690767
     2  H    0.295648
     3  H    0.314544
     4  C   -0.089478
     5  H    0.135769
     6  C    0.611251
     7  C   -0.266812
     8  H    0.184069
     9  H    0.173145
    10  O   -0.529951
    11  C   -0.346237
    12  H    0.187090
    13  H    0.146853
    14  C    0.573210
    15  O   -0.455876
    16  O   -0.618071
    17  N   -0.609762
    18  H    0.339742
    19  C   -0.040391
    20  H    0.186871
    21  C    0.624404
    22  C   -0.351516
    23  H    0.128817
    24  H    0.171588
    25  O   -0.533980
    26  C    0.070931
    27  C   -0.019359
    28  H    0.177039
    29  C    0.102131
    30  C    0.296994
    31  C   -0.226967
    32  H    0.144353
    33  N   -0.683520
    34  H    0.349112
    35  C   -0.163320
    36  H    0.160294
    37  C   -0.190914
    38  H    0.158609
    39  C   -0.197919
    40  H    0.150019
    41  N   -0.596106
    42  H    0.349668
    43  C   -0.100129
    44  H    0.185365
    45  C    0.631955
    46  C    0.135836
    47  H    0.148001
    48  O   -0.548530
    49  C   -0.486956
    50  H    0.156805
    51  H    0.207543
    52  H    0.174478
    53  O   -0.648833
    54  H    0.445352
    55  N   -0.608928
    56  H    0.358940
    57  C   -0.055970
    58  H    0.219700
    59  C    0.586299
    60  C   -0.280092
    61  H    0.184311
    62  H    0.147236
    63  O   -0.449943
    64  C   -0.285181
    65  H    0.188258
    66  H    0.160722
    67  C   -0.188756
    68  H    0.173667
    69  H    0.206137
    70  N   -0.577456
    71  H    0.367194
    72  N   -0.751291
    73  H    0.387865
    74  H    0.385629
    75  N   -0.738330
    76  H    0.380626
    77  H    0.380324
    78  C    0.787698
    79  O   -0.557794
    80  H    0.433042
    81  H    0.423998
 Sum of Mulliken charges =   1.00000

 Dipole moment (field-independent basis, Debye):
    X=              3.1849    Y=             21.9575    Z=            -12.0904  Tot=             25.2676
 Quadrupole moment (field-independent basis, Debye-Ang):
   XX=           -178.5902   YY=           -152.6422   ZZ=           -207.7127
   XY=            -20.2252   XZ=            -12.5156   YZ=            -31.2601

 Normal termination of Gaussian 16 at Sun May 15 14:55:05 2022.
