 Gaussian 16, Revision C.01,
 Gaussian 16:  ES64L-G16RevC.01  3-Jul-2019

 ----------------------------------------------------------------------
 # B3LYP/6-31G* empiricaldispersion=gd3 guess=read geom=check nosymm in
 tegral(ultrafinegrid)
 ----------------------------------------------------------------------

 ------------------------------------------------------
 Candidate Structure: Conf:234 Charge calc in gas phase
 ------------------------------------------------------
 Structure from the checkpoint file:  "conf-234.chk"
 Charge =  1 Multiplicity = 1

                          Input orientation:
 ---------------------------------------------------------------------
 Center     Atomic      Atomic             Coordinates (Angstroms)
 Number     Number       Type             X           Y           Z
 ---------------------------------------------------------------------
      1          7           0       -6.394898    1.135022    3.242524
      2          1           0       -6.861383    1.391747    2.377797
      3          1           0       -6.522816    0.129300    3.330234
      4          6           0       -4.971468    1.399667    3.101756
      5          1           0       -4.846921    2.467172    2.870937
      6          6           0       -4.366130    0.593093    1.953814
      7          6           0       -4.241792    1.089262    4.408644
      8          1           0       -4.385973    0.034028    4.647379
      9          1           0       -3.166814    1.261004    4.300945
     10          8           0       -4.778484   -0.515116    1.656410
     11          6           0       -4.745521    1.930534    5.582749
     12          1           0       -5.801602    1.733389    5.771025
     13          1           0       -4.595335    2.993408    5.388829
     14          6           0       -3.894619    1.493959    6.792850
     15          8           0       -2.846254    2.140207    6.971061
     16          8           0       -4.330658    0.525454    7.440717
     17          7           0       -3.341974    1.196533    1.295441
     18          1           0       -2.848174    1.984388    1.682693
     19          6           0       -2.714676    0.591849    0.146959
     20          1           0       -2.862828   -0.489011    0.209203
     21          6           0       -1.229341    0.956051    0.197773
     22          6           0       -3.321244    1.102128   -1.177814
     23          1           0       -2.813140    0.601304   -2.006029
     24          1           0       -3.123803    2.173623   -1.268226
     25          8           0       -0.811493    1.870921    0.885063
     26          6           0       -4.794808    0.829111   -1.265662
     27          6           0       -5.377154   -0.225526   -1.913921
     28          1           0       -4.918252   -1.015245   -2.488896
     29          6           0       -5.869537    1.577492   -0.658798
     30          6           0       -7.067555    0.909742   -0.960004
     31          6           0       -5.919854    2.751079    0.104244
     32          1           0       -5.004762    3.272765    0.378545
     33          7           0       -6.743749   -0.186136   -1.730308
     34          1           0       -7.396808   -0.851567   -2.098112
     35          6           0       -8.330967    2.517890    0.243008
     36          1           0       -9.271307    2.886719    0.636260
     37          6           0       -8.311184    1.352713   -0.505868
     38          1           0       -9.219556    0.808671   -0.735928
     39          6           0       -7.151449    3.214303    0.537040
     40          1           0       -7.199319    4.102169    1.161014
     41          7           0       -0.433558    0.230123   -0.620661
     42          1           0       -0.801881   -0.534224   -1.165533
     43          6           0        0.993619    0.456198   -0.675395
     44          1           0        1.158425    1.536903   -0.700094
     45          6           0        1.509691   -0.201416   -1.945430
     46          6           0        1.725896   -0.062530    0.599344
     47          1           0        1.456562    0.622268    1.400539
     48          8           0        1.113965   -1.295751   -2.313738
     49          6           0        1.397558   -1.488757    0.982304
     50          1           0        0.341775   -1.576566    1.240857
     51          1           0        1.986537   -1.786461    1.850078
     52          1           0        1.604274   -2.168776    0.154008
     53          8           0        3.201758    0.021821    0.433780
     54          1           0        3.537548   -0.599951   -0.282842
     55          7           0        2.486189    0.468132   -2.613441
     56          1           0        2.860426    1.309025   -2.208850
     57          6           0        3.335574   -0.255127   -3.549767
     58          1           0        2.685917   -0.772181   -4.259232
     59          6           0        4.125485   -1.317876   -2.818474
     60          6           0        4.223724    0.747363   -4.302086
     61          1           0        4.910373    1.213910   -3.590620
     62          1           0        3.553464    1.530750   -4.657389
     63          8           0        4.309531   -1.337715   -1.616391
     64          6           0        4.976501    0.159434   -5.482912
     65          1           0        5.694206   -0.596322   -5.157838
     66          1           0        4.264497   -0.338550   -6.139450
     67          6           0        5.730683    1.210882   -6.287767
     68          1           0        6.493549    1.683544   -5.666079
     69          1           0        6.263551    0.744396   -7.122164
     70          7           0        4.901419    2.314859   -6.807830
     71          1           0        4.748206    3.076077   -6.162896
     72          7           0        3.814884    0.954846   -8.356992
     73          1           0        3.261652    0.904491   -9.197131
     74          1           0        4.597002    0.322395   -8.315022
     75          7           0        3.035862    3.127504   -7.934532
     76          1           0        3.304687    4.064447   -7.665432
     77          1           0        2.477892    3.074119   -8.773908
     78          6           0        3.932152    2.133548   -7.713827
     79          8           0        4.624898   -2.253549   -3.632632
     80          1           0        5.134007   -2.868980   -3.090618
     81          1           0        3.527600    0.916985    0.214103
 ---------------------------------------------------------------------

 SCF Done:  E(RB3LYP) =  -2053.80376852     A.U. after    3 cycles

 Alpha  occ. eigenvalues --  -19.45207 -19.35405 -19.31277 -19.27381 -19.22449
 Alpha  occ. eigenvalues --  -19.13827 -19.05973 -19.05847 -14.55770 -14.55467
 Alpha  occ. eigenvalues --  -14.55073 -14.52718 -14.48360 -14.42121 -14.39380
 Alpha  occ. eigenvalues --  -14.31108 -10.50149 -10.47899 -10.44335 -10.42789
 Alpha  occ. eigenvalues --  -10.40434 -10.40236 -10.39135 -10.38918 -10.36528
 Alpha  occ. eigenvalues --  -10.35474 -10.31865 -10.30241 -10.29980 -10.26465
 Alpha  occ. eigenvalues --  -10.26292 -10.25665 -10.22843 -10.22595 -10.22431
 Alpha  occ. eigenvalues --  -10.22306 -10.22250 -10.22163 -10.21965 -10.21536
 Alpha  occ. eigenvalues --  -10.17656 -10.14119  -1.32195  -1.27235  -1.20160
 Alpha  occ. eigenvalues --   -1.20116  -1.18328  -1.15191  -1.09902  -1.09494
 Alpha  occ. eigenvalues --   -1.08607  -1.06426  -1.05622  -1.02300  -0.98941
 Alpha  occ. eigenvalues --   -0.97909  -0.97050  -0.95393  -0.92596  -0.90152
 Alpha  occ. eigenvalues --   -0.89219  -0.88058  -0.87723  -0.85994  -0.85249
 Alpha  occ. eigenvalues --   -0.82832  -0.82295  -0.81266  -0.79748  -0.79373
 Alpha  occ. eigenvalues --   -0.77875  -0.77539  -0.76729  -0.76301  -0.75837
 Alpha  occ. eigenvalues --   -0.74950  -0.73456  -0.73130  -0.72116  -0.69536
 Alpha  occ. eigenvalues --   -0.68707  -0.68478  -0.68156  -0.67790  -0.66792
 Alpha  occ. eigenvalues --   -0.66438  -0.66182  -0.65225  -0.64157  -0.63434
 Alpha  occ. eigenvalues --   -0.63328  -0.62834  -0.62599  -0.61676  -0.61137
 Alpha  occ. eigenvalues --   -0.60712  -0.60356  -0.58978  -0.58634  -0.58293
 Alpha  occ. eigenvalues --   -0.57948  -0.57237  -0.56769  -0.55824  -0.55335
 Alpha  occ. eigenvalues --   -0.54539  -0.54382  -0.53544  -0.52874  -0.52647
 Alpha  occ. eigenvalues --   -0.52349  -0.52166  -0.51641  -0.51598  -0.51265
 Alpha  occ. eigenvalues --   -0.51039  -0.50376  -0.49840  -0.49477  -0.48268
 Alpha  occ. eigenvalues --   -0.47979  -0.46942  -0.46779  -0.46717  -0.46065
 Alpha  occ. eigenvalues --   -0.45504  -0.45270  -0.45204  -0.44977  -0.44620
 Alpha  occ. eigenvalues --   -0.43781  -0.42744  -0.42616  -0.42579  -0.41583
 Alpha  occ. eigenvalues --   -0.41197  -0.39676  -0.39130  -0.38514  -0.37948
 Alpha  occ. eigenvalues --   -0.37591  -0.37247  -0.37096  -0.35885  -0.35794
 Alpha  occ. eigenvalues --   -0.33951  -0.32318  -0.31754  -0.31423  -0.29371
 Alpha  occ. eigenvalues --   -0.27869  -0.26298  -0.24446  -0.23757  -0.20844
 Alpha  occ. eigenvalues --   -0.18690  -0.17945
 Alpha virt. eigenvalues --   -0.17205  -0.16699  -0.15768  -0.13901  -0.12537
 Alpha virt. eigenvalues --   -0.09431  -0.08554  -0.07819  -0.06603  -0.06486
 Alpha virt. eigenvalues --   -0.06337  -0.04979  -0.04253  -0.03965  -0.03667

 Mulliken charges:
               1
     1  N   -0.700524
     2  H    0.312486
     3  H    0.304942
     4  C   -0.071973
     5  H    0.119295
     6  C    0.609979
     7  C   -0.270715
     8  H    0.154952
     9  H    0.123545
    10  O   -0.537050
    11  C   -0.306138
    12  H    0.155735
    13  H    0.111864
    14  C    0.553454
    15  O   -0.526323
    16  O   -0.509612
    17  N   -0.621193
    18  H    0.350146
    19  C   -0.044108
    20  H    0.181138
    21  C    0.622056
    22  C   -0.350759
    23  H    0.117136
    24  H    0.152403
    25  O   -0.521574
    26  C    0.087649
    27  C    0.014151
    28  H    0.135251
    29  C    0.092668
    30  C    0.324873
    31  C   -0.215219
    32  H    0.119071
    33  N   -0.692197
    34  H    0.330136
    35  C   -0.153933
    36  H    0.139324
    37  C   -0.158055
    38  H    0.131619
    39  C   -0.148708
    40  H    0.138367
    41  N   -0.627012
    42  H    0.367438
    43  C   -0.038622
    44  H    0.177859
    45  C    0.579493
    46  C    0.025917
    47  H    0.257445
    48  O   -0.499249
    49  C   -0.485077
    50  H    0.231082
    51  H    0.208905
    52  H    0.193403
    53  O   -0.604369
    54  H    0.500772
    55  N   -0.612932
    56  H    0.316385
    57  C   -0.031863
    58  H    0.223877
    59  C    0.615199
    60  C   -0.308334
    61  H    0.152444
    62  H    0.158197
    63  O   -0.530548
    64  C   -0.278869
    65  H    0.194409
    66  H    0.167916
    67  C   -0.201840
    68  H    0.201072
    69  H    0.193534
    70  N   -0.568693
    71  H    0.355147
    72  N   -0.733483
    73  H    0.380054
    74  H    0.382380
    75  N   -0.738917
    76  H    0.377870
    77  H    0.376373
    78  C    0.721948
    79  O   -0.544901
    80  H    0.441190
    81  H    0.450240
 Sum of Mulliken charges =   1.00000

 Dipole moment (field-independent basis, Debye):
    X=             36.2147    Y=              4.2343    Z=            -54.6889  Tot=             65.7291
 Quadrupole moment (field-independent basis, Debye-Ang):
   XX=           -138.1771   YY=           -213.3973   ZZ=           -137.8197
   XY=             42.3916   XZ=            -50.5390   YZ=            -82.1376

 Normal termination of Gaussian 16 at Sun May 15 14:55:33 2022.
