 Gaussian 16, Revision C.01,
 Gaussian 16:  ES64L-G16RevC.01  3-Jul-2019

 -------------------------------------------------------------------
 # B3LYP/6-31G* guess=read geom=check nosymm integral(ultrafinegrid)
 -------------------------------------------------------------------

 ------------------------------------------------------
 Candidate Structure: Conf:428 Charge calc in gas phase
 ------------------------------------------------------
 Structure from the checkpoint file:  "conf-428.chk"
 Charge =  1 Multiplicity = 1

                          Input orientation:
 ---------------------------------------------------------------------
 Center     Atomic      Atomic             Coordinates (Angstroms)
 Number     Number       Type             X           Y           Z
 ---------------------------------------------------------------------
      1          7           0       -5.509657    2.503271    4.228290
      2          1           0       -6.459079    2.447408    3.857407
      3          1           0       -5.328991    1.590589    4.649742
      4          6           0       -4.563399    2.679072    3.128922
      5          1           0       -4.840827    3.587820    2.576916
      6          6           0       -4.499008    1.469494    2.184299
      7          6           0       -3.114721    2.862361    3.674023
      8          1           0       -3.144088    3.613276    4.471214
      9          1           0       -2.796760    1.917204    4.136043
     10          8           0       -4.629525    0.317150    2.581955
     11          6           0       -2.083533    3.290474    2.612748
     12          1           0       -2.370397    4.276868    2.219559
     13          1           0       -2.041108    2.563766    1.796050
     14          6           0       -0.638352    3.362241    3.172657
     15          8           0       -0.272280    4.438668    3.709331
     16          8           0        0.060686    2.315945    3.046341
     17          7           0       -4.125839    1.751208    0.882409
     18          1           0       -3.807320    2.695497    0.692812
     19          6           0       -3.409664    0.721776    0.151106
     20          1           0       -3.327220   -0.126909    0.840454
     21          6           0       -2.026739    1.295273   -0.125274
     22          6           0       -4.088601    0.257570   -1.172875
     23          1           0       -3.373980   -0.377508   -1.724432
     24          1           0       -4.270780    1.150422   -1.783614
     25          8           0       -1.814899    2.468093   -0.403725
     26          6           0       -5.366965   -0.485161   -0.940723
     27          6           0       -6.638967    0.026499   -1.032972
     28          1           0       -6.961970    1.016734   -1.325833
     29          6           0       -5.506651   -1.852906   -0.501364
     30          6           0       -6.899185   -2.101345   -0.342767
     31          6           0       -4.602100   -2.894905   -0.229531
     32          1           0       -3.530860   -2.745572   -0.351410
     33          7           0       -7.560837   -0.934996   -0.674961
     34          1           0       -8.561673   -0.805345   -0.660011
     35          6           0       -6.474141   -4.346957    0.340322
     36          1           0       -6.827046   -5.320705    0.669389
     37          6           0       -7.395801   -3.339478    0.078382
     38          1           0       -8.463081   -3.509181    0.196573
     39          6           0       -5.089545   -4.128368    0.184477
     40          1           0       -4.397140   -4.939491    0.395524
     41          7           0       -0.963458    0.408491    0.036014
     42          1           0       -1.167752   -0.586178    0.016127
     43          6           0        0.330557    0.834512   -0.395517
     44          1           0        0.228062    1.924331   -0.503399
     45          6           0        0.787926    0.181206   -1.704315
     46          6           0        1.336686    0.514854    0.745363
     47          1           0        1.098808    1.147021    1.604164
     48          8           0        0.581381   -0.997891   -1.941516
     49          6           0        1.450600   -0.934992    1.169551
     50          1           0        0.497108   -1.236377    1.609976
     51          1           0        2.224442   -1.045087    1.935214
     52          1           0        1.676112   -1.596770    0.327528
     53          8           0        2.738352    0.956709    0.331983
     54          1           0        3.149263    0.453344   -0.513129
     55          7           0        1.529858    0.981823   -2.552812
     56          1           0        1.679386    1.950732   -2.307343
     57          6           0        2.428462    0.362726   -3.510330
     58          1           0        1.882465   -0.474534   -3.962430
     59          6           0        3.625189   -0.248496   -2.778463
     60          6           0        2.835333    1.318321   -4.657818
     61          1           0        1.906922    1.661704   -5.131424
     62          1           0        3.371386    0.719473   -5.402237
     63          8           0        3.888542   -0.146435   -1.559110
     64          6           0        3.699567    2.528277   -4.257637
     65          1           0        3.178174    3.167987   -3.530653
     66          1           0        4.629594    2.182798   -3.780955
     67          6           0        4.043719    3.385185   -5.483004
     68          1           0        4.574828    2.774112   -6.228804
     69          1           0        3.114703    3.746644   -5.941307
     70          7           0        4.849106    4.551617   -5.092453
     71          1           0        5.492040    4.374596   -4.323628
     72          7           0        4.922219    5.442840   -7.283981
     73          1           0        5.045286    6.270740   -7.855117
     74          1           0        4.165374    4.838234   -7.572946
     75          7           0        6.224679    6.382037   -5.576200
     76          1           0        6.250195    6.611108   -4.588807
     77          1           0        6.425436    7.173503   -6.176828
     78          6           0        5.307120    5.468394   -5.988385
     79          8           0        4.408746   -0.958188   -3.587125
     80          1           0        5.133453   -1.354896   -3.059824
     81          1           0        2.768955    1.905786    0.159047
 ---------------------------------------------------------------------

 SCF Done:  E(RB3LYP) =  -2053.75841317     A.U. after    3 cycles

 Alpha  occ. eigenvalues --  -19.38275 -19.36934 -19.32939 -19.25145 -19.19944
 Alpha  occ. eigenvalues --  -19.14315 -19.06404 -19.06274 -14.56687 -14.56651
 Alpha  occ. eigenvalues --  -14.55955 -14.50779 -14.44970 -14.41567 -14.38838
 Alpha  occ. eigenvalues --  -14.32732 -10.52089 -10.50065 -10.41928 -10.41379
 Alpha  occ. eigenvalues --  -10.40205 -10.37338 -10.37181 -10.36514 -10.36249
 Alpha  occ. eigenvalues --  -10.34675 -10.30614 -10.28322 -10.28177 -10.25658
 Alpha  occ. eigenvalues --  -10.25273 -10.24920 -10.24381 -10.23795 -10.22215
 Alpha  occ. eigenvalues --  -10.22182 -10.22003 -10.21848 -10.21699 -10.21446
 Alpha  occ. eigenvalues --  -10.18945 -10.16963  -1.28076  -1.24812  -1.20480
 Alpha  occ. eigenvalues --   -1.18787  -1.17259  -1.12205  -1.10521  -1.09118
 Alpha  occ. eigenvalues --   -1.07438  -1.06121  -1.02010  -1.01365  -0.99004
 Alpha  occ. eigenvalues --   -0.97472  -0.95926  -0.92421  -0.90249  -0.90028
 Alpha  occ. eigenvalues --   -0.89901  -0.87139  -0.86189  -0.84727  -0.82914
 Alpha  occ. eigenvalues --   -0.82679  -0.80409  -0.79698  -0.77764  -0.77372
 Alpha  occ. eigenvalues --   -0.77313  -0.76821  -0.75940  -0.75311  -0.74605
 Alpha  occ. eigenvalues --   -0.73726  -0.73177  -0.71367  -0.69385  -0.68986
 Alpha  occ. eigenvalues --   -0.68378  -0.68152  -0.67202  -0.66883  -0.66125
 Alpha  occ. eigenvalues --   -0.65628  -0.65102  -0.63769  -0.63081  -0.62746
 Alpha  occ. eigenvalues --   -0.62450  -0.61650  -0.61525  -0.60655  -0.60323
 Alpha  occ. eigenvalues --   -0.59345  -0.58718  -0.57871  -0.57404  -0.57221
 Alpha  occ. eigenvalues --   -0.56538  -0.55839  -0.55040  -0.53931  -0.53439
 Alpha  occ. eigenvalues --   -0.53011  -0.52514  -0.52099  -0.51842  -0.51631
 Alpha  occ. eigenvalues --   -0.51288  -0.50773  -0.50522  -0.50073  -0.49541
 Alpha  occ. eigenvalues --   -0.49369  -0.48782  -0.48517  -0.48021  -0.47692
 Alpha  occ. eigenvalues --   -0.47334  -0.47073  -0.46560  -0.46341  -0.45888
 Alpha  occ. eigenvalues --   -0.45751  -0.45212  -0.45170  -0.44433  -0.43733
 Alpha  occ. eigenvalues --   -0.43097  -0.42915  -0.42016  -0.41300  -0.40453
 Alpha  occ. eigenvalues --   -0.40080  -0.39169  -0.38788  -0.38709  -0.37941
 Alpha  occ. eigenvalues --   -0.36890  -0.36864  -0.36568  -0.35309  -0.34591
 Alpha  occ. eigenvalues --   -0.33924  -0.33494  -0.32438  -0.30841  -0.29045
 Alpha  occ. eigenvalues --   -0.28243  -0.25529  -0.25118  -0.23725  -0.21809
 Alpha  occ. eigenvalues --   -0.20683  -0.19241
 Alpha virt. eigenvalues --   -0.18253  -0.17773  -0.12529  -0.12252  -0.10707
 Alpha virt. eigenvalues --   -0.09253  -0.08298  -0.07398  -0.07204  -0.06836
 Alpha virt. eigenvalues --   -0.06190  -0.05085  -0.04361  -0.03652  -0.02485

 Mulliken charges:
               1
     1  N   -0.695997
     2  H    0.292320
     3  H    0.310025
     4  C   -0.073088
     5  H    0.126475
     6  C    0.573886
     7  C   -0.258634
     8  H    0.173129
     9  H    0.149002
    10  O   -0.514428
    11  C   -0.347683
    12  H    0.115677
    13  H    0.116603
    14  C    0.535830
    15  O   -0.544148
    16  O   -0.613113
    17  N   -0.594742
    18  H    0.346681
    19  C   -0.054444
    20  H    0.200732
    21  C    0.622461
    22  C   -0.358338
    23  H    0.132408
    24  H    0.151601
    25  O   -0.513207
    26  C    0.079180
    27  C    0.012435
    28  H    0.150301
    29  C    0.102738
    30  C    0.316274
    31  C   -0.203147
    32  H    0.093478
    33  N   -0.691126
    34  H    0.331667
    35  C   -0.150171
    36  H    0.129395
    37  C   -0.157768
    38  H    0.128401
    39  C   -0.136123
    40  H    0.119642
    41  N   -0.588852
    42  H    0.353946
    43  C   -0.100756
    44  H    0.200744
    45  C    0.600308
    46  C    0.028931
    47  H    0.304036
    48  O   -0.487339
    49  C   -0.489338
    50  H    0.219492
    51  H    0.202142
    52  H    0.171260
    53  O   -0.652112
    54  H    0.509983
    55  N   -0.617944
    56  H    0.332566
    57  C   -0.055788
    58  H    0.250982
    59  C    0.640377
    60  C   -0.299785
    61  H    0.195154
    62  H    0.194036
    63  O   -0.546600
    64  C   -0.324518
    65  H    0.169186
    66  H    0.165405
    67  C   -0.149029
    68  H    0.193627
    69  H    0.190541
    70  N   -0.599256
    71  H    0.364343
    72  N   -0.732467
    73  H    0.386927
    74  H    0.390690
    75  N   -0.733037
    76  H    0.384906
    77  H    0.382853
    78  C    0.757532
    79  O   -0.527679
    80  H    0.451479
    81  H    0.458869
 Sum of Mulliken charges =   1.00000

 Dipole moment (field-independent basis, Debye):
    X=             29.3767    Y=             15.7658    Z=            -41.7836  Tot=             53.4549
 Quadrupole moment (field-independent basis, Debye-Ang):
   XX=            -55.5934   YY=           -139.0968   ZZ=           -111.1228
   XY=            124.2059   XZ=           -134.9628   YZ=           -190.1188

 Normal termination of Gaussian 16 at Thu May 26 18:16:59 2022.
