 Gaussian 16, Revision C.01,
 Gaussian 16:  ES64L-G16RevC.01  3-Jul-2019

 -------------------------------------------------------------------
 # B3LYP/6-31G* guess=read geom=check nosymm integral(ultrafinegrid)
 -------------------------------------------------------------------

 ------------------------------------------------------
 Candidate Structure: Conf:197 Charge calc in gas phase
 ------------------------------------------------------
 Structure from the checkpoint file:  "conf-197.chk"
 Charge =  1 Multiplicity = 1

                          Input orientation:
 ---------------------------------------------------------------------
 Center     Atomic      Atomic             Coordinates (Angstroms)
 Number     Number       Type             X           Y           Z
 ---------------------------------------------------------------------
      1          7           0       -5.247731    0.611689    4.168449
      2          1           0       -5.287961    1.406818    3.544700
      3          1           0       -5.799690   -0.129961    3.747266
      4          6           0       -3.861673    0.156353    4.319580
      5          1           0       -3.250829    1.017065    4.597957
      6          6           0       -3.354528   -0.433636    3.004112
      7          6           0       -3.773799   -0.870782    5.442228
      8          1           0       -4.466099   -1.689082    5.236510
      9          1           0       -2.759503   -1.279892    5.482858
     10          8           0       -3.647626   -1.583448    2.660670
     11          6           0       -4.077135   -0.198373    6.776403
     12          1           0       -3.945925   -0.896573    7.608257
     13          1           0       -5.087115    0.214699    6.799929
     14          6           0       -3.036842    0.932104    6.933819
     15          8           0       -3.477062    2.089378    7.089692
     16          8           0       -1.851818    0.561686    6.909999
     17          7           0       -2.711226    0.456768    2.203966
     18          1           0       -2.292389    1.270782    2.632436
     19          6           0       -2.128994    0.087091    0.935368
     20          1           0       -2.421848   -0.939616    0.731696
     21          6           0       -0.605118    0.203352    1.052531
     22          6           0       -2.615873    0.978685   -0.214198
     23          1           0       -2.022128    0.741005   -1.105762
     24          1           0       -2.401952    2.024137    0.022514
     25          8           0       -0.064442    0.946709    1.851435
     26          6           0       -4.077820    0.810768   -0.527838
     27          6           0       -4.961936   -0.124235   -0.056701
     28          1           0       -4.804217   -0.902030    0.669343
     29          6           0       -4.822983    1.628085   -1.455327
     30          6           0       -6.139334    1.143416   -1.486088
     31          6           0       -4.471293    2.728102   -2.247659
     32          1           0       -3.459572    3.121780   -2.242734
     33          7           0       -6.202250    0.078296   -0.619367
     34          1           0       -7.016577   -0.481120   -0.447717
     35          6           0       -6.761159    2.802669   -3.064224
     36          1           0       -7.499456    3.276581   -3.699714
     37          6           0       -7.130630    1.715946   -2.286317
     38          1           0       -8.141753    1.324360   -2.294454
     39          6           0       -5.445801    3.303285   -3.045099
     40          1           0       -5.196953    4.155318   -3.666729
     41          7           0        0.094841   -0.570180    0.166947
     42          1           0       -0.411218   -1.015071   -0.582314
     43          6           0        1.526209   -0.373534   -0.049119
     44          1           0        1.789620    0.623431    0.287601
     45          6           0        1.800245   -0.562214   -1.525215
     46          6           0        2.379011   -1.403751    0.713826
     47          1           0        3.420587   -1.269724    0.420169
     48          8           0        1.500250   -1.628051   -2.086150
     49          6           0        2.222818   -1.321119    2.214214
     50          1           0        2.560443   -0.347051    2.576672
     51          1           0        2.811563   -2.100340    2.698189
     52          1           0        1.179919   -1.441994    2.500983
     53          8           0        1.994351   -2.763197    0.250556
     54          1           0        1.111998   -2.944088    0.645932
     55          7           0        2.343813    0.465832   -2.200990
     56          1           0        2.792196    1.192347   -1.664561
     57          6           0        2.928440    0.205154   -3.511976
     58          1           0        2.214378   -0.395887   -4.083057
     59          6           0        4.179398   -0.636271   -3.345480
     60          6           0        3.221193    1.514561   -4.234205
     61          1           0        3.772260    1.297105   -5.149859
     62          1           0        3.873892    2.119108   -3.602258
     63          8           0        4.679392   -0.928323   -2.289946
     64          6           0        1.951804    2.281073   -4.574001
     65          1           0        1.309923    1.649405   -5.193401
     66          1           0        1.393482    2.512731   -3.668396
     67          6           0        2.242113    3.568018   -5.323703
     68          1           0        2.893912    4.215189   -4.723773
     69          1           0        2.775886    3.334381   -6.249499
     70          7           0        0.977369    4.253735   -5.650103
     71          1           0        0.257590    4.164687   -4.947836
     72          7           0        2.076819    5.940823   -6.843279
     73          1           0        2.003454    6.634138   -7.569723
     74          1           0        2.902324    5.366813   -6.861035
     75          7           0       -0.223716    6.085402   -6.399344
     76          1           0       -1.065194    5.532051   -6.315026
     77          1           0       -0.283002    6.834343   -7.071445
     78          6           0        0.953437    5.420351   -6.316278
     79          8           0        4.677347   -1.024710   -4.536143
     80          1           0        5.461799   -1.552183   -4.343603
     81          1           0        1.812225   -2.612416   -0.730819
 ---------------------------------------------------------------------

 SCF Done:  E(RB3LYP) =  -2053.72411553     A.U. after    3 cycles

 Alpha  occ. eigenvalues --  -19.44799 -19.33245 -19.29747 -19.28290 -19.23851
 Alpha  occ. eigenvalues --  -19.15813 -19.04990 -19.03995 -14.54823 -14.54786
 Alpha  occ. eigenvalues --  -14.54036 -14.52864 -14.50222 -14.43752 -14.41557
 Alpha  occ. eigenvalues --  -14.33453 -10.49384 -10.46144 -10.45222 -10.43111
 Alpha  occ. eigenvalues --  -10.40404 -10.39954 -10.39811 -10.39222 -10.35321
 Alpha  occ. eigenvalues --  -10.35282 -10.32143 -10.32004 -10.31910 -10.28322
 Alpha  occ. eigenvalues --  -10.27692 -10.27557 -10.25043 -10.24872 -10.24663
 Alpha  occ. eigenvalues --  -10.24437 -10.24383 -10.24347 -10.22750 -10.21485
 Alpha  occ. eigenvalues --  -10.16882 -10.13682  -1.32315  -1.24896  -1.21476
 Alpha  occ. eigenvalues --   -1.19298  -1.16295  -1.16041  -1.09874  -1.09051
 Alpha  occ. eigenvalues --   -1.07804  -1.07601  -1.06958  -1.04157  -0.98911
 Alpha  occ. eigenvalues --   -0.97923  -0.97557  -0.95931  -0.92147  -0.90792
 Alpha  occ. eigenvalues --   -0.90280  -0.88980  -0.88496  -0.87219  -0.84651
 Alpha  occ. eigenvalues --   -0.83419  -0.81719  -0.81167  -0.79857  -0.78510
 Alpha  occ. eigenvalues --   -0.78183  -0.77781  -0.77043  -0.76548  -0.75512
 Alpha  occ. eigenvalues --   -0.74913  -0.74568  -0.73122  -0.73018  -0.69832
 Alpha  occ. eigenvalues --   -0.68651  -0.68456  -0.68236  -0.67593  -0.67007
 Alpha  occ. eigenvalues --   -0.66601  -0.65738  -0.65664  -0.65186  -0.64633
 Alpha  occ. eigenvalues --   -0.63897  -0.63012  -0.62894  -0.61974  -0.61018
 Alpha  occ. eigenvalues --   -0.60321  -0.59693  -0.59508  -0.59196  -0.58560
 Alpha  occ. eigenvalues --   -0.57903  -0.57329  -0.56449  -0.55784  -0.55453
 Alpha  occ. eigenvalues --   -0.55240  -0.54657  -0.54406  -0.53836  -0.53482
 Alpha  occ. eigenvalues --   -0.53384  -0.52978  -0.52411  -0.52072  -0.51621
 Alpha  occ. eigenvalues --   -0.51357  -0.50843  -0.50562  -0.50381  -0.49604
 Alpha  occ. eigenvalues --   -0.49308  -0.48986  -0.47447  -0.47050  -0.46847
 Alpha  occ. eigenvalues --   -0.46212  -0.46094  -0.45811  -0.45081  -0.44688
 Alpha  occ. eigenvalues --   -0.44538  -0.44333  -0.43390  -0.43196  -0.42007
 Alpha  occ. eigenvalues --   -0.41761  -0.41455  -0.40398  -0.40057  -0.39679
 Alpha  occ. eigenvalues --   -0.39561  -0.38177  -0.37281  -0.36004  -0.35358
 Alpha  occ. eigenvalues --   -0.34097  -0.33488  -0.31917  -0.31455  -0.30642
 Alpha  occ. eigenvalues --   -0.30326  -0.28425  -0.26518  -0.24839  -0.19914
 Alpha  occ. eigenvalues --   -0.17915  -0.17155
 Alpha virt. eigenvalues --   -0.16371  -0.16003  -0.13304  -0.12595  -0.11019
 Alpha virt. eigenvalues --   -0.08912  -0.08108  -0.08001  -0.07118  -0.06728
 Alpha virt. eigenvalues --   -0.05840  -0.05674  -0.05089  -0.04160  -0.03960

 Mulliken charges:
               1
     1  N   -0.680198
     2  H    0.294746
     3  H    0.293143
     4  C   -0.087681
     5  H    0.176993
     6  C    0.605192
     7  C   -0.245155
     8  H    0.118854
     9  H    0.137974
    10  O   -0.555236
    11  C   -0.319799
    12  H    0.123888
    13  H    0.143421
    14  C    0.541163
    15  O   -0.534199
    16  O   -0.565405
    17  N   -0.583755
    18  H    0.355666
    19  C   -0.092724
    20  H    0.177383
    21  C    0.621443
    22  C   -0.339552
    23  H    0.110360
    24  H    0.163665
    25  O   -0.489034
    26  C    0.070368
    27  C   -0.010937
    28  H    0.199977
    29  C    0.076798
    30  C    0.322014
    31  C   -0.205356
    32  H    0.084365
    33  N   -0.702920
    34  H    0.338637
    35  C   -0.151996
    36  H    0.131948
    37  C   -0.156767
    38  H    0.138856
    39  C   -0.136316
    40  H    0.102039
    41  N   -0.642918
    42  H    0.355345
    43  C   -0.092800
    44  H    0.213738
    45  C    0.627582
    46  C    0.033730
    47  H    0.238070
    48  O   -0.573009
    49  C   -0.480716
    50  H    0.229071
    51  H    0.207625
    52  H    0.208474
    53  O   -0.580351
    54  H    0.486211
    55  N   -0.585472
    56  H    0.352362
    57  C   -0.063575
    58  H    0.225267
    59  C    0.601439
    60  C   -0.310032
    61  H    0.199499
    62  H    0.163245
    63  O   -0.459491
    64  C   -0.302525
    65  H    0.184818
    66  H    0.167249
    67  C   -0.153527
    68  H    0.186109
    69  H    0.182626
    70  N   -0.596745
    71  H    0.361812
    72  N   -0.734092
    73  H    0.379052
    74  H    0.383669
    75  N   -0.732362
    76  H    0.377653
    77  H    0.373832
    78  C    0.736088
    79  O   -0.557340
    80  H    0.437472
    81  H    0.481055
 Sum of Mulliken charges =   1.00000

 Dipole moment (field-independent basis, Debye):
    X=             19.1541    Y=             11.1853    Z=            -48.4994  Tot=             53.3308
 Quadrupole moment (field-independent basis, Debye-Ang):
   XX=           -194.4743   YY=           -126.4307   ZZ=           -212.7586
   XY=             27.5128   XZ=             16.4381   YZ=           -174.0871

 Normal termination of Gaussian 16 at Thu May 26 18:15:55 2022.
