 Gaussian 16, Revision C.01,
 Gaussian 16:  ES64L-G16RevC.01  3-Jul-2019

 -------------------------------------------------------------------
 # B3LYP/6-31G* guess=read geom=check nosymm integral(ultrafinegrid)
 -------------------------------------------------------------------

 ------------------------------------------------------
 Candidate Structure: Conf:796 Charge calc in gas phase
 ------------------------------------------------------
 Structure from the checkpoint file:  "conf-796.chk"
 Charge =  1 Multiplicity = 1

                          Input orientation:
 ---------------------------------------------------------------------
 Center     Atomic      Atomic             Coordinates (Angstroms)
 Number     Number       Type             X           Y           Z
 ---------------------------------------------------------------------
      1          7           0       -3.000793    0.287438    4.437413
      2          1           0       -3.968730    0.080083    4.198286
      3          1           0       -2.527412   -0.613095    4.506279
      4          6           0       -2.375868    1.069579    3.379422
      5          1           0       -3.004941    1.947279    3.183249
      6          6           0       -2.180859    0.267785    2.085364
      7          6           0       -0.994025    1.563902    3.892301
      8          1           0       -1.179892    1.959974    4.893855
      9          1           0       -0.347827    0.690689    4.034894
     10          8           0       -1.710000   -0.881433    2.133903
     11          6           0       -0.323891    2.648940    3.017674
     12          1           0       -0.390856    3.629012    3.497903
     13          1           0       -0.865975    2.767579    2.070405
     14          6           0        1.133766    2.535765    2.586802
     15          8           0        1.802688    1.398815    2.660959
     16          8           0        1.707355    3.532657    2.151319
     17          7           0       -2.467420    0.865174    0.911690
     18          1           0       -2.973064    1.742353    0.881177
     19          6           0       -2.051207    0.318068   -0.387529
     20          1           0       -2.377796   -0.724393   -0.438756
     21          6           0       -0.510502    0.413190   -0.405431
     22          6           0       -2.672763    1.137888   -1.535642
     23          1           0       -2.422043    0.623477   -2.472153
     24          1           0       -2.163189    2.106953   -1.567384
     25          8           0        0.050557    1.499706   -0.573996
     26          6           0       -4.153621    1.334558   -1.409352
     27          6           0       -4.790566    2.530431   -1.173044
     28          1           0       -4.375717    3.525541   -1.080961
     29          6           0       -5.187604    0.330274   -1.497512
     30          6           0       -6.428355    0.991993   -1.302091
     31          6           0       -5.188792   -1.056185   -1.734636
     32          1           0       -4.259375   -1.593769   -1.905372
     33          7           0       -6.152556    2.330656   -1.100461
     34          1           0       -6.842103    3.057722   -0.992827
     35          6           0       -7.618888   -1.053722   -1.563200
     36          1           0       -8.550318   -1.610811   -1.594574
     37          6           0       -7.651890    0.315044   -1.330465
     38          1           0       -8.592013    0.838360   -1.180682
     39          6           0       -6.399843   -1.732960   -1.765352
     40          1           0       -6.413199   -2.802538   -1.951737
     41          7           0        0.133517   -0.743853   -0.153471
     42          1           0       -0.433813   -1.565607    0.014644
     43          6           0        1.531733   -0.826883    0.249377
     44          1           0        1.845381    0.193401    0.481716
     45          6           0        2.381512   -1.353849   -0.919772
     46          6           0        1.672659   -1.669282    1.544627
     47          1           0        1.229238   -2.657925    1.365256
     48          8           0        2.043702   -2.301749   -1.609603
     49          6           0        3.117970   -1.835639    1.995205
     50          1           0        3.721024   -2.353165    1.245886
     51          1           0        3.135983   -2.414465    2.922162
     52          1           0        3.573110   -0.859916    2.201731
     53          8           0        0.968627   -1.034950    2.628564
     54          1           0        1.329590    0.528353    2.753076
     55          7           0        3.515344   -0.618268   -1.117148
     56          1           0        3.774610    0.030907   -0.390286
     57          6           0        4.495618   -0.899996   -2.141848
     58          1           0        3.986192   -1.531392   -2.877423
     59          6           0        5.723523   -1.701386   -1.693377
     60          6           0        4.945063    0.407112   -2.826870
     61          1           0        4.039527    0.876499   -3.224599
     62          1           0        5.582382    0.148235   -3.676526
     63          8           0        6.661558   -1.917241   -2.424302
     64          6           0        5.704267    1.374641   -1.891471
     65          1           0        5.452864    1.208605   -0.836199
     66          1           0        6.782107    1.192309   -1.966632
     67          6           0        5.451566    2.855709   -2.200354
     68          1           0        6.100177    3.495524   -1.590808
     69          1           0        5.699443    3.081293   -3.240973
     70          7           0        4.049807    3.265072   -2.018420
     71          1           0        3.484711    3.397984   -2.845972
     72          7           0        4.074164    3.571810    0.308315
     73          1           0        3.505530    3.594255    1.157908
     74          1           0        5.051911    3.821557    0.350722
     75          7           0        2.075871    3.588924   -0.845367
     76          1           0        1.524191    2.914038   -1.368349
     77          1           0        1.667523    3.761560    0.074127
     78          6           0        3.414879    3.466156   -0.852361
     79          8           0        5.659855   -2.128181   -0.414543
     80          1           0        6.470674   -2.648152   -0.256143
     81          1           0       -0.004482   -1.160061    2.528785
 ---------------------------------------------------------------------

 SCF Done:  E(RB3LYP) =  -2053.96972945     A.U. after    1 cycles

 Alpha  occ. eigenvalues --  -19.29670 -19.27922 -19.26103 -19.23790 -19.23423
 Alpha  occ. eigenvalues --  -19.23060 -19.22867 -19.21548 -14.51793 -14.50642
 Alpha  occ. eigenvalues --  -14.48887 -14.47491 -14.47314 -14.46747 -14.45554
 Alpha  occ. eigenvalues --  -14.40281 -10.47022 -10.42739 -10.41724 -10.39928
 Alpha  occ. eigenvalues --  -10.39347 -10.38891 -10.36519 -10.35255 -10.34312
 Alpha  occ. eigenvalues --  -10.33949 -10.33740 -10.32396 -10.31383 -10.30390
 Alpha  occ. eigenvalues --  -10.30089 -10.30039 -10.29100 -10.28938 -10.28917
 Alpha  occ. eigenvalues --  -10.27041 -10.26531 -10.25727 -10.25693 -10.25624
 Alpha  occ. eigenvalues --  -10.25138 -10.24781  -1.20380  -1.19681  -1.15592
 Alpha  occ. eigenvalues --   -1.15274  -1.14162  -1.13599  -1.12994  -1.11285
 Alpha  occ. eigenvalues --   -1.10722  -1.05511  -1.05490  -1.03787  -1.03585
 Alpha  occ. eigenvalues --   -1.03270  -1.02822  -0.98085  -0.92084  -0.90959
 Alpha  occ. eigenvalues --   -0.89888  -0.88837  -0.88354  -0.86521  -0.84868
 Alpha  occ. eigenvalues --   -0.81705  -0.80621  -0.80407  -0.80155  -0.79018
 Alpha  occ. eigenvalues --   -0.77350  -0.75508  -0.73969  -0.73444  -0.72972
 Alpha  occ. eigenvalues --   -0.72424  -0.71746  -0.69551  -0.69462  -0.69162
 Alpha  occ. eigenvalues --   -0.69112  -0.68508  -0.67601  -0.66574  -0.64870
 Alpha  occ. eigenvalues --   -0.64689  -0.64121  -0.63263  -0.63124  -0.62344
 Alpha  occ. eigenvalues --   -0.61376  -0.61338  -0.61141  -0.60519  -0.60037
 Alpha  occ. eigenvalues --   -0.59858  -0.58311  -0.57999  -0.57859  -0.57256
 Alpha  occ. eigenvalues --   -0.56843  -0.56686  -0.55713  -0.55199  -0.54925
 Alpha  occ. eigenvalues --   -0.54632  -0.54188  -0.54070  -0.53871  -0.52979
 Alpha  occ. eigenvalues --   -0.52267  -0.51769  -0.51468  -0.51362  -0.51037
 Alpha  occ. eigenvalues --   -0.50779  -0.50277  -0.50159  -0.50003  -0.49882
 Alpha  occ. eigenvalues --   -0.49723  -0.49315  -0.48801  -0.48130  -0.48021
 Alpha  occ. eigenvalues --   -0.47968  -0.47533  -0.46868  -0.46721  -0.46311
 Alpha  occ. eigenvalues --   -0.45891  -0.45740  -0.45343  -0.45157  -0.44737
 Alpha  occ. eigenvalues --   -0.43947  -0.43482  -0.42256  -0.42140  -0.41302
 Alpha  occ. eigenvalues --   -0.41226  -0.40489  -0.40326  -0.40318  -0.39390
 Alpha  occ. eigenvalues --   -0.38986  -0.38758  -0.38091  -0.37729  -0.36879
 Alpha  occ. eigenvalues --   -0.35559  -0.34838  -0.34661  -0.34469  -0.32698
 Alpha  occ. eigenvalues --   -0.29408  -0.27885
 Alpha virt. eigenvalues --   -0.12343  -0.10133  -0.09822  -0.08964  -0.08872
 Alpha virt. eigenvalues --   -0.08206  -0.08073  -0.06592  -0.05395  -0.04511
 Alpha virt. eigenvalues --   -0.03929  -0.02419  -0.01740  -0.01545  -0.00846

 Mulliken charges:
               1
     1  N   -0.690793
     2  H    0.316261
     3  H    0.318102
     4  C   -0.081584
     5  H    0.145056
     6  C    0.622053
     7  C   -0.285813
     8  H    0.197342
     9  H    0.158262
    10  O   -0.582346
    11  C   -0.389446
    12  H    0.207782
    13  H    0.181786
    14  C    0.599931
    15  O   -0.601123
    16  O   -0.514867
    17  N   -0.584177
    18  H    0.341797
    19  C   -0.035856
    20  H    0.181317
    21  C    0.632444
    22  C   -0.398572
    23  H    0.177174
    24  H    0.167264
    25  O   -0.579488
    26  C    0.051035
    27  C   -0.015788
    28  H    0.154755
    29  C    0.091138
    30  C    0.310583
    31  C   -0.210742
    32  H    0.120794
    33  N   -0.684584
    34  H    0.339243
    35  C   -0.148438
    36  H    0.143862
    37  C   -0.158595
    38  H    0.139447
    39  C   -0.137152
    40  H    0.137999
    41  N   -0.567759
    42  H    0.357657
    43  C   -0.105903
    44  H    0.167266
    45  C    0.634722
    46  C    0.107150
    47  H    0.167303
    48  O   -0.501455
    49  C   -0.484526
    50  H    0.191091
    51  H    0.186356
    52  H    0.152550
    53  O   -0.689686
    54  H    0.481454
    55  N   -0.608774
    56  H    0.340054
    57  C   -0.076527
    58  H    0.230140
    59  C    0.601635
    60  C   -0.269629
    61  H    0.142059
    62  H    0.198327
    63  O   -0.445319
    64  C   -0.286958
    65  H    0.141626
    66  H    0.193825
    67  C   -0.175442
    68  H    0.175974
    69  H    0.198203
    70  N   -0.583456
    71  H    0.370861
    72  N   -0.765050
    73  H    0.411841
    74  H    0.373184
    75  N   -0.756232
    76  H    0.384842
    77  H    0.397764
    78  C    0.748670
    79  O   -0.564207
    80  H    0.427644
    81  H    0.462663
 Sum of Mulliken charges =   1.00000

 Dipole moment (field-independent basis, Debye):
    X=              6.1483    Y=             10.9574    Z=             -1.1534  Tot=             12.6173
 Quadrupole moment (field-independent basis, Debye-Ang):
   XX=           -122.2748   YY=           -199.9063   ZZ=           -233.4364
   XY=             16.4918   XZ=            -10.4242   YZ=            -18.9687

 Normal termination of Gaussian 16 at Thu May 26 18:16:19 2022.
