 Gaussian 16, Revision C.01,
 Gaussian 16:  ES64L-G16RevC.01  3-Jul-2019

 ----------------------------------------------------------------------
 # B3LYP/6-31G* empiricaldispersion=gd3 guess=read geom=check nosymm in
 tegral(ultrafinegrid)
 ----------------------------------------------------------------------

 ------------------------------------------------------
 Candidate Structure: Conf:879 Charge calc in gas phase
 ------------------------------------------------------
 Structure from the checkpoint file:  "conf-879.chk"
 Charge =  1 Multiplicity = 1

                          Input orientation:
 ---------------------------------------------------------------------
 Center     Atomic      Atomic             Coordinates (Angstroms)
 Number     Number       Type             X           Y           Z
 ---------------------------------------------------------------------
      1          7           0       -5.189853    1.930943    2.074214
      2          1           0       -5.847870    1.202676    1.787283
      3          1           0       -5.775220    2.653029    2.578714
      4          6           0       -4.404436    1.355913    3.190251
      5          1           0       -3.770931    2.171019    3.568006
      6          6           0       -3.515666    0.331221    2.507886
      7          6           0       -5.233265    0.808753    4.370084
      8          1           0       -6.175791    0.412233    3.973685
      9          1           0       -4.708023   -0.045495    4.820507
     10          8           0       -3.900209   -0.755934    2.094718
     11          6           0       -5.498098    1.854971    5.465197
     12          1           0       -4.536372    2.168049    5.898811
     13          1           0       -6.045671    1.383640    6.288803
     14          6           0       -6.268138    3.166275    5.098868
     15          8           0       -6.602850    3.846098    6.084455
     16          8           0       -6.467274    3.456965    3.876950
     17          7           0       -2.218442    0.767796    2.230443
     18          1           0       -2.054085    1.760272    2.344009
     19          6           0       -1.572551    0.152601    1.102797
     20          1           0       -1.721931   -0.930342    1.202306
     21          6           0       -0.107929    0.448359    1.051904
     22          6           0       -2.248486    0.575882   -0.263809
     23          1           0       -3.265407    0.181043   -0.179802
     24          1           0       -1.757242    0.041853   -1.089016
     25          8           0        0.362012    1.442511    1.747775
     26          6           0       -2.246541    2.056725   -0.499577
     27          6           0       -3.138337    2.962899    0.053947
     28          1           0       -3.999812    2.752032    0.718486
     29          6           0       -1.261475    2.831822   -1.217876
     30          6           0       -1.620913    4.202186   -1.071386
     31          6           0       -0.153486    2.510212   -2.023311
     32          1           0        0.137955    1.475941   -2.163634
     33          7           0       -2.758382    4.236680   -0.290727
     34          1           0       -3.241593    5.071939    0.009611
     35          6           0        0.205036    4.881187   -2.457359
     36          1           0        0.787150    5.660761   -2.938448
     37          6           0       -0.895164    5.231130   -1.679614
     38          1           0       -1.181740    6.270953   -1.552991
     39          6           0        0.571133    3.531407   -2.634152
     40          1           0        1.434984    3.290505   -3.249256
     41          7           0        0.659391   -0.232757    0.210685
     42          1           0        0.281596   -1.067098   -0.237908
     43          6           0        1.898192    0.240036   -0.418610
     44          1           0        1.824484    1.326607   -0.549367
     45          6           0        1.897470   -0.452097   -1.799612
     46          6           0        3.131439   -0.036377    0.457011
     47          1           0        3.097173   -1.078604    0.797649
     48          8           0        1.352481   -1.545480   -1.944429
     49          6           0        4.452579    0.273820   -0.234066
     50          1           0        4.626337   -0.399195   -1.079144
     51          1           0        5.280917    0.146490    0.469464
     52          1           0        4.471580    1.309097   -0.591289
     53          8           0        2.934889    0.854774    1.580911
     54          1           0        1.370031    1.411618    1.771070
     55          7           0        2.427761    0.267904   -2.807610
     56          1           0        2.946385    1.120733   -2.620586
     57          6           0        2.496910   -0.212568   -4.182135
     58          1           0        2.589669   -1.302953   -4.172159
     59          6           0        3.758615    0.401946   -4.788769
     60          6           0        1.265544    0.196824   -5.028229
     61          1           0        1.459427   -0.105944   -6.063555
     62          1           0        1.193254    1.292940   -5.020873
     63          8           0        4.384963    1.296994   -4.264090
     64          6           0       -0.057321   -0.408922   -4.541626
     65          1           0        0.000708   -1.502660   -4.538694
     66          1           0       -0.250943   -0.111789   -3.507275
     67          6           0       -1.233308    0.050371   -5.417401
     68          1           0       -1.250363    1.140473   -5.525662
     69          1           0       -1.149510   -0.348993   -6.431750
     70          7           0       -2.539466   -0.386819   -4.898584
     71          1           0       -2.851416   -1.310055   -5.170162
     72          7           0       -2.866358    1.434880   -3.474312
     73          1           0       -3.261944    1.791151   -2.603375
     74          1           0       -1.934216    1.795571   -3.641462
     75          7           0       -4.348666   -0.338418   -3.442120
     76          1           0       -4.759481   -1.154812   -3.873366
     77          1           0       -4.941371    0.169991   -2.799033
     78          6           0       -3.238969    0.236353   -3.939716
     79          8           0        4.046900   -0.144704   -5.975763
     80          1           0        4.841778    0.299003   -6.331089
     81          1           0        3.483693    0.578646    2.331049
 ---------------------------------------------------------------------

 SCF Done:  E(RB3LYP) =  -2053.93306850     A.U. after    1 cycles

 Alpha  occ. eigenvalues --  -19.35045 -19.33391 -19.32209 -19.28083 -19.27543
 Alpha  occ. eigenvalues --  -19.19693 -19.06410 -19.05567 -14.55115 -14.54462
 Alpha  occ. eigenvalues --  -14.53960 -14.53340 -14.51644 -14.48785 -14.44863
 Alpha  occ. eigenvalues --  -14.34875 -10.50915 -10.46983 -10.46152 -10.44888
 Alpha  occ. eigenvalues --  -10.40199 -10.39972 -10.39238 -10.38644 -10.36554
 Alpha  occ. eigenvalues --  -10.36035 -10.34120 -10.34029 -10.33345 -10.32279
 Alpha  occ. eigenvalues --  -10.31648 -10.31641 -10.31020 -10.30603 -10.30515
 Alpha  occ. eigenvalues --  -10.30386 -10.29846 -10.29543 -10.26589 -10.24335
 Alpha  occ. eigenvalues --  -10.20813 -10.17805  -1.25547  -1.24536  -1.19777
 Alpha  occ. eigenvalues --   -1.19272  -1.18701  -1.15823  -1.11803  -1.11003
 Alpha  occ. eigenvalues --   -1.08920  -1.08813  -1.08241  -1.07022  -1.02470
 Alpha  occ. eigenvalues --   -0.99061  -0.96139  -0.95696  -0.94511  -0.92867
 Alpha  occ. eigenvalues --   -0.91718  -0.90701  -0.90085  -0.88779  -0.85989
 Alpha  occ. eigenvalues --   -0.85326  -0.84653  -0.83259  -0.80823  -0.80566
 Alpha  occ. eigenvalues --   -0.79028  -0.78326  -0.76849  -0.76688  -0.76145
 Alpha  occ. eigenvalues --   -0.75347  -0.73850  -0.73635  -0.73442  -0.72861
 Alpha  occ. eigenvalues --   -0.71933  -0.70515  -0.68578  -0.68355  -0.67640
 Alpha  occ. eigenvalues --   -0.67015  -0.66325  -0.65954  -0.65208  -0.64326
 Alpha  occ. eigenvalues --   -0.64320  -0.63687  -0.63051  -0.62778  -0.61762
 Alpha  occ. eigenvalues --   -0.61404  -0.60857  -0.60373  -0.60163  -0.59789
 Alpha  occ. eigenvalues --   -0.59199  -0.58592  -0.58128  -0.57362  -0.56909
 Alpha  occ. eigenvalues --   -0.56434  -0.56209  -0.55362  -0.55321  -0.55035
 Alpha  occ. eigenvalues --   -0.54656  -0.54275  -0.54065  -0.53543  -0.53062
 Alpha  occ. eigenvalues --   -0.52679  -0.52327  -0.52073  -0.51491  -0.50975
 Alpha  occ. eigenvalues --   -0.50692  -0.50363  -0.50057  -0.49583  -0.49027
 Alpha  occ. eigenvalues --   -0.48774  -0.48479  -0.48320  -0.47045  -0.46222
 Alpha  occ. eigenvalues --   -0.45562  -0.45431  -0.45114  -0.45003  -0.44761
 Alpha  occ. eigenvalues --   -0.44042  -0.43874  -0.43686  -0.43030  -0.42207
 Alpha  occ. eigenvalues --   -0.41990  -0.41245  -0.40846  -0.39280  -0.39248
 Alpha  occ. eigenvalues --   -0.37938  -0.36920  -0.35403  -0.34923  -0.33988
 Alpha  occ. eigenvalues --   -0.32791  -0.32529  -0.31830  -0.29365  -0.21522
 Alpha  occ. eigenvalues --   -0.20727  -0.19119
 Alpha virt. eigenvalues --   -0.17924  -0.14672  -0.13781  -0.13351  -0.12736
 Alpha virt. eigenvalues --   -0.10749  -0.09525  -0.07957  -0.07472  -0.06860
 Alpha virt. eigenvalues --   -0.06674  -0.06416  -0.05662  -0.04714  -0.04569

 Mulliken charges:
               1
     1  N   -0.784775
     2  H    0.289969
     3  H    0.381460
     4  C   -0.063953
     5  H    0.134893
     6  C    0.619247
     7  C   -0.252728
     8  H    0.143805
     9  H    0.125769
    10  O   -0.525758
    11  C   -0.369969
    12  H    0.128684
    13  H    0.152174
    14  C    0.573119
    15  O   -0.536108
    16  O   -0.613503
    17  N   -0.595852
    18  H    0.349926
    19  C   -0.055127
    20  H    0.216279
    21  C    0.631685
    22  C   -0.377173
    23  H    0.200690
    24  H    0.119330
    25  O   -0.560228
    26  C   -0.084789
    27  C   -0.001482
    28  H    0.286971
    29  C    0.087153
    30  C    0.318366
    31  C   -0.289987
    32  H    0.118183
    33  N   -0.680472
    34  H    0.362311
    35  C   -0.153280
    36  H    0.157725
    37  C   -0.150252
    38  H    0.165788
    39  C   -0.164576
    40  H    0.127595
    41  N   -0.589663
    42  H    0.390086
    43  C   -0.105516
    44  H    0.204784
    45  C    0.602424
    46  C    0.148875
    47  H    0.178087
    48  O   -0.526758
    49  C   -0.478134
    50  H    0.178142
    51  H    0.187617
    52  H    0.177981
    53  O   -0.660067
    54  H    0.479587
    55  N   -0.604025
    56  H    0.372913
    57  C   -0.051043
    58  H    0.216907
    59  C    0.593871
    60  C   -0.284599
    61  H    0.190535
    62  H    0.162939
    63  O   -0.453780
    64  C   -0.273688
    65  H    0.181072
    66  H    0.158177
    67  C   -0.186247
    68  H    0.190940
    69  H    0.204480
    70  N   -0.596554
    71  H    0.367896
    72  N   -0.756397
    73  H    0.387172
    74  H    0.388634
    75  N   -0.758549
    76  H    0.385198
    77  H    0.396983
    78  C    0.818256
    79  O   -0.551795
    80  H    0.440654
    81  H    0.441494
 Sum of Mulliken charges =   1.00000

 Dipole moment (field-independent basis, Debye):
    X=             14.4839    Y=             -4.8546    Z=            -31.1415  Tot=             34.6863
 Quadrupole moment (field-independent basis, Debye-Ang):
   XX=           -272.3393   YY=           -254.3565   ZZ=           -205.6633
   XY=             61.5241   XZ=            122.2584   YZ=            -49.7691

 Normal termination of Gaussian 16 at Sun May 15 14:55:02 2022.
