 Gaussian 16, Revision C.01,
 Gaussian 16:  ES64L-G16RevC.01  3-Jul-2019

 -------------------------------------------------------------------
 # B3LYP/6-31G* guess=read geom=check nosymm integral(ultrafinegrid)
 -------------------------------------------------------------------

 ------------------------------------------------------
 Candidate Structure: Conf:231 Charge calc in gas phase
 ------------------------------------------------------
 Structure from the checkpoint file:  "conf-231.chk"
 Charge =  1 Multiplicity = 1

                          Input orientation:
 ---------------------------------------------------------------------
 Center     Atomic      Atomic             Coordinates (Angstroms)
 Number     Number       Type             X           Y           Z
 ---------------------------------------------------------------------
      1          7           0       -4.713757   -1.029790    3.875365
      2          1           0       -4.819355   -1.215605    4.869945
      3          1           0       -5.633627   -0.772270    3.524237
      4          6           0       -3.752598    0.039604    3.665252
      5          1           0       -4.057998    1.018259    4.086885
      6          6           0       -3.480191    0.226448    2.164258
      7          6           0       -2.381520   -0.339538    4.264235
      8          1           0       -2.130136   -1.333261    3.874679
      9          1           0       -1.639110    0.374928    3.891341
     10          8           0       -3.287760   -0.711239    1.391388
     11          6           0       -2.287727   -0.332733    5.799935
     12          1           0       -2.959021   -1.055443    6.270131
     13          1           0       -2.528204    0.668725    6.179980
     14          6           0       -0.876418   -0.695834    6.237201
     15          8           0       -0.572604   -1.619002    6.952186
     16          8           0        0.032415    0.145285    5.672797
     17          7           0       -3.348771    1.524763    1.753673
     18          1           0       -3.449494    2.275844    2.424458
     19          6           0       -2.844764    1.859399    0.424533
     20          1           0       -3.035732    0.968525   -0.181683
     21          6           0       -1.307242    2.049790    0.455902
     22          6           0       -3.576363    3.064471   -0.178978
     23          1           0       -2.889962    3.562115   -0.874065
     24          1           0       -3.760588    3.813271    0.604835
     25          8           0       -0.762672    3.127539    0.224618
     26          6           0       -4.855006    2.696934   -0.885810
     27          6           0       -5.530631    1.498326   -0.855975
     28          1           0       -5.318163    0.595959   -0.298221
     29          6           0       -5.583478    3.544491   -1.799654
     30          6           0       -6.678453    2.786014   -2.306022
     31          6           0       -5.415331    4.871516   -2.246784
     32          1           0       -4.621761    5.493998   -1.839334
     33          7           0       -6.614642    1.542885   -1.713435
     34          1           0       -7.300945    0.809698   -1.814359
     35          6           0       -7.378708    4.611120   -3.677319
     36          1           0       -8.065133    5.045714   -4.397366
     37          6           0       -7.580505    3.306724   -3.243684
     38          1           0       -8.413037    2.715885   -3.615111
     39          6           0       -6.308765    5.389783   -3.182050
     40          1           0       -6.207284    6.420498   -3.511041
     41          7           0       -0.621769    0.908720    0.745327
     42          1           0       -1.141257    0.035014    0.754620
     43          6           0        0.841131    0.887373    0.751757
     44          1           0        1.179258    1.758501    1.320981
     45          6           0        1.356061    0.940530   -0.696382
     46          6           0        1.364506   -0.385707    1.463856
     47          1           0        0.960151   -1.255392    0.922173
     48          8           0        1.065426    0.060167   -1.504572
     49          6           0        2.887090   -0.460533    1.461121
     50          1           0        3.284905   -0.535359    0.445289
     51          1           0        3.199700   -1.346716    2.019528
     52          1           0        3.317360    0.419675    1.951507
     53          8           0        0.964756   -0.408187    2.824700
     54          1           0        0.920204   -0.198060    5.877508
     55          7           0        2.150460    1.997328   -1.014792
     56          1           0        2.273313    2.747601   -0.349954
     57          6           0        2.738102    2.121614   -2.341526
     58          1           0        3.190606    1.151210   -2.588660
     59          6           0        3.879104    3.137903   -2.361992
     60          6           0        1.710923    2.428098   -3.453300
     61          1           0        1.045464    1.558521   -3.481236
     62          1           0        2.254101    2.473721   -4.403031
     63          8           0        4.273967    3.677009   -3.369769
     64          6           0        0.930519    3.727994   -3.226988
     65          1           0        0.437382    3.716138   -2.247221
     66          1           0        1.626502    4.575689   -3.237771
     67          6           0       -0.119636    4.011333   -4.308006
     68          1           0       -0.585248    4.978677   -4.104722
     69          1           0        0.336909    4.057806   -5.303406
     70          7           0       -1.180412    2.986636   -4.314252
     71          1           0       -0.871830    2.022613   -4.282187
     72          7           0       -3.027339    4.401670   -4.499005
     73          1           0       -3.962610    4.632612   -4.169082
     74          1           0       -2.470456    5.147707   -4.887081
     75          7           0       -3.322817    2.170799   -3.977275
     76          1           0       -2.973210    1.375044   -3.460407
     77          1           0       -4.313113    2.355638   -3.863133
     78          6           0       -2.496372    3.198629   -4.252389
     79          8           0        4.414632    3.354569   -1.141663
     80          1           0        5.149838    3.986401   -1.264085
     81          1           0        0.000233   -0.488102    2.878600
 ---------------------------------------------------------------------

 SCF Done:  E(RB3LYP) =  -2053.93528552     A.U. after    1 cycles

 Alpha  occ. eigenvalues --  -19.29578 -19.25628 -19.23608 -19.22226 -19.21857
 Alpha  occ. eigenvalues --  -19.21097 -19.20625 -19.20055 -14.52637 -14.52066
 Alpha  occ. eigenvalues --  -14.51919 -14.48417 -14.46375 -14.45778 -14.45701
 Alpha  occ. eigenvalues --  -14.39804 -10.48736 -10.41995 -10.38616 -10.38364
 Alpha  occ. eigenvalues --  -10.38087 -10.37813 -10.36439 -10.34143 -10.33563
 Alpha  occ. eigenvalues --  -10.32706 -10.32365 -10.32257 -10.32038 -10.31604
 Alpha  occ. eigenvalues --  -10.30209 -10.29835 -10.29664 -10.29543 -10.29410
 Alpha  occ. eigenvalues --  -10.29310 -10.29068 -10.29022 -10.28899 -10.27803
 Alpha  occ. eigenvalues --  -10.27601 -10.24966  -1.20429  -1.17157  -1.16362
 Alpha  occ. eigenvalues --   -1.13769  -1.12925  -1.12440  -1.11388  -1.09904
 Alpha  occ. eigenvalues --   -1.08388  -1.07643  -1.06549  -1.05094  -1.02711
 Alpha  occ. eigenvalues --   -1.02195  -1.01379  -0.97476  -0.94556  -0.91681
 Alpha  occ. eigenvalues --   -0.91007  -0.87898  -0.87266  -0.86336  -0.85241
 Alpha  occ. eigenvalues --   -0.84184  -0.82212  -0.81030  -0.79825  -0.79403
 Alpha  occ. eigenvalues --   -0.78752  -0.75575  -0.74487  -0.74068  -0.72760
 Alpha  occ. eigenvalues --   -0.71399  -0.70712  -0.70192  -0.69564  -0.68389
 Alpha  occ. eigenvalues --   -0.67739  -0.67239  -0.67037  -0.66757  -0.65972
 Alpha  occ. eigenvalues --   -0.65603  -0.65052  -0.64461  -0.63785  -0.62140
 Alpha  occ. eigenvalues --   -0.61574  -0.60066  -0.59716  -0.59433  -0.59185
 Alpha  occ. eigenvalues --   -0.58444  -0.57819  -0.57746  -0.57538  -0.57215
 Alpha  occ. eigenvalues --   -0.57040  -0.56405  -0.56162  -0.54838  -0.54396
 Alpha  occ. eigenvalues --   -0.54294  -0.53649  -0.53603  -0.53561  -0.53206
 Alpha  occ. eigenvalues --   -0.52874  -0.52346  -0.52090  -0.51806  -0.50813
 Alpha  occ. eigenvalues --   -0.50758  -0.50352  -0.49937  -0.49784  -0.49432
 Alpha  occ. eigenvalues --   -0.49135  -0.48760  -0.48484  -0.47941  -0.47117
 Alpha  occ. eigenvalues --   -0.46937  -0.46759  -0.46256  -0.45834  -0.45778
 Alpha  occ. eigenvalues --   -0.45439  -0.45263  -0.44615  -0.44196  -0.44109
 Alpha  occ. eigenvalues --   -0.44063  -0.43717  -0.43564  -0.43407  -0.43076
 Alpha  occ. eigenvalues --   -0.41516  -0.41066  -0.40654  -0.38034  -0.37877
 Alpha  occ. eigenvalues --   -0.37668  -0.37411  -0.36772  -0.35456  -0.35165
 Alpha  occ. eigenvalues --   -0.34831  -0.33793  -0.33264  -0.33155  -0.32932
 Alpha  occ. eigenvalues --   -0.32022  -0.30929
 Alpha virt. eigenvalues --   -0.12833  -0.11967  -0.09414  -0.09090  -0.08601
 Alpha virt. eigenvalues --   -0.07857  -0.07329  -0.06834  -0.05545  -0.04948
 Alpha virt. eigenvalues --   -0.04472  -0.03014  -0.02571  -0.02118  -0.01833

 Mulliken charges:
               1
     1  N   -0.704978
     2  H    0.317961
     3  H    0.307802
     4  C   -0.045965
     5  H    0.113392
     6  C    0.613122
     7  C   -0.306235
     8  H    0.190288
     9  H    0.163752
    10  O   -0.536243
    11  C   -0.346485
    12  H    0.182354
    13  H    0.173553
    14  C    0.566654
    15  O   -0.435106
    16  O   -0.564546
    17  N   -0.596163
    18  H    0.339205
    19  C   -0.081935
    20  H    0.180184
    21  C    0.621955
    22  C   -0.349859
    23  H    0.158663
    24  H    0.169022
    25  O   -0.532550
    26  C    0.060723
    27  C   -0.015622
    28  H    0.193004
    29  C    0.052742
    30  C    0.299840
    31  C   -0.273378
    32  H    0.146674
    33  N   -0.690891
    34  H    0.348058
    35  C   -0.150581
    36  H    0.157822
    37  C   -0.161865
    38  H    0.156108
    39  C   -0.157706
    40  H    0.149837
    41  N   -0.630616
    42  H    0.360800
    43  C   -0.040135
    44  H    0.168578
    45  C    0.632502
    46  C    0.103531
    47  H    0.149002
    48  O   -0.544470
    49  C   -0.465030
    50  H    0.163037
    51  H    0.181927
    52  H    0.157612
    53  O   -0.625772
    54  H    0.423180
    55  N   -0.609863
    56  H    0.357674
    57  C   -0.033662
    58  H    0.216760
    59  C    0.580886
    60  C   -0.291190
    61  H    0.158120
    62  H    0.180962
    63  O   -0.451600
    64  C   -0.301897
    65  H    0.188580
    66  H    0.180319
    67  C   -0.163068
    68  H    0.166459
    69  H    0.198503
    70  N   -0.596208
    71  H    0.373120
    72  N   -0.763320
    73  H    0.387525
    74  H    0.381750
    75  N   -0.749734
    76  H    0.376396
    77  H    0.392986
    78  C    0.801584
    79  O   -0.564705
    80  H    0.430208
    81  H    0.406667
 Sum of Mulliken charges =   1.00000

 Dipole moment (field-independent basis, Debye):
    X=            -13.7258    Y=             16.8069    Z=            -11.7313  Tot=             24.6676
 Quadrupole moment (field-independent basis, Debye-Ang):
   XX=           -131.3474   YY=           -190.1010   ZZ=           -178.9497
   XY=            -32.4195   XZ=             31.7279   YZ=            -39.5950

 Normal termination of Gaussian 16 at Thu May 26 18:16:37 2022.
