 Gaussian 16, Revision C.01,
 Gaussian 16:  ES64L-G16RevC.01  3-Jul-2019

 ----------------------------------------------------------------------
 # B3LYP/6-31G* empiricaldispersion=gd3 guess=read geom=check nosymm in
 tegral(ultrafinegrid)
 ----------------------------------------------------------------------

 ------------------------------------------------------
 Candidate Structure: Conf:231 Charge calc in gas phase
 ------------------------------------------------------
 Structure from the checkpoint file:  "conf-231.chk"
 Charge =  1 Multiplicity = 1

                          Input orientation:
 ---------------------------------------------------------------------
 Center     Atomic      Atomic             Coordinates (Angstroms)
 Number     Number       Type             X           Y           Z
 ---------------------------------------------------------------------
      1          7           0       -4.501138   -0.999946    3.837155
      2          1           0       -4.443755   -1.307853    4.803986
      3          1           0       -5.468956   -0.737963    3.666536
      4          6           0       -3.604624    0.117495    3.604309
      5          1           0       -3.939961    1.069595    4.057741
      6          6           0       -3.366710    0.326748    2.097639
      7          6           0       -2.176133   -0.203338    4.080556
      8          1           0       -1.928407   -1.149809    3.584208
      9          1           0       -1.484060    0.554292    3.703347
     10          8           0       -3.092742   -0.586120    1.323056
     11          6           0       -1.910900   -0.390496    5.587575
     12          1           0       -2.555653   -1.150589    6.034602
     13          1           0       -2.030251    0.550063    6.137722
     14          6           0       -0.479145   -0.894162    5.674260
     15          8           0       -0.139708   -1.977372    6.078329
     16          8           0        0.372923    0.014944    5.113297
     17          7           0       -3.338884    1.643456    1.705976
     18          1           0       -3.351052    2.357283    2.425937
     19          6           0       -2.654289    2.041542    0.474275
     20          1           0       -2.840299    1.228305   -0.234635
     21          6           0       -1.123115    2.111508    0.680503
     22          6           0       -3.236185    3.339222   -0.095093
     23          1           0       -2.475490    3.823271   -0.715907
     24          1           0       -3.422920    4.046429    0.724086
     25          8           0       -0.512593    3.180458    0.729476
     26          6           0       -4.476514    3.107668   -0.911810
     27          6           0       -5.359477    2.056638   -0.837410
     28          1           0       -5.393702    1.236603   -0.133558
     29          6           0       -4.908297    3.924486   -2.018299
     30          6           0       -6.049792    3.297442   -2.590225
     31          6           0       -4.424775    5.117181   -2.585337
     32          1           0       -3.576312    5.632472   -2.142300
     33          7           0       -6.290555    2.144473   -1.865464
     34          1           0       -7.156827    1.625185   -1.888898
     35          6           0       -6.179889    4.988222   -4.274125
     36          1           0       -6.667504    5.424480   -5.140732
     37          6           0       -6.689814    3.810052   -3.726349
     38          1           0       -7.567295    3.328678   -4.149433
     39          6           0       -5.062178    5.638398   -3.705610
     40          1           0       -4.710071    6.567447   -4.143874
     41          7           0       -0.530919    0.893602    0.785181
     42          1           0       -1.125035    0.077620    0.668640
     43          6           0        0.918839    0.696676    0.889300
     44          1           0        1.294554    1.400827    1.638498
     45          6           0        1.529591    0.985320   -0.497376
     46          6           0        1.252970   -0.744917    1.339302
     47          1           0        0.955225   -1.424797    0.529427
     48          8           0        1.676182    0.103266   -1.340756
     49          6           0        2.744206   -0.898167    1.602004
     50          1           0        3.321221   -0.718808    0.691355
     51          1           0        2.947452   -1.914214    1.949413
     52          1           0        3.070625   -0.194762    2.376749
     53          8           0        0.576958   -1.083460    2.549404
     54          1           0        1.030561   -0.487478    4.584788
     55          7           0        1.848922    2.285787   -0.727744
     56          1           0        1.546125    2.983655   -0.058150
     57          6           0        2.320534    2.696889   -2.041842
     58          1           0        3.060882    1.948980   -2.354238
     59          6           0        3.053487    4.033223   -1.983792
     60          6           0        1.200764    2.719326   -3.098646
     61          1           0        0.812768    1.694949   -3.142912
     62          1           0        1.646921    2.941383   -4.073628
     63          8           0        3.078932    4.826273   -2.898391
     64          6           0        0.103017    3.750014   -2.800183
     65          1           0       -0.265425    3.649753   -1.771471
     66          1           0        0.534587    4.751962   -2.887330
     67          6           0       -1.074746    3.667794   -3.769796
     68          1           0       -1.762398    4.505561   -3.609137
     69          1           0       -0.711723    3.706798   -4.805266
     70          7           0       -1.840122    2.425589   -3.550159
     71          1           0       -1.376104    1.666231   -3.065506
     72          7           0       -3.598658    2.955728   -4.986772
     73          1           0       -4.602487    3.120956   -4.971732
     74          1           0       -3.058810    3.731130   -5.344572
     75          7           0       -3.741576    1.107297   -3.583775
     76          1           0       -3.641596    0.868157   -2.604540
     77          1           0       -4.675866    0.965316   -3.944093
     78          6           0       -3.061495    2.187967   -4.027073
     79          8           0        3.691645    4.219844   -0.811700
     80          1           0        4.159203    5.075178   -0.875475
     81          1           0       -0.360665   -1.214154    2.356505
 ---------------------------------------------------------------------

 SCF Done:  E(RB3LYP) =  -2054.04078741     A.U. after    3 cycles

 Alpha  occ. eigenvalues --  -19.29113 -19.23997 -19.23873 -19.23459 -19.23244
 Alpha  occ. eigenvalues --  -19.22721 -19.21077 -19.19797 -14.52925 -14.52018
 Alpha  occ. eigenvalues --  -14.51852 -14.50087 -14.47608 -14.47221 -14.45513
 Alpha  occ. eigenvalues --  -14.40357 -10.48568 -10.41725 -10.40067 -10.39393
 Alpha  occ. eigenvalues --  -10.38201 -10.37840 -10.36560 -10.35123 -10.34336
 Alpha  occ. eigenvalues --  -10.33843 -10.33820 -10.33070 -10.32889 -10.32234
 Alpha  occ. eigenvalues --  -10.31355 -10.31072 -10.30778 -10.30728 -10.30639
 Alpha  occ. eigenvalues --  -10.30584 -10.30479 -10.30168 -10.29506 -10.28031
 Alpha  occ. eigenvalues --  -10.27408 -10.25293  -1.20096  -1.17289  -1.15221
 Alpha  occ. eigenvalues --   -1.15123  -1.14336  -1.13033  -1.11406  -1.11126
 Alpha  occ. eigenvalues --   -1.09929  -1.06969  -1.06692  -1.05295  -1.04133
 Alpha  occ. eigenvalues --   -1.03013  -1.02219  -0.98101  -0.96082  -0.92640
 Alpha  occ. eigenvalues --   -0.91957  -0.88771  -0.87664  -0.86972  -0.86044
 Alpha  occ. eigenvalues --   -0.85584  -0.83633  -0.81194  -0.80581  -0.79823
 Alpha  occ. eigenvalues --   -0.78799  -0.76436  -0.74569  -0.74194  -0.73586
 Alpha  occ. eigenvalues --   -0.71907  -0.71322  -0.70947  -0.70379  -0.69179
 Alpha  occ. eigenvalues --   -0.68319  -0.67880  -0.67312  -0.66927  -0.66169
 Alpha  occ. eigenvalues --   -0.65920  -0.65842  -0.64938  -0.64337  -0.62855
 Alpha  occ. eigenvalues --   -0.61925  -0.61210  -0.60581  -0.60124  -0.59833
 Alpha  occ. eigenvalues --   -0.59230  -0.59083  -0.58407  -0.58061  -0.57840
 Alpha  occ. eigenvalues --   -0.57558  -0.56978  -0.56223  -0.56089  -0.55844
 Alpha  occ. eigenvalues --   -0.55055  -0.54724  -0.53977  -0.53607  -0.53486
 Alpha  occ. eigenvalues --   -0.53184  -0.52817  -0.52564  -0.52336  -0.51986
 Alpha  occ. eigenvalues --   -0.51287  -0.50881  -0.50740  -0.50436  -0.50275
 Alpha  occ. eigenvalues --   -0.49779  -0.49371  -0.48957  -0.48719  -0.48224
 Alpha  occ. eigenvalues --   -0.47990  -0.47805  -0.46924  -0.46825  -0.46272
 Alpha  occ. eigenvalues --   -0.46107  -0.45536  -0.45268  -0.44900  -0.44630
 Alpha  occ. eigenvalues --   -0.44379  -0.44063  -0.43995  -0.43270  -0.42421
 Alpha  occ. eigenvalues --   -0.41721  -0.41575  -0.41120  -0.39756  -0.39344
 Alpha  occ. eigenvalues --   -0.38204  -0.37553  -0.37260  -0.36442  -0.36175
 Alpha  occ. eigenvalues --   -0.35593  -0.34942  -0.34703  -0.33558  -0.32830
 Alpha  occ. eigenvalues --   -0.32664  -0.32588
 Alpha virt. eigenvalues --   -0.14241  -0.13463  -0.11009  -0.10109  -0.08981
 Alpha virt. eigenvalues --   -0.08750  -0.08417  -0.07437  -0.06422  -0.05287
 Alpha virt. eigenvalues --   -0.05125  -0.04617  -0.03452  -0.03140  -0.02281

 Mulliken charges:
               1
     1  N   -0.707402
     2  H    0.322205
     3  H    0.308846
     4  C   -0.056696
     5  H    0.121181
     6  C    0.614988
     7  C   -0.317095
     8  H    0.179414
     9  H    0.175843
    10  O   -0.535980
    11  C   -0.339102
    12  H    0.174770
    13  H    0.174585
    14  C    0.561198
    15  O   -0.422047
    16  O   -0.587888
    17  N   -0.589238
    18  H    0.343707
    19  C   -0.082598
    20  H    0.151898
    21  C    0.620746
    22  C   -0.350630
    23  H    0.172111
    24  H    0.181504
    25  O   -0.534444
    26  C    0.064891
    27  C   -0.032217
    28  H    0.190788
    29  C    0.064997
    30  C    0.298291
    31  C   -0.219483
    32  H    0.153111
    33  N   -0.691599
    34  H    0.351581
    35  C   -0.170983
    36  H    0.164980
    37  C   -0.212291
    38  H    0.159902
    39  C   -0.156256
    40  H    0.157089
    41  N   -0.635969
    42  H    0.361907
    43  C   -0.042003
    44  H    0.182474
    45  C    0.618328
    46  C    0.097174
    47  H    0.161174
    48  O   -0.532591
    49  C   -0.471269
    50  H    0.178802
    51  H    0.184635
    52  H    0.156171
    53  O   -0.638739
    54  H    0.431266
    55  N   -0.605884
    56  H    0.368946
    57  C   -0.040146
    58  H    0.221243
    59  C    0.578359
    60  C   -0.283446
    61  H    0.159303
    62  H    0.179582
    63  O   -0.457080
    64  C   -0.346155
    65  H    0.182604
    66  H    0.198399
    67  C   -0.157969
    68  H    0.180321
    69  H    0.187842
    70  N   -0.601993
    71  H    0.372318
    72  N   -0.733370
    73  H    0.380292
    74  H    0.380544
    75  N   -0.730888
    76  H    0.377785
    77  H    0.371320
    78  C    0.777300
    79  O   -0.553203
    80  H    0.428228
    81  H    0.411709
 Sum of Mulliken charges =   1.00000

 Dipole moment (field-independent basis, Debye):
    X=            -17.9848    Y=             15.1742    Z=            -11.7666  Tot=             26.3090
 Quadrupole moment (field-independent basis, Debye-Ang):
   XX=           -125.9596   YY=           -206.8726   ZZ=           -183.6079
   XY=            -35.1844   XZ=             38.9066   YZ=            -30.1714

 Normal termination of Gaussian 16 at Sun May 15 14:55:52 2022.
