 Gaussian 16, Revision C.01,
 Gaussian 16:  ES64L-G16RevC.01  3-Jul-2019

 -------------------------------------------------------------------
 # B3LYP/6-31G* guess=read geom=check nosymm integral(ultrafinegrid)
 -------------------------------------------------------------------

 ------------------------------------------------------
 Candidate Structure: Conf:879 Charge calc in gas phase
 ------------------------------------------------------
 Structure from the checkpoint file:  "conf-879.chk"
 Charge =  1 Multiplicity = 1

                          Input orientation:
 ---------------------------------------------------------------------
 Center     Atomic      Atomic             Coordinates (Angstroms)
 Number     Number       Type             X           Y           Z
 ---------------------------------------------------------------------
      1          7           0       -5.717691    2.270735    3.413116
      2          1           0       -6.086778    2.498950    2.502303
      3          1           0       -6.160102    1.398368    3.682070
      4          6           0       -4.281716    2.072271    3.333269
      5          1           0       -3.797358    3.053873    3.230910
      6          6           0       -3.866990    1.215543    2.127785
      7          6           0       -3.762701    1.429035    4.624993
      8          1           0       -4.235339    0.447610    4.736203
      9          1           0       -2.682516    1.271259    4.551259
     10          8           0       -4.649809    0.479950    1.542696
     11          6           0       -4.083254    2.252840    5.862626
     12          1           0       -3.822114    3.302706    5.745040
     13          1           0       -3.552635    1.857371    6.731889
     14          6           0       -5.588264    2.139999    6.206175
     15          8           0       -6.137569    3.194655    6.579384
     16          8           0       -6.077918    0.993861    6.137395
     17          7           0       -2.560567    1.309923    1.777432
     18          1           0       -1.918643    1.934647    2.237787
     19          6           0       -2.018014    0.583570    0.656781
     20          1           0       -2.291541   -0.470899    0.748655
     21          6           0       -0.499009    0.714565    0.755961
     22          6           0       -2.572913    1.061164   -0.701498
     23          1           0       -3.625347    0.777233   -0.714265
     24          1           0       -2.064635    0.498008   -1.490143
     25          8           0        0.040064    1.514907    1.507659
     26          6           0       -2.478154    2.544420   -0.953968
     27          6           0       -3.453308    3.450398   -0.625196
     28          1           0       -4.402175    3.279046   -0.147904
     29          6           0       -1.420322    3.307996   -1.568808
     30          6           0       -1.804292    4.657071   -1.552714
     31          6           0       -0.176692    2.963557   -2.119676
     32          1           0        0.134888    1.930099   -2.163249
     33          7           0       -3.046552    4.719263   -0.968698
     34          1           0       -3.577603    5.555687   -0.818839
     35          6           0        0.226743    5.313694   -2.592499
     36          1           0        0.884973    6.076250   -2.992541
     37          6           0       -0.996101    5.682379   -2.057269
     38          1           0       -1.319184    6.716908   -2.028083
     39          6           0        0.631069    3.966505   -2.622192
     40          1           0        1.585907    3.717486   -3.058343
     41          7           0        0.202878   -0.113412   -0.053052
     42          1           0       -0.271331   -0.797463   -0.617388
     43          6           0        1.649441    0.003148   -0.193761
     44          1           0        1.890702    1.051712   -0.020582
     45          6           0        1.987022   -0.432434   -1.616809
     46          6           0        2.422220   -0.836507    0.840122
     47          1           0        2.072997   -1.866643    0.758450
     48          8           0        2.017184   -1.620013   -1.935942
     49          6           0        3.921070   -0.764772    0.623027
     50          1           0        4.177575   -1.195417   -0.345163
     51          1           0        4.443401   -1.318714    1.403821
     52          1           0        4.263138    0.273119    0.640522
     53          8           0        2.126268   -0.398930    2.229470
     54          1           0        2.178633    0.582798    2.302937
     55          7           0        2.201660    0.570619   -2.504934
     56          1           0        2.096355    1.539939   -2.235929
     57          6           0        2.514172    0.300670   -3.890129
     58          1           0        2.855752   -0.735726   -3.950258
     59          6           0        3.622448    1.227772   -4.332269
     60          6           0        1.317101    0.469568   -4.834938
     61          1           0        1.675064    0.239586   -5.839720
     62          1           0        0.995928    1.516145   -4.844440
     63          8           0        3.891321    2.285193   -3.820568
     64          6           0        0.141689   -0.442178   -4.497833
     65          1           0        0.509350   -1.432820   -4.237925
     66          1           0       -0.398693   -0.066424   -3.623300
     67          6           0       -0.830281   -0.525081   -5.665874
     68          1           0       -1.094515    0.480428   -6.010098
     69          1           0       -0.339658   -1.023035   -6.505138
     70          7           0       -2.059323   -1.295434   -5.399399
     71          1           0       -1.949302   -2.299753   -5.365266
     72          7           0       -3.080375    0.441801   -4.198127
     73          1           0       -3.968090    0.894789   -4.045204
     74          1           0       -2.338461    1.048047   -4.505625
     75          7           0       -4.116790   -1.651572   -4.405335
     76          1           0       -4.268354   -2.429599   -5.034800
     77          1           0       -4.953410   -1.241986   -4.017290
     78          6           0       -3.087008   -0.820252   -4.689317
     79          8           0        4.266553    0.751508   -5.416416
     80          1           0        4.927631    1.416819   -5.645563
     81          1           0        1.218121   -0.625713    2.517310
 ---------------------------------------------------------------------

 SCF Done:  E(RB3LYP) =  -2053.71322246     A.U. after    3 cycles

 Alpha  occ. eigenvalues --  -19.47462 -19.32336 -19.27384 -19.27363 -19.27332
 Alpha  occ. eigenvalues --  -19.17376 -19.04727 -19.03820 -14.54831 -14.54422
 Alpha  occ. eigenvalues --  -14.53988 -14.52397 -14.51691 -14.47433 -14.42954
 Alpha  occ. eigenvalues --  -14.32166 -10.49419 -10.45274 -10.45101 -10.44852
 Alpha  occ. eigenvalues --  -10.43676 -10.41053 -10.39333 -10.38071 -10.34511
 Alpha  occ. eigenvalues --  -10.34459 -10.34128 -10.33917 -10.33501 -10.31490
 Alpha  occ. eigenvalues --  -10.31372 -10.30284 -10.29158 -10.28635 -10.28412
 Alpha  occ. eigenvalues --  -10.28350 -10.28055 -10.28038 -10.24712 -10.21852
 Alpha  occ. eigenvalues --  -10.19623 -10.15681  -1.34404  -1.23982  -1.20074
 Alpha  occ. eigenvalues --   -1.19302  -1.19133  -1.15050  -1.09777  -1.09329
 Alpha  occ. eigenvalues --   -1.08786  -1.08232  -1.07880  -1.07502  -1.00671
 Alpha  occ. eigenvalues --   -0.98323  -0.97581  -0.96148  -0.94226  -0.91835
 Alpha  occ. eigenvalues --   -0.91044  -0.90308  -0.88736  -0.88699  -0.85637
 Alpha  occ. eigenvalues --   -0.84627  -0.83970  -0.83750  -0.82010  -0.81821
 Alpha  occ. eigenvalues --   -0.80490  -0.78462  -0.77547  -0.76659  -0.76510
 Alpha  occ. eigenvalues --   -0.76167  -0.75251  -0.73956  -0.72753  -0.72329
 Alpha  occ. eigenvalues --   -0.72178  -0.70179  -0.69316  -0.68526  -0.67908
 Alpha  occ. eigenvalues --   -0.67412  -0.66875  -0.66682  -0.65271  -0.64265
 Alpha  occ. eigenvalues --   -0.64139  -0.63680  -0.63558  -0.62621  -0.61582
 Alpha  occ. eigenvalues --   -0.61218  -0.60610  -0.60127  -0.59650  -0.59607
 Alpha  occ. eigenvalues --   -0.59271  -0.58985  -0.58022  -0.57301  -0.57207
 Alpha  occ. eigenvalues --   -0.56821  -0.56153  -0.55552  -0.55307  -0.54615
 Alpha  occ. eigenvalues --   -0.54394  -0.54145  -0.53845  -0.53311  -0.53005
 Alpha  occ. eigenvalues --   -0.52536  -0.52109  -0.51899  -0.51692  -0.51272
 Alpha  occ. eigenvalues --   -0.51047  -0.50719  -0.50285  -0.49274  -0.48686
 Alpha  occ. eigenvalues --   -0.48061  -0.46612  -0.46293  -0.45936  -0.45491
 Alpha  occ. eigenvalues --   -0.44805  -0.44771  -0.44061  -0.43922  -0.43687
 Alpha  occ. eigenvalues --   -0.43489  -0.42951  -0.41433  -0.41045  -0.40873
 Alpha  occ. eigenvalues --   -0.40714  -0.40320  -0.39777  -0.37946  -0.37487
 Alpha  occ. eigenvalues --   -0.36382  -0.35210  -0.33114  -0.32910  -0.32259
 Alpha  occ. eigenvalues --   -0.31365  -0.30480  -0.30203  -0.24925  -0.19617
 Alpha  occ. eigenvalues --   -0.18199  -0.17156
 Alpha virt. eigenvalues --   -0.16212  -0.15929  -0.14947  -0.12394  -0.11856
 Alpha virt. eigenvalues --   -0.11654  -0.10855  -0.09138  -0.08534  -0.07536
 Alpha virt. eigenvalues --   -0.07387  -0.07133  -0.06356  -0.05243  -0.04517

 Mulliken charges:
               1
     1  N   -0.668701
     2  H    0.275936
     3  H    0.333025
     4  C   -0.064456
     5  H    0.120212
     6  C    0.580349
     7  C   -0.266997
     8  H    0.168600
     9  H    0.071103
    10  O   -0.540593
    11  C   -0.332527
    12  H    0.118921
    13  H    0.128213
    14  C    0.607477
    15  O   -0.530270
    16  O   -0.583152
    17  N   -0.622218
    18  H    0.355996
    19  C   -0.007230
    20  H    0.173289
    21  C    0.607455
    22  C   -0.381917
    23  H    0.197098
    24  H    0.109325
    25  O   -0.543118
    26  C    0.051433
    27  C    0.009146
    28  H    0.189666
    29  C    0.065335
    30  C    0.318836
    31  C   -0.244934
    32  H    0.086367
    33  N   -0.683932
    34  H    0.348703
    35  C   -0.156000
    36  H    0.149990
    37  C   -0.150289
    38  H    0.154705
    39  C   -0.173779
    40  H    0.134104
    41  N   -0.635874
    42  H    0.359225
    43  C   -0.051317
    44  H    0.198552
    45  C    0.598827
    46  C    0.031119
    47  H    0.234524
    48  O   -0.526348
    49  C   -0.482378
    50  H    0.226998
    51  H    0.214017
    52  H    0.183433
    53  O   -0.540833
    54  H    0.471141
    55  N   -0.600686
    56  H    0.378669
    57  C   -0.062234
    58  H    0.220507
    59  C    0.589324
    60  C   -0.291671
    61  H    0.187486
    62  H    0.173865
    63  O   -0.444626
    64  C   -0.292294
    65  H    0.185415
    66  H    0.156387
    67  C   -0.195400
    68  H    0.185080
    69  H    0.205595
    70  N   -0.572375
    71  H    0.366129
    72  N   -0.725137
    73  H    0.379933
    74  H    0.382509
    75  N   -0.732543
    76  H    0.379001
    77  H    0.380057
    78  C    0.718025
    79  O   -0.555808
    80  H    0.435241
    81  H    0.463294
 Sum of Mulliken charges =   1.00000

 Dipole moment (field-independent basis, Debye):
    X=             15.6084    Y=             -5.6888    Z=            -36.9629  Tot=             40.5245
 Quadrupole moment (field-independent basis, Debye-Ang):
   XX=           -283.3058   YY=           -222.0403   ZZ=           -239.9292
   XY=             34.9514   XZ=            178.8718   YZ=            -37.9662

 Normal termination of Gaussian 16 at Thu May 26 18:17:06 2022.
