 Gaussian 16, Revision C.01,
 Gaussian 16:  ES64L-G16RevC.01  3-Jul-2019

 ----------------------------------------------------------------------
 # B3LYP/6-31G* empiricaldispersion=gd3 guess=read geom=check nosymm in
 tegral(ultrafinegrid)
 ----------------------------------------------------------------------

 ------------------------------------------------------
 Candidate Structure: Conf:121 Charge calc in gas phase
 ------------------------------------------------------
 Structure from the checkpoint file:  "conf-121.chk"
 Charge =  1 Multiplicity = 1

                          Input orientation:
 ---------------------------------------------------------------------
 Center     Atomic      Atomic             Coordinates (Angstroms)
 Number     Number       Type             X           Y           Z
 ---------------------------------------------------------------------
      1          7           0       -5.797550    1.033876    3.696536
      2          1           0       -6.510847    1.452707    3.110619
      3          1           0       -5.869528    0.037196    3.515088
      4          6           0       -4.485621    1.489402    3.265462
      5          1           0       -4.531835    2.577467    3.143674
      6          6           0       -4.038294    0.869413    1.939215
      7          6           0       -3.418449    1.195137    4.334729
      8          1           0       -2.476263    1.676760    4.046681
      9          1           0       -3.743622    1.652153    5.272528
     10          8           0       -4.535997   -0.148336    1.483913
     11          6           0       -3.153981   -0.287064    4.536792
     12          1           0       -2.878133   -0.764393    3.591467
     13          1           0       -4.029192   -0.809386    4.922943
     14          6           0       -1.958032   -0.533279    5.506026
     15          8           0       -2.047939   -1.558738    6.195905
     16          8           0       -1.016958    0.285158    5.428368
     17          7           0       -3.009235    1.525545    1.330454
     18          1           0       -2.509112    2.235670    1.845389
     19          6           0       -2.166684    0.827857    0.379068
     20          1           0       -2.400823   -0.236879    0.439661
     21          6           0       -0.724132    1.082972    0.799430
     22          6           0       -2.427788    1.284961   -1.062695
     23          1           0       -3.487761    1.106069   -1.261877
     24          1           0       -1.845343    0.654202   -1.742502
     25          8           0       -0.405259    2.060675    1.453712
     26          6           0       -2.095069    2.733486   -1.279723
     27          6           0       -2.888144    3.795184   -0.940223
     28          1           0       -3.869439    3.805734   -0.488489
     29          6           0       -0.889920    3.291106   -1.840729
     30          6           0       -1.022223    4.690943   -1.815859
     31          6           0        0.278695    2.719678   -2.362001
     32          1           0        0.403334    1.641028   -2.388021
     33          7           0       -2.251661    4.974620   -1.263389
     34          1           0       -2.619881    5.891636   -1.101875
     35          6           0        1.117117    4.963761   -2.803317
     36          1           0        1.912171    5.592135   -3.186146
     37          6           0       -0.027359    5.550050   -2.289905
     38          1           0       -0.152307    6.626629   -2.257108
     39          6           0        1.265343    3.566967   -2.840203
     40          1           0        2.170225    3.137679   -3.247887
     41          7           0        0.167861    0.158967    0.362647
     42          1           0       -0.145976   -0.587023   -0.233039
     43          6           0        1.601669    0.257623    0.601838
     44          1           0        1.845682    1.315602    0.658843
     45          6           0        2.278662   -0.422616   -0.577798
     46          6           0        2.051963   -0.428361    1.903217
     47          1           0        3.138180   -0.340688    1.963782
     48          8           0        2.203924   -1.650300   -0.735919
     49          6           0        1.401577    0.118695    3.153988
     50          1           0        1.558785    1.195278    3.235989
     51          1           0        1.831757   -0.363314    4.032393
     52          1           0        0.331515   -0.074812    3.161357
     53          8           0        1.765369   -1.882338    1.821086
     54          1           0        0.798931   -1.979477    1.966816
     55          7           0        2.861262    0.377807   -1.482621
     56          1           0        3.093415    1.324362   -1.224395
     57          6           0        3.580353   -0.185578   -2.620152
     58          1           0        3.011474   -1.040922   -2.987811
     59          6           0        4.946103   -0.707065   -2.228768
     60          6           0        3.696164    0.871537   -3.721271
     61          1           0        4.252083    1.725890   -3.340380
     62          1           0        2.675470    1.211418   -3.933100
     63          8           0        5.473220   -1.678209   -2.712374
     64          6           0        4.329427    0.352491   -4.999970
     65          1           0        5.355286    0.029044   -4.820443
     66          1           0        3.785100   -0.536197   -5.336940
     67          6           0        4.313957    1.388612   -6.105205
     68          1           0        4.676393    0.956220   -7.045777
     69          1           0        3.289283    1.729030   -6.270978
     70          7           0        5.145025    2.547024   -5.703653
     71          1           0        5.998188    2.288672   -5.225996
     72          7           0        4.529613    3.782226   -7.595299
     73          1           0        4.446488    4.703169   -7.995610
     74          1           0        3.723207    3.188147   -7.694960
     75          7           0        6.276574    4.503990   -6.205399
     76          1           0        6.590792    4.537479   -5.244980
     77          1           0        6.238752    5.401457   -6.663827
     78          6           0        5.296603    3.616711   -6.501332
     79          8           0        5.555999    0.069112   -1.306794
     80          1           0        6.418238   -0.333548   -1.149080
     81          1           0        1.927900   -2.078822    0.840494
 ---------------------------------------------------------------------

 SCF Done:  E(RB3LYP) =  -2053.85537666     A.U. after    1 cycles

 Alpha  occ. eigenvalues --  -19.43038 -19.33581 -19.30487 -19.27715 -19.22851
 Alpha  occ. eigenvalues --  -19.15823 -19.04779 -19.04292 -14.55531 -14.55489
 Alpha  occ. eigenvalues --  -14.55013 -14.53309 -14.49730 -14.46006 -14.40703
 Alpha  occ. eigenvalues --  -14.32628 -10.50439 -10.46243 -10.45853 -10.41461
 Alpha  occ. eigenvalues --  -10.39959 -10.39663 -10.39333 -10.39129 -10.35069
 Alpha  occ. eigenvalues --  -10.34995 -10.31946 -10.31233 -10.30390 -10.29702
 Alpha  occ. eigenvalues --  -10.28363 -10.28160 -10.27915 -10.27907 -10.27754
 Alpha  occ. eigenvalues --  -10.27717 -10.27016 -10.26074 -10.23827 -10.22482
 Alpha  occ. eigenvalues --  -10.18096 -10.15672  -1.30649  -1.24917  -1.22017
 Alpha  occ. eigenvalues --   -1.20131  -1.15544  -1.15540  -1.10228  -1.09744
 Alpha  occ. eigenvalues --   -1.08611  -1.08043  -1.06529  -1.06309  -0.98455
 Alpha  occ. eigenvalues --   -0.98142  -0.97481  -0.94722  -0.93288  -0.91934
 Alpha  occ. eigenvalues --   -0.90573  -0.89414  -0.88836  -0.86929  -0.84613
 Alpha  occ. eigenvalues --   -0.83810  -0.82787  -0.81960  -0.80951  -0.80157
 Alpha  occ. eigenvalues --   -0.78889  -0.77437  -0.77214  -0.76351  -0.75746
 Alpha  occ. eigenvalues --   -0.74930  -0.74688  -0.73186  -0.72783  -0.71309
 Alpha  occ. eigenvalues --   -0.69870  -0.68611  -0.68519  -0.68247  -0.67796
 Alpha  occ. eigenvalues --   -0.67448  -0.65933  -0.65733  -0.65374  -0.64303
 Alpha  occ. eigenvalues --   -0.64134  -0.63675  -0.62867  -0.61978  -0.61487
 Alpha  occ. eigenvalues --   -0.61217  -0.60616  -0.59917  -0.58696  -0.58420
 Alpha  occ. eigenvalues --   -0.57897  -0.57099  -0.56783  -0.56426  -0.56190
 Alpha  occ. eigenvalues --   -0.55878  -0.54866  -0.54286  -0.53622  -0.53491
 Alpha  occ. eigenvalues --   -0.53293  -0.52842  -0.52591  -0.52129  -0.51917
 Alpha  occ. eigenvalues --   -0.51135  -0.50597  -0.50397  -0.50188  -0.50177
 Alpha  occ. eigenvalues --   -0.49598  -0.48686  -0.47922  -0.47587  -0.47517
 Alpha  occ. eigenvalues --   -0.46959  -0.46719  -0.45684  -0.45614  -0.45345
 Alpha  occ. eigenvalues --   -0.45110  -0.45013  -0.44193  -0.43795  -0.43773
 Alpha  occ. eigenvalues --   -0.42615  -0.42560  -0.42171  -0.41602  -0.40353
 Alpha  occ. eigenvalues --   -0.39186  -0.38655  -0.37069  -0.36607  -0.36213
 Alpha  occ. eigenvalues --   -0.35968  -0.35169  -0.32879  -0.31877  -0.31378
 Alpha  occ. eigenvalues --   -0.30827  -0.29390  -0.28651  -0.25519  -0.20414
 Alpha  occ. eigenvalues --   -0.18737  -0.17927
 Alpha virt. eigenvalues --   -0.17218  -0.15778  -0.13393  -0.11786  -0.11052
 Alpha virt. eigenvalues --   -0.09991  -0.08602  -0.08122  -0.07453  -0.07300
 Alpha virt. eigenvalues --   -0.06505  -0.06200  -0.05641  -0.04311  -0.04071

 Mulliken charges:
               1
     1  N   -0.690144
     2  H    0.288787
     3  H    0.317028
     4  C   -0.091551
     5  H    0.120101
     6  C    0.582262
     7  C   -0.237807
     8  H    0.127587
     9  H    0.161664
    10  O   -0.526589
    11  C   -0.358408
    12  H    0.088953
    13  H    0.147177
    14  C    0.545027
    15  O   -0.546799
    16  O   -0.614341
    17  N   -0.599170
    18  H    0.361607
    19  C   -0.062474
    20  H    0.173847
    21  C    0.657232
    22  C   -0.347940
    23  H    0.198865
    24  H    0.122861
    25  O   -0.501513
    26  C    0.060163
    27  C    0.022912
    28  H    0.181199
    29  C    0.086441
    30  C    0.325182
    31  C   -0.221341
    32  H    0.097357
    33  N   -0.689404
    34  H    0.341328
    35  C   -0.153511
    36  H    0.108390
    37  C   -0.151125
    38  H    0.143627
    39  C   -0.157019
    40  H    0.070296
    41  N   -0.650828
    42  H    0.348796
    43  C   -0.077160
    44  H    0.221609
    45  C    0.636117
    46  C    0.021489
    47  H    0.212230
    48  O   -0.561267
    49  C   -0.464394
    50  H    0.218915
    51  H    0.222496
    52  H    0.216545
    53  O   -0.578276
    54  H    0.490919
    55  N   -0.583476
    56  H    0.366639
    57  C   -0.047733
    58  H    0.224186
    59  C    0.588843
    60  C   -0.309584
    61  H    0.160624
    62  H    0.198024
    63  O   -0.430716
    64  C   -0.319688
    65  H    0.182934
    66  H    0.198031
    67  C   -0.170058
    68  H    0.204790
    69  H    0.184774
    70  N   -0.591198
    71  H    0.361051
    72  N   -0.725558
    73  H    0.380196
    74  H    0.387758
    75  N   -0.729279
    76  H    0.376445
    77  H    0.376019
    78  C    0.736240
    79  O   -0.575299
    80  H    0.434350
    81  H    0.483736
 Sum of Mulliken charges =   1.00000

 Dipole moment (field-independent basis, Debye):
    X=             31.8399    Y=             18.5396    Z=            -41.5994  Tot=             55.5698
 Quadrupole moment (field-independent basis, Debye-Ang):
   XX=           -114.9784   YY=           -154.5366   ZZ=           -182.3520
   XY=             58.1524   XZ=            -82.9442   YZ=            -92.2007

 Normal termination of Gaussian 16 at Sun May 15 14:54:49 2022.
