 Gaussian 16, Revision C.01,
 Gaussian 16:  ES64L-G16RevC.01  3-Jul-2019

 -------------------------------------------------------------------
 # B3LYP/6-31G* guess=read geom=check nosymm integral(ultrafinegrid)
 -------------------------------------------------------------------

 ------------------------------------------------------
 Candidate Structure: Conf:121 Charge calc in gas phase
 ------------------------------------------------------
 Structure from the checkpoint file:  "conf-121.chk"
 Charge =  1 Multiplicity = 1

                          Input orientation:
 ---------------------------------------------------------------------
 Center     Atomic      Atomic             Coordinates (Angstroms)
 Number     Number       Type             X           Y           Z
 ---------------------------------------------------------------------
      1          7           0       -5.654598    0.373087    3.751022
      2          1           0       -6.459385    0.930604    3.468054
      3          1           0       -5.738368   -0.496431    3.224670
      4          6           0       -4.431782    1.043964    3.335755
      5          1           0       -4.512976    2.096628    3.639384
      6          6           0       -4.119075    0.950268    1.841106
      7          6           0       -3.158959    0.430023    3.993085
      8          1           0       -2.297666    1.054744    3.732702
      9          1           0       -3.257823    0.456334    5.082869
     10          8           0       -4.591819    0.078223    1.119690
     11          6           0       -2.885637   -1.002223    3.508548
     12          1           0       -2.886514   -1.036013    2.410232
     13          1           0       -3.663873   -1.686861    3.855290
     14          6           0       -1.485690   -1.587563    3.884231
     15          8           0       -1.426473   -2.811478    4.087306
     16          8           0       -0.518809   -0.748911    3.824986
     17          7           0       -3.143084    1.816299    1.374809
     18          1           0       -2.640462    2.416082    2.020468
     19          6           0       -2.258218    1.236477    0.374868
     20          1           0       -2.503449    0.168584    0.349508
     21          6           0       -0.834265    1.466873    0.906767
     22          6           0       -2.424125    1.791196   -1.062170
     23          1           0       -3.474381    1.637160   -1.327803
     24          1           0       -1.815905    1.181628   -1.742905
     25          8           0       -0.531719    2.434653    1.587542
     26          6           0       -2.040997    3.237365   -1.209947
     27          6           0       -2.783321    4.330207   -0.834557
     28          1           0       -3.764386    4.370854   -0.383080
     29          6           0       -0.810085    3.756253   -1.754227
     30          6           0       -0.876982    5.175055   -1.681242
     31          6           0        0.336701    3.158564   -2.308306
     32          1           0        0.415714    2.075643   -2.370630
     33          7           0       -2.090290    5.493036   -1.115250
     34          1           0       -2.421206    6.425963   -0.922927
     35          6           0        1.274941    5.381255   -2.687824
     36          1           0        2.092602    5.993015   -3.059460
     37          6           0        0.157464    5.999473   -2.138307
     38          1           0        0.086162    7.081154   -2.070554
     39          6           0        1.362259    3.976165   -2.774351
     40          1           0        2.247552    3.522342   -3.215983
     41          7           0        0.086365    0.510644    0.555418
     42          1           0       -0.213140   -0.274697   -0.008002
     43          6           0        1.506775    0.600970    0.875026
     44          1           0        1.786106    1.658051    0.862368
     45          6           0        2.190813   -0.199739   -0.225571
     46          6           0        1.941301    0.038522    2.249686
     47          1           0        3.035333    0.074953    2.276717
     48          8           0        2.059903   -1.438186   -0.235061
     49          6           0        1.350829    0.707405    3.460614
     50          1           0        1.570613    1.777635    3.424754
     51          1           0        1.778971    0.289406    4.373884
     52          1           0        0.266436    0.582012    3.569032
     53          8           0        1.585951   -1.431583    2.322232
     54          1           0        0.623883   -1.486890    2.562132
     55          7           0        2.834634    0.480991   -1.197545
     56          1           0        3.072242    1.450350   -1.023884
     57          6           0        3.580826   -0.202724   -2.253488
     58          1           0        3.052312   -1.128477   -2.487704
     59          6           0        4.986163   -0.600356   -1.808604
     60          6           0        3.632222    0.700168   -3.502386
     61          1           0        4.129335    1.642222   -3.245107
     62          1           0        2.592748    0.942105   -3.757113
     63          8           0        5.542561   -1.618279   -2.141739
     64          6           0        4.311710    0.038067   -4.708229
     65          1           0        5.363397   -0.182957   -4.489637
     66          1           0        3.835450   -0.927598   -4.909970
     67          6           0        4.225152    0.881301   -5.979802
     68          1           0        4.631541    0.326977   -6.835210
     69          1           0        3.174145    1.110332   -6.189354
     70          7           0        4.954433    2.159789   -5.810895
     71          1           0        5.823528    2.066924   -5.292955
     72          7           0        4.225162    3.031472   -7.861095
     73          1           0        4.055223    3.863140   -8.412894
     74          1           0        3.495834    2.332573   -7.895873
     75          7           0        5.884152    4.121857   -6.642393
     76          1           0        6.220663    4.344676   -5.713663
     77          1           0        5.793522    4.922528   -7.255701
     78          6           0        5.001252    3.107569   -6.769542
     79          8           0        5.563161    0.355969   -1.041687
     80          1           0        6.457740    0.033267   -0.816727
     81          1           0        1.698455   -1.779009    1.370890
 ---------------------------------------------------------------------

 SCF Done:  E(RB3LYP) =  -2053.80299683     A.U. after    1 cycles

 Alpha  occ. eigenvalues --  -19.33936 -19.32467 -19.26807 -19.26644 -19.20304
 Alpha  occ. eigenvalues --  -19.16134 -19.10033 -19.07753 -14.57816 -14.57427
 Alpha  occ. eigenvalues --  -14.57257 -14.50952 -14.46204 -14.45244 -14.40128
 Alpha  occ. eigenvalues --  -14.33724 -10.53891 -10.44717 -10.43200 -10.40886
 Alpha  occ. eigenvalues --  -10.37863 -10.37244 -10.36314 -10.35601 -10.35269
 Alpha  occ. eigenvalues --  -10.34694 -10.32233 -10.29774 -10.29562 -10.28823
 Alpha  occ. eigenvalues --  -10.27194 -10.27099 -10.27013 -10.26874 -10.26811
 Alpha  occ. eigenvalues --  -10.26484 -10.26154 -10.25200 -10.25085 -10.21317
 Alpha  occ. eigenvalues --  -10.20224 -10.18199  -1.23249  -1.22200  -1.21260
 Alpha  occ. eigenvalues --   -1.17858  -1.14316  -1.12536  -1.11458  -1.10592
 Alpha  occ. eigenvalues --   -1.07958  -1.07393  -1.05163  -1.02544  -1.02064
 Alpha  occ. eigenvalues --   -0.97276  -0.96687  -0.93541  -0.91916  -0.91730
 Alpha  occ. eigenvalues --   -0.91230  -0.89162  -0.87410  -0.85177  -0.83339
 Alpha  occ. eigenvalues --   -0.82934  -0.81611  -0.80742  -0.79432  -0.79312
 Alpha  occ. eigenvalues --   -0.78410  -0.77878  -0.75378  -0.74189  -0.73817
 Alpha  occ. eigenvalues --   -0.73473  -0.71586  -0.70372  -0.70302  -0.69977
 Alpha  occ. eigenvalues --   -0.69696  -0.68592  -0.68185  -0.67126  -0.66271
 Alpha  occ. eigenvalues --   -0.65998  -0.64724  -0.64207  -0.63279  -0.62441
 Alpha  occ. eigenvalues --   -0.62070  -0.61794  -0.61120  -0.61074  -0.60861
 Alpha  occ. eigenvalues --   -0.60136  -0.59185  -0.58566  -0.57431  -0.56367
 Alpha  occ. eigenvalues --   -0.55613  -0.55575  -0.55377  -0.54940  -0.54289
 Alpha  occ. eigenvalues --   -0.54039  -0.53349  -0.52944  -0.52300  -0.52131
 Alpha  occ. eigenvalues --   -0.51738  -0.51608  -0.51179  -0.51028  -0.50290
 Alpha  occ. eigenvalues --   -0.49996  -0.49829  -0.49160  -0.49018  -0.48851
 Alpha  occ. eigenvalues --   -0.48693  -0.47550  -0.47315  -0.46661  -0.46406
 Alpha  occ. eigenvalues --   -0.46069  -0.45526  -0.45099  -0.44475  -0.44385
 Alpha  occ. eigenvalues --   -0.44065  -0.43468  -0.43042  -0.42867  -0.42666
 Alpha  occ. eigenvalues --   -0.42061  -0.41390  -0.40945  -0.40342  -0.40120
 Alpha  occ. eigenvalues --   -0.39029  -0.38657  -0.37293  -0.36566  -0.35411
 Alpha  occ. eigenvalues --   -0.35085  -0.34736  -0.34365  -0.33790  -0.30759
 Alpha  occ. eigenvalues --   -0.30062  -0.29876  -0.27538  -0.26290  -0.25584
 Alpha  occ. eigenvalues --   -0.24695  -0.21446
 Alpha virt. eigenvalues --   -0.18744  -0.13196  -0.12854  -0.11975  -0.09637
 Alpha virt. eigenvalues --   -0.09015  -0.08630  -0.08074  -0.06407  -0.06286
 Alpha virt. eigenvalues --   -0.05671  -0.05005  -0.03950  -0.03134  -0.02910

 Mulliken charges:
               1
     1  N   -0.694298
     2  H    0.296497
     3  H    0.318251
     4  C   -0.071139
     5  H    0.130007
     6  C    0.556005
     7  C   -0.264956
     8  H    0.135835
     9  H    0.163083
    10  O   -0.512407
    11  C   -0.361013
    12  H    0.132630
    13  H    0.159736
    14  C    0.546088
    15  O   -0.553043
    16  O   -0.639977
    17  N   -0.589561
    18  H    0.353905
    19  C   -0.061476
    20  H    0.183123
    21  C    0.657150
    22  C   -0.348535
    23  H    0.192540
    24  H    0.127124
    25  O   -0.516897
    26  C    0.069183
    27  C    0.017922
    28  H    0.177178
    29  C    0.082585
    30  C    0.325000
    31  C   -0.221071
    32  H    0.103882
    33  N   -0.689620
    34  H    0.339543
    35  C   -0.152152
    36  H    0.106799
    37  C   -0.154286
    38  H    0.138864
    39  C   -0.153978
    40  H    0.064422
    41  N   -0.638550
    42  H    0.347562
    43  C   -0.057457
    44  H    0.199235
    45  C    0.620004
    46  C    0.076321
    47  H    0.178174
    48  O   -0.556168
    49  C   -0.486966
    50  H    0.139920
    51  H    0.176120
    52  H    0.300017
    53  O   -0.613454
    54  H    0.467890
    55  N   -0.593750
    56  H    0.361726
    57  C   -0.048170
    58  H    0.224965
    59  C    0.591476
    60  C   -0.301859
    61  H    0.156593
    62  H    0.190001
    63  O   -0.430760
    64  C   -0.320074
    65  H    0.182658
    66  H    0.204871
    67  C   -0.176079
    68  H    0.208620
    69  H    0.188325
    70  N   -0.587274
    71  H    0.371344
    72  N   -0.724876
    73  H    0.391713
    74  H    0.399531
    75  N   -0.729311
    76  H    0.389875
    77  H    0.387654
    78  C    0.786952
    79  O   -0.574978
    80  H    0.432747
    81  H    0.472492
 Sum of Mulliken charges =   1.00000

 Dipole moment (field-independent basis, Debye):
    X=             29.1075    Y=             22.9525    Z=            -38.7252  Tot=             53.6069
 Quadrupole moment (field-independent basis, Debye-Ang):
   XX=           -107.2891   YY=           -178.4372   ZZ=            -68.3190
   XY=             54.7257   XZ=           -128.0016   YZ=            -77.7777

 Normal termination of Gaussian 16 at Thu May 26 18:15:26 2022.
