 Gaussian 16, Revision C.01,
 Gaussian 16:  ES64L-G16RevC.01  3-Jul-2019

 -------------------------------------------------------------------
 # B3LYP/6-31G* guess=read geom=check nosymm integral(ultrafinegrid)
 -------------------------------------------------------------------

 ------------------------------------------------------
 Candidate Structure: Conf:364 Charge calc in gas phase
 ------------------------------------------------------
 Structure from the checkpoint file:  "conf-364.chk"
 Charge =  1 Multiplicity = 1

                          Input orientation:
 ---------------------------------------------------------------------
 Center     Atomic      Atomic             Coordinates (Angstroms)
 Number     Number       Type             X           Y           Z
 ---------------------------------------------------------------------
      1          7           0       -5.050783    1.766940    4.446824
      2          1           0       -5.939102    1.348331    4.196237
      3          1           0       -4.498719    1.006939    4.833266
      4          6           0       -4.378408    2.259808    3.257382
      5          1           0       -5.045204    2.961746    2.744194
      6          6           0       -3.999289    1.159463    2.258865
      7          6           0       -3.112446    3.021840    3.651532
      8          1           0       -2.470275    2.358674    4.238824
      9          1           0       -2.545163    3.283014    2.752685
     10          8           0       -3.946217   -0.028023    2.563543
     11          6           0       -3.411319    4.268851    4.466767
     12          1           0       -3.943554    4.015135    5.387976
     13          1           0       -4.018721    4.993788    3.924143
     14          6           0       -2.090994    4.959721    4.903285
     15          8           0       -2.179849    6.192576    5.055015
     16          8           0       -1.115658    4.214459    5.105505
     17          7           0       -3.728188    1.622641    1.002763
     18          1           0       -3.585049    2.616302    0.926752
     19          6           0       -2.918013    0.850748    0.084224
     20          1           0       -2.884634   -0.173682    0.450353
     21          6           0       -1.497275    1.432465    0.084207
     22          6           0       -3.481703    0.840162   -1.338331
     23          1           0       -2.747009    0.357671   -1.992420
     24          1           0       -3.585385    1.865897   -1.702686
     25          8           0       -1.248867    2.556618    0.493430
     26          6           0       -4.793959    0.112198   -1.431964
     27          6           0       -5.472940   -0.570478   -0.455765
     28          1           0       -5.216733   -0.698031    0.582281
     29          6           0       -5.590561   -0.010889   -2.629256
     30          6           0       -6.730744   -0.762124   -2.304670
     31          6           0       -5.421268    0.462801   -3.936555
     32          1           0       -4.547937    1.046200   -4.212150
     33          7           0       -6.639941   -1.087508   -0.970945
     34          1           0       -7.307026   -1.639224   -0.465013
     35          6           0       -7.531795   -0.588642   -4.531602
     36          1           0       -8.275337   -0.802074   -5.289980
     37          6           0       -7.719292   -1.065433   -3.242865
     38          1           0       -8.592393   -1.647938   -2.970593
     39          6           0       -6.395330    0.167150   -4.874820
     40          1           0       -6.285780    0.522225   -5.892775
     41          7           0       -0.548266    0.627274   -0.451478
     42          1           0       -0.777462   -0.290429   -0.800153
     43          6           0        0.826943    1.059992   -0.543110
     44          1           0        0.819047    2.113759   -0.831957
     45          6           0        1.508169    0.214588   -1.609225
     46          6           0        1.540602    0.995157    0.837316
     47          1           0        1.029612    1.715579    1.471202
     48          8           0        1.292468   -0.982495   -1.721806
     49          6           0        1.554530   -0.375398    1.477760
     50          1           0        0.537283   -0.730491    1.640928
     51          1           0        2.065415   -0.333534    2.440192
     52          1           0        2.064727   -1.091397    0.830059
     53          8           0        2.950369    1.455105    0.726266
     54          1           0        3.494574    0.784762    0.225171
     55          7           0        2.406309    0.862236   -2.394369
     56          1           0        2.617703    1.826145   -2.206578
     57          6           0        3.357725    0.116291   -3.201062
     58          1           0        2.810318   -0.650811   -3.754500
     59          6           0        4.365614   -0.625983   -2.348105
     60          6           0        4.048640    1.070729   -4.181428
     61          1           0        4.597313    1.821054   -3.617161
     62          1           0        3.253794    1.589648   -4.723629
     63          8           0        4.970388   -1.611173   -2.687682
     64          6           0        4.956324    0.371951   -5.180453
     65          1           0        5.799893   -0.100325   -4.676672
     66          1           0        4.398128   -0.436199   -5.665840
     67          6           0        5.468022    1.323284   -6.243429
     68          1           0        6.017859    0.778325   -7.020078
     69          1           0        4.620072    1.816707   -6.722732
     70          7           0        6.329088    2.349160   -5.614078
     71          1           0        6.945213    1.985193   -4.900209
     72          7           0        6.503267    3.583095   -7.596559
     73          1           0        6.687131    4.488313   -7.998903
     74          1           0        5.687662    3.106344   -7.943386
     75          7           0        7.850722    4.088484   -5.743464
     76          1           0        7.862666    4.116995   -4.732924
     77          1           0        8.093842    4.960026   -6.188723
     78          6           0        6.875471    3.348608   -6.324277
     79          8           0        4.554590   -0.064190   -1.124007
     80          1           0        5.258927   -0.594180   -0.717747
     81          1           0        3.035354    2.307357    0.256377
 ---------------------------------------------------------------------

 SCF Done:  E(RB3LYP) =  -2053.70222732     A.U. after    1 cycles

 Alpha  occ. eigenvalues --  -19.46346 -19.37891 -19.30113 -19.27187 -19.21995
 Alpha  occ. eigenvalues --  -19.15906 -19.06356 -19.05093 -14.55966 -14.55847
 Alpha  occ. eigenvalues --  -14.55326 -14.52678 -14.48117 -14.41906 -14.40376
 Alpha  occ. eigenvalues --  -14.32755 -10.50640 -10.48119 -10.44298 -10.42696
 Alpha  occ. eigenvalues --  -10.40579 -10.40184 -10.38962 -10.38561 -10.36349
 Alpha  occ. eigenvalues --  -10.35755 -10.32231 -10.31857 -10.30326 -10.26326
 Alpha  occ. eigenvalues --  -10.25731 -10.25687 -10.23623 -10.22856 -10.22768
 Alpha  occ. eigenvalues --  -10.22712 -10.22685 -10.22331 -10.22243 -10.22062
 Alpha  occ. eigenvalues --  -10.18219 -10.14858  -1.33323  -1.28124  -1.20497
 Alpha  occ. eigenvalues --   -1.19808  -1.18279  -1.14579  -1.10224  -1.09599
 Alpha  occ. eigenvalues --   -1.08940  -1.07712  -1.05309  -1.02250  -0.98905
 Alpha  occ. eigenvalues --   -0.98154  -0.97987  -0.95579  -0.92783  -0.90643
 Alpha  occ. eigenvalues --   -0.90181  -0.88218  -0.87788  -0.86063  -0.85259
 Alpha  occ. eigenvalues --   -0.83028  -0.82583  -0.81446  -0.80204  -0.79907
 Alpha  occ. eigenvalues --   -0.77764  -0.77618  -0.77271  -0.76995  -0.76115
 Alpha  occ. eigenvalues --   -0.75334  -0.73581  -0.73423  -0.72151  -0.70299
 Alpha  occ. eigenvalues --   -0.69042  -0.68754  -0.68196  -0.68051  -0.66734
 Alpha  occ. eigenvalues --   -0.66424  -0.65794  -0.65430  -0.64931  -0.63837
 Alpha  occ. eigenvalues --   -0.63415  -0.63182  -0.62758  -0.61806  -0.61728
 Alpha  occ. eigenvalues --   -0.60680  -0.59790  -0.59488  -0.58837  -0.58381
 Alpha  occ. eigenvalues --   -0.57984  -0.57470  -0.56702  -0.56080  -0.55442
 Alpha  occ. eigenvalues --   -0.54716  -0.54128  -0.54012  -0.53139  -0.52924
 Alpha  occ. eigenvalues --   -0.52617  -0.52441  -0.52102  -0.51671  -0.51446
 Alpha  occ. eigenvalues --   -0.51186  -0.50826  -0.50016  -0.49739  -0.48540
 Alpha  occ. eigenvalues --   -0.47965  -0.47374  -0.47289  -0.47205  -0.46116
 Alpha  occ. eigenvalues --   -0.45888  -0.45481  -0.45464  -0.44959  -0.44664
 Alpha  occ. eigenvalues --   -0.44272  -0.43882  -0.43377  -0.41700  -0.41463
 Alpha  occ. eigenvalues --   -0.41000  -0.40968  -0.39471  -0.38896  -0.38060
 Alpha  occ. eigenvalues --   -0.37909  -0.37507  -0.37464  -0.36084  -0.35282
 Alpha  occ. eigenvalues --   -0.34896  -0.33346  -0.31800  -0.31429  -0.30738
 Alpha  occ. eigenvalues --   -0.29459  -0.26352  -0.25376  -0.24465  -0.20976
 Alpha  occ. eigenvalues --   -0.18908  -0.18400
 Alpha virt. eigenvalues --   -0.17605  -0.17070  -0.15742  -0.13617  -0.12246
 Alpha virt. eigenvalues --   -0.09659  -0.09095  -0.08281  -0.07758  -0.06922
 Alpha virt. eigenvalues --   -0.06700  -0.05184  -0.05017  -0.04294  -0.03433

 Mulliken charges:
               1
     1  N   -0.681414
     2  H    0.294568
     3  H    0.304269
     4  C   -0.087111
     5  H    0.140277
     6  C    0.579795
     7  C   -0.266932
     8  H    0.148966
     9  H    0.127326
    10  O   -0.541018
    11  C   -0.346383
    12  H    0.169040
    13  H    0.117390
    14  C    0.568593
    15  O   -0.517623
    16  O   -0.570047
    17  N   -0.556124
    18  H    0.346211
    19  C   -0.107129
    20  H    0.185550
    21  C    0.627176
    22  C   -0.337297
    23  H    0.127167
    24  H    0.160994
    25  O   -0.507255
    26  C    0.068253
    27  C   -0.003653
    28  H    0.191164
    29  C    0.075280
    30  C    0.321355
    31  C   -0.208474
    32  H    0.103151
    33  N   -0.705440
    34  H    0.333327
    35  C   -0.151676
    36  H    0.129127
    37  C   -0.160010
    38  H    0.130777
    39  C   -0.139484
    40  H    0.117773
    41  N   -0.619966
    42  H    0.369805
    43  C   -0.047716
    44  H    0.181195
    45  C    0.591944
    46  C    0.015002
    47  H    0.279386
    48  O   -0.495153
    49  C   -0.486281
    50  H    0.237642
    51  H    0.211753
    52  H    0.178300
    53  O   -0.576051
    54  H    0.475896
    55  N   -0.618123
    56  H    0.312184
    57  C   -0.027284
    58  H    0.237753
    59  C    0.609464
    60  C   -0.303859
    61  H    0.142812
    62  H    0.185246
    63  O   -0.419337
    64  C   -0.316617
    65  H    0.184083
    66  H    0.201643
    67  C   -0.168351
    68  H    0.207207
    69  H    0.180171
    70  N   -0.595852
    71  H    0.359213
    72  N   -0.726948
    73  H    0.380529
    74  H    0.386224
    75  N   -0.728888
    76  H    0.372124
    77  H    0.376419
    78  C    0.732732
    79  O   -0.621674
    80  H    0.441881
    81  H    0.421038
 Sum of Mulliken charges =   1.00000

 Dipole moment (field-independent basis, Debye):
    X=             39.7184    Y=              2.9591    Z=            -40.7727  Tot=             56.9975
 Quadrupole moment (field-independent basis, Debye-Ang):
   XX=            -13.6270   YY=           -269.3811   ZZ=           -147.9807
   XY=            144.6383   XZ=           -141.9340   YZ=           -178.3853

 Normal termination of Gaussian 16 at Thu May 26 18:16:19 2022.
