 Gaussian 16, Revision C.01,
 Gaussian 16:  ES64L-G16RevC.01  3-Jul-2019

 -------------------------------------------------------------------
 # B3LYP/6-31G* guess=read geom=check nosymm integral(ultrafinegrid)
 -------------------------------------------------------------------

 ------------------------------------------------------
 Candidate Structure: Conf:315 Charge calc in gas phase
 ------------------------------------------------------
 Structure from the checkpoint file:  "conf-315.chk"
 Charge =  1 Multiplicity = 1

                          Input orientation:
 ---------------------------------------------------------------------
 Center     Atomic      Atomic             Coordinates (Angstroms)
 Number     Number       Type             X           Y           Z
 ---------------------------------------------------------------------
      1          7           0       -5.849626   -0.412766    3.812440
      2          1           0       -6.376997    0.318151    3.346229
      3          1           0       -5.966785   -1.238520    3.231158
      4          6           0       -4.433781   -0.080956    3.825879
      5          1           0       -4.309252    0.884925    4.329348
      6          6           0       -3.842373   -0.005564    2.415547
      7          6           0       -3.694876   -1.155838    4.640673
      8          1           0       -4.260519   -1.314848    5.562049
      9          1           0       -3.728295   -2.096086    4.082770
     10          8           0       -4.249849   -0.723864    1.515280
     11          6           0       -2.249106   -0.836963    5.010430
     12          1           0       -2.196673    0.037066    5.661794
     13          1           0       -1.634999   -0.669723    4.124012
     14          6           0       -1.737607   -2.080352    5.771429
     15          8           0       -1.857276   -2.057932    7.006823
     16          8           0       -1.287772   -2.985030    5.044138
     17          7           0       -2.820485    0.881830    2.256914
     18          1           0       -2.406330    1.304386    3.074579
     19          6           0       -1.982850    0.864596    1.075243
     20          1           0       -2.315445    0.023932    0.465817
     21          6           0       -0.532374    0.680769    1.525100
     22          6           0       -2.125655    2.164489    0.266925
     23          1           0       -1.415296    2.160661   -0.563840
     24          1           0       -1.869908    3.005128    0.916390
     25          8           0       -0.117090    1.159857    2.572337
     26          6           0       -3.528009    2.326384   -0.248497
     27          6           0       -4.592780    2.804464    0.465890
     28          1           0       -4.621880    3.174410    1.479623
     29          6           0       -4.043793    1.941937   -1.538475
     30          6           0       -5.422215    2.216651   -1.538620
     31          6           0       -3.448349    1.393111   -2.680234
     32          1           0       -2.386767    1.172585   -2.705844
     33          7           0       -5.733448    2.744049   -0.304895
     34          1           0       -6.652283    3.004756    0.000598
     35          6           0       -5.626219    1.414360   -3.762156
     36          1           0       -6.222281    1.199467   -4.640847
     37          6           0       -6.236805    1.958879   -2.643244
     38          1           0       -7.298897    2.177197   -2.621546
     39          6           0       -4.246577    1.134573   -3.781031
     40          1           0       -3.804185    0.709980   -4.674362
     41          7           0        0.253454   -0.033376    0.670031
     42          1           0       -0.103016   -0.247304   -0.247549
     43          6           0        1.700695   -0.122645    0.834503
     44          1           0        2.028261    0.709269    1.447822
     45          6           0        2.317924   -0.088319   -0.546425
     46          6           0        2.131309   -1.448026    1.494148
     47          1           0        3.219134   -1.506674    1.461276
     48          8           0        1.981623   -0.924621   -1.399903
     49          6           0        1.632485   -1.622716    2.911916
     50          1           0        2.084638   -0.871415    3.563838
     51          1           0        1.899359   -2.611500    3.285302
     52          1           0        0.550387   -1.516259    2.972339
     53          8           0        1.639204   -2.568336    0.648771
     54          1           0        0.666746   -2.612923    0.790421
     55          7           0        3.212678    0.879823   -0.816406
     56          1           0        3.636046    1.354386   -0.033570
     57          6           0        4.066414    0.727569   -1.989222
     58          1           0        3.428453    0.450052   -2.833522
     59          6           0        5.030790   -0.420852   -1.764158
     60          6           0        4.802880    2.029371   -2.286423
     61          1           0        5.528496    1.845803   -3.079365
     62          1           0        5.367270    2.315532   -1.396796
     63          8           0        5.171884   -1.009718   -0.723658
     64          6           0        3.857663    3.145192   -2.711012
     65          1           0        3.270663    2.806169   -3.567466
     66          1           0        3.150968    3.375100   -1.919082
     67          6           0        4.607951    4.413372   -3.084697
     68          1           0        5.224796    4.752113   -2.245150
     69          1           0        5.291116    4.203387   -3.910672
     70          7           0        3.752986    5.522117   -3.545499
     71          1           0        3.417906    5.446180   -4.495667
     72          7           0        2.997747    6.020352   -1.392453
     73          1           0        2.634279    6.723700   -0.769403
     74          1           0        3.743321    5.451197   -1.027506
     75          7           0        2.080139    7.098835   -3.265382
     76          1           0        2.302289    7.463836   -4.182115
     77          1           0        1.637804    7.759243   -2.643314
     78          6           0        2.962344    6.224293   -2.722298
     79          8           0        5.728608   -0.708329   -2.881019
     80          1           0        6.312632   -1.442124   -2.655362
     81          1           0        1.748353   -2.197059   -0.282533
 ---------------------------------------------------------------------

 SCF Done:  E(RB3LYP) =  -2053.73959450     A.U. after    3 cycles

 Alpha  occ. eigenvalues --  -19.43900 -19.33361 -19.30346 -19.28457 -19.23304
 Alpha  occ. eigenvalues --  -19.15578 -19.04686 -19.04435 -14.55843 -14.55754
 Alpha  occ. eigenvalues --  -14.54961 -14.53559 -14.50073 -14.43759 -14.41145
 Alpha  occ. eigenvalues --  -14.33203 -10.50553 -10.46353 -10.46204 -10.42161
 Alpha  occ. eigenvalues --  -10.40496 -10.40053 -10.39687 -10.39626 -10.35742
 Alpha  occ. eigenvalues --  -10.35515 -10.31980 -10.31312 -10.29732 -10.27840
 Alpha  occ. eigenvalues --  -10.27818 -10.27477 -10.24656 -10.24525 -10.24326
 Alpha  occ. eigenvalues --  -10.24176 -10.23994 -10.23959 -10.23885 -10.22344
 Alpha  occ. eigenvalues --  -10.18311 -10.16153  -1.31406  -1.25044  -1.22037
 Alpha  occ. eigenvalues --   -1.20266  -1.16209  -1.15599  -1.10463  -1.09849
 Alpha  occ. eigenvalues --   -1.08743  -1.07902  -1.06722  -1.03991  -0.98525
 Alpha  occ. eigenvalues --   -0.98216  -0.97916  -0.95259  -0.92381  -0.91009
 Alpha  occ. eigenvalues --   -0.89954  -0.89412  -0.87998  -0.86965  -0.85442
 Alpha  occ. eigenvalues --   -0.82942  -0.81906  -0.80984  -0.79530  -0.78566
 Alpha  occ. eigenvalues --   -0.78124  -0.77853  -0.77574  -0.76915  -0.76517
 Alpha  occ. eigenvalues --   -0.74932  -0.74491  -0.73871  -0.72866  -0.69931
 Alpha  occ. eigenvalues --   -0.69001  -0.68370  -0.68207  -0.68121  -0.67474
 Alpha  occ. eigenvalues --   -0.66522  -0.65805  -0.65274  -0.65201  -0.64424
 Alpha  occ. eigenvalues --   -0.64242  -0.62993  -0.62588  -0.62170  -0.61870
 Alpha  occ. eigenvalues --   -0.61062  -0.59946  -0.59758  -0.59593  -0.58433
 Alpha  occ. eigenvalues --   -0.57826  -0.57276  -0.56907  -0.56190  -0.55588
 Alpha  occ. eigenvalues --   -0.55386  -0.54064  -0.53707  -0.53524  -0.53392
 Alpha  occ. eigenvalues --   -0.52908  -0.52655  -0.52533  -0.52127  -0.51814
 Alpha  occ. eigenvalues --   -0.50989  -0.50782  -0.49877  -0.49369  -0.49134
 Alpha  occ. eigenvalues --   -0.48949  -0.48147  -0.48024  -0.47409  -0.46991
 Alpha  occ. eigenvalues --   -0.46370  -0.45960  -0.45872  -0.45247  -0.44965
 Alpha  occ. eigenvalues --   -0.44928  -0.44274  -0.43887  -0.43679  -0.43045
 Alpha  occ. eigenvalues --   -0.41909  -0.41304  -0.41123  -0.39765  -0.39241
 Alpha  occ. eigenvalues --   -0.39190  -0.38965  -0.37473  -0.36956  -0.35820
 Alpha  occ. eigenvalues --   -0.35015  -0.33513  -0.33334  -0.31874  -0.31008
 Alpha  occ. eigenvalues --   -0.29405  -0.28084  -0.26224  -0.25900  -0.20157
 Alpha  occ. eigenvalues --   -0.18609  -0.17877
 Alpha virt. eigenvalues --   -0.17038  -0.16264  -0.13521  -0.12521  -0.11566
 Alpha virt. eigenvalues --   -0.09828  -0.08601  -0.07783  -0.07517  -0.06795
 Alpha virt. eigenvalues --   -0.06406  -0.05209  -0.04443  -0.03979  -0.03424

 Mulliken charges:
               1
     1  N   -0.686169
     2  H    0.281562
     3  H    0.310722
     4  C   -0.084062
     5  H    0.118891
     6  C    0.595470
     7  C   -0.258268
     8  H    0.182885
     9  H    0.150446
    10  O   -0.527365
    11  C   -0.340786
    12  H    0.112815
    13  H    0.079066
    14  C    0.549500
    15  O   -0.540751
    16  O   -0.603838
    17  N   -0.600494
    18  H    0.351785
    19  C   -0.062487
    20  H    0.187622
    21  C    0.633732
    22  C   -0.350469
    23  H    0.114424
    24  H    0.154475
    25  O   -0.504332
    26  C    0.064945
    27  C    0.023365
    28  H    0.157442
    29  C    0.095552
    30  C    0.322754
    31  C   -0.207154
    32  H    0.082950
    33  N   -0.692865
    34  H    0.335985
    35  C   -0.151598
    36  H    0.134263
    37  C   -0.154516
    38  H    0.137097
    39  C   -0.138421
    40  H    0.117382
    41  N   -0.643704
    42  H    0.355529
    43  C   -0.092238
    44  H    0.210110
    45  C    0.641408
    46  C    0.026286
    47  H    0.232847
    48  O   -0.562934
    49  C   -0.480490
    50  H    0.211867
    51  H    0.224968
    52  H    0.235598
    53  O   -0.577984
    54  H    0.494643
    55  N   -0.584505
    56  H    0.351492
    57  C   -0.063869
    58  H    0.226789
    59  C    0.601817
    60  C   -0.308280
    61  H    0.204916
    62  H    0.157217
    63  O   -0.455782
    64  C   -0.278415
    65  H    0.175417
    66  H    0.163201
    67  C   -0.194964
    68  H    0.181731
    69  H    0.207871
    70  N   -0.572424
    71  H    0.369313
    72  N   -0.734141
    73  H    0.382119
    74  H    0.376755
    75  N   -0.731995
    76  H    0.380645
    77  H    0.376965
    78  C    0.735518
    79  O   -0.556803
    80  H    0.439957
    81  H    0.481993
 Sum of Mulliken charges =   1.00000

 Dipole moment (field-independent basis, Debye):
    X=             26.5510    Y=             31.5938    Z=            -28.9807  Tot=             50.4282
 Quadrupole moment (field-independent basis, Debye-Ang):
   XX=           -142.5905   YY=            -82.5155   ZZ=           -318.8813
   XY=             39.1874   XZ=            -10.2653   YZ=            -14.5906

 Normal termination of Gaussian 16 at Thu May 26 18:17:00 2022.
