 Gaussian 16, Revision C.01,
 Gaussian 16:  ES64L-G16RevC.01  3-Jul-2019

 -------------------------------------------------------------------
 # B3LYP/6-31G* guess=read geom=check nosymm integral(ultrafinegrid)
 -------------------------------------------------------------------

 ------------------------------------------------------
 Candidate Structure: Conf:876 Charge calc in gas phase
 ------------------------------------------------------
 Structure from the checkpoint file:  "conf-876.chk"
 Charge =  1 Multiplicity = 1

                          Input orientation:
 ---------------------------------------------------------------------
 Center     Atomic      Atomic             Coordinates (Angstroms)
 Number     Number       Type             X           Y           Z
 ---------------------------------------------------------------------
      1          7           0       -6.422602    2.020301    1.864433
      2          1           0       -6.970493    2.580788    2.501924
      3          1           0       -6.468764    2.466128    0.959791
      4          6           0       -5.063246    1.915478    2.365893
      5          1           0       -4.582037    2.903825    2.491113
      6          6           0       -4.233568    1.100273    1.377349
      7          6           0       -5.074909    1.202774    3.710421
      8          1           0       -5.462175    0.192660    3.550274
      9          1           0       -4.051648    1.100405    4.087720
     10          8           0       -4.438001   -0.093142    1.180680
     11          6           0       -5.899213    1.953121    4.748398
     12          1           0       -6.975100    1.822727    4.610326
     13          1           0       -5.678224    3.025113    4.709504
     14          6           0       -5.540657    1.503673    6.191520
     15          8           0       -6.483380    1.540248    7.005483
     16          8           0       -4.345178    1.223453    6.394241
     17          7           0       -3.253618    1.792671    0.746356
     18          1           0       -3.027872    2.738589    1.003279
     19          6           0       -2.427888    1.173538   -0.259696
     20          1           0       -2.564186    0.099914   -0.139541
     21          6           0       -0.983785    1.611669   -0.019740
     22          6           0       -2.850603    1.573797   -1.692560
     23          1           0       -2.274628    0.974474   -2.401634
     24          1           0       -2.593463    2.624153   -1.853537
     25          8           0       -0.721271    2.736606    0.401037
     26          6           0       -4.319120    1.362828   -1.917313
     27          6           0       -4.934414    0.229303   -2.371778
     28          1           0       -4.499184   -0.698802   -2.711157
     29          6           0       -5.370016    2.294139   -1.589517
     30          6           0       -6.590950    1.659144   -1.845696
     31          6           0       -5.364076    3.601510   -1.090110
     32          1           0       -4.425139    4.104790   -0.855714
     33          7           0       -6.304340    0.396058   -2.320493
     34          1           0       -6.978556   -0.288918   -2.605289
     35          6           0       -7.786557    3.561448   -1.088128
     36          1           0       -8.718060    4.059091   -0.841289
     37          6           0       -7.814458    2.272525   -1.588690
     38          1           0       -8.750819    1.750747   -1.752340
     39          6           0       -6.575967    4.224164   -0.846318
     40          1           0       -6.589644    5.221373   -0.417839
     41          7           0       -0.031628    0.706751   -0.337460
     42          1           0       -0.271319   -0.169233   -0.782614
     43          6           0        1.378324    1.058543   -0.434412
     44          1           0        1.456201    2.114965   -0.695134
     45          6           0        1.947688    0.165218   -1.536395
     46          6           0        2.121756    0.865390    0.915316
     47          1           0        1.978533   -0.174459    1.213088
     48          8           0        1.493407   -0.944943   -1.745189
     49          6           0        3.598657    1.200682    0.851934
     50          1           0        4.130479    0.509333    0.201856
     51          1           0        4.033342    1.137467    1.849281
     52          1           0        3.754492    2.216948    0.473975
     53          8           0        1.509895    1.697048    1.984963
     54          1           0        1.390733    2.625062    1.675955
     55          7           0        2.972681    0.696117   -2.259636
     56          1           0        3.437381    1.512727   -1.894185
     57          6           0        3.757037   -0.148528   -3.142052
     58          1           0        3.157791   -1.034710   -3.350991
     59          6           0        5.031178   -0.564093   -2.447226
     60          6           0        4.088116    0.577390   -4.451253
     61          1           0        4.703820    1.452976   -4.229741
     62          1           0        3.144139    0.943912   -4.859762
     63          8           0        5.690981    0.155281   -1.730779
     64          6           0        4.778829   -0.304821   -5.481776
     65          1           0        5.744874   -0.645381   -5.109303
     66          1           0        4.180520   -1.200723   -5.656025
     67          6           0        4.975862    0.429131   -6.798551
     68          1           0        4.019522    0.804674   -7.173285
     69          1           0        5.616085    1.298904   -6.637943
     70          7           0        5.634116   -0.366543   -7.851654
     71          1           0        6.638144   -0.440532   -7.774696
     72          7           0        3.695291   -1.541814   -8.406524
     73          1           0        3.316358   -2.441706   -8.658176
     74          1           0        3.224463   -1.083970   -7.640273
     75          7           0        5.766297   -2.191871   -9.292945
     76          1           0        6.655026   -1.821861   -9.609586
     77          1           0        5.256386   -2.679989  -10.017319
     78          6           0        5.028005   -1.362460   -8.507189
     79          8           0        5.401639   -1.821999   -2.754164
     80          1           0        6.246406   -1.970560   -2.311032
     81          1           0        0.609348    1.400218    2.233595
 ---------------------------------------------------------------------

 SCF Done:  E(RB3LYP) =  -2053.69911559     A.U. after    3 cycles

 Alpha  occ. eigenvalues --  -19.47267 -19.34079 -19.28760 -19.27545 -19.25171
 Alpha  occ. eigenvalues --  -19.14150 -19.04608 -19.03675 -14.54676 -14.54204
 Alpha  occ. eigenvalues --  -14.53710 -14.51905 -14.50058 -14.42726 -14.40873
 Alpha  occ. eigenvalues --  -14.31312 -10.48785 -10.46622 -10.44955 -10.44780
 Alpha  occ. eigenvalues --  -10.41329 -10.40399 -10.39559 -10.38833 -10.34997
 Alpha  occ. eigenvalues --  -10.34973 -10.34792 -10.31273 -10.31132 -10.27250
 Alpha  occ. eigenvalues --  -10.27202 -10.26295 -10.23519 -10.23242 -10.23205
 Alpha  occ. eigenvalues --  -10.22909 -10.22687 -10.22641 -10.22472 -10.21464
 Alpha  occ. eigenvalues --  -10.16126 -10.14353  -1.34150  -1.25518  -1.20283
 Alpha  occ. eigenvalues --   -1.18895  -1.17186  -1.16401  -1.08869  -1.08672
 Alpha  occ. eigenvalues --   -1.07312  -1.07205  -1.06623  -1.02886  -0.98387
 Alpha  occ. eigenvalues --   -0.97829  -0.97347  -0.96875  -0.91811  -0.89742
 Alpha  occ. eigenvalues --   -0.88966  -0.88627  -0.88427  -0.86348  -0.84785
 Alpha  occ. eigenvalues --   -0.83755  -0.82099  -0.81604  -0.80832  -0.78636
 Alpha  occ. eigenvalues --   -0.78387  -0.77294  -0.76445  -0.75783  -0.75389
 Alpha  occ. eigenvalues --   -0.74745  -0.74033  -0.73081  -0.72409  -0.71466
 Alpha  occ. eigenvalues --   -0.69509  -0.67609  -0.67237  -0.67071  -0.66567
 Alpha  occ. eigenvalues --   -0.65964  -0.65311  -0.64876  -0.64061  -0.63949
 Alpha  occ. eigenvalues --   -0.63630  -0.62871  -0.62316  -0.61952  -0.61718
 Alpha  occ. eigenvalues --   -0.60318  -0.59725  -0.59605  -0.59325  -0.58681
 Alpha  occ. eigenvalues --   -0.57463  -0.57025  -0.56490  -0.55942  -0.55756
 Alpha  occ. eigenvalues --   -0.55172  -0.55107  -0.54609  -0.54299  -0.53408
 Alpha  occ. eigenvalues --   -0.53026  -0.52943  -0.52577  -0.52208  -0.51862
 Alpha  occ. eigenvalues --   -0.51355  -0.50826  -0.50208  -0.49526  -0.48469
 Alpha  occ. eigenvalues --   -0.47905  -0.47809  -0.46827  -0.46359  -0.46343
 Alpha  occ. eigenvalues --   -0.45960  -0.45721  -0.45016  -0.44105  -0.43928
 Alpha  occ. eigenvalues --   -0.43362  -0.42918  -0.42472  -0.42398  -0.40955
 Alpha  occ. eigenvalues --   -0.40696  -0.40578  -0.40162  -0.39941  -0.39052
 Alpha  occ. eigenvalues --   -0.38851  -0.38062  -0.37631  -0.36036  -0.34474
 Alpha  occ. eigenvalues --   -0.33792  -0.32213  -0.31819  -0.30409  -0.29963
 Alpha  occ. eigenvalues --   -0.27600  -0.27211  -0.25114  -0.23736  -0.19386
 Alpha  occ. eigenvalues --   -0.17719  -0.16804
 Alpha virt. eigenvalues --   -0.16195  -0.15614  -0.14491  -0.13932  -0.11377
 Alpha virt. eigenvalues --   -0.10143  -0.08447  -0.08365  -0.07260  -0.06614
 Alpha virt. eigenvalues --   -0.05690  -0.05482  -0.04933  -0.04227  -0.03158

 Mulliken charges:
               1
     1  N   -0.740011
     2  H    0.310368
     3  H    0.323449
     4  C   -0.054560
     5  H    0.075952
     6  C    0.632001
     7  C   -0.232724
     8  H    0.163924
     9  H    0.130644
    10  O   -0.526920
    11  C   -0.377160
    12  H    0.139015
    13  H    0.115791
    14  C    0.571897
    15  O   -0.522676
    16  O   -0.563434
    17  N   -0.618573
    18  H    0.337622
    19  C   -0.040597
    20  H    0.189506
    21  C    0.596164
    22  C   -0.361717
    23  H    0.125918
    24  H    0.156310
    25  O   -0.560230
    26  C    0.076513
    27  C    0.027131
    28  H    0.143269
    29  C    0.091127
    30  C    0.334519
    31  C   -0.218736
    32  H    0.108334
    33  N   -0.691241
    34  H    0.335294
    35  C   -0.154666
    36  H    0.140603
    37  C   -0.147896
    38  H    0.139257
    39  C   -0.154402
    40  H    0.132254
    41  N   -0.625353
    42  H    0.381219
    43  C   -0.073624
    44  H    0.189678
    45  C    0.598252
    46  C    0.034962
    47  H    0.239491
    48  O   -0.492303
    49  C   -0.499811
    50  H    0.225637
    51  H    0.220911
    52  H    0.172721
    53  O   -0.551705
    54  H    0.486595
    55  N   -0.598562
    56  H    0.348524
    57  C   -0.053270
    58  H    0.220677
    59  C    0.585426
    60  C   -0.288335
    61  H    0.172699
    62  H    0.174871
    63  O   -0.460102
    64  C   -0.281549
    65  H    0.174383
    66  H    0.152460
    67  C   -0.192129
    68  H    0.187990
    69  H    0.201466
    70  N   -0.573050
    71  H    0.361380
    72  N   -0.731943
    73  H    0.376319
    74  H    0.370251
    75  N   -0.735753
    76  H    0.372685
    77  H    0.375358
    78  C    0.716044
    79  O   -0.547603
    80  H    0.432324
    81  H    0.501453
 Sum of Mulliken charges =   1.00000

 Dipole moment (field-independent basis, Debye):
    X=             42.3618    Y=             -2.3266    Z=            -50.5191  Tot=             65.9706
 Quadrupole moment (field-independent basis, Debye-Ang):
   XX=           -168.1861   YY=           -218.5746   ZZ=           -100.7326
   XY=             -5.1250   XZ=            -41.8939   YZ=             36.3401

 Normal termination of Gaussian 16 at Thu May 26 18:16:39 2022.
