 Gaussian 16, Revision C.01,
 Gaussian 16:  ES64L-G16RevC.01  3-Jul-2019

 -------------------------------------------------------------------
 # B3LYP/6-31G* guess=read geom=check nosymm integral(ultrafinegrid)
 -------------------------------------------------------------------

 ------------------------------------------------------
 Candidate Structure: Conf:669 Charge calc in gas phase
 ------------------------------------------------------
 Structure from the checkpoint file:  "conf-669.chk"
 Charge =  1 Multiplicity = 1

                          Input orientation:
 ---------------------------------------------------------------------
 Center     Atomic      Atomic             Coordinates (Angstroms)
 Number     Number       Type             X           Y           Z
 ---------------------------------------------------------------------
      1          7           0       -3.597787    3.186059    3.472854
      2          1           0       -3.303079    2.308969    3.896677
      3          1           0       -3.301687    3.947214    4.078481
      4          6           0       -2.996394    3.311458    2.156416
      5          1           0       -3.583025    4.035192    1.570045
      6          6           0       -3.078046    1.951283    1.453764
      7          6           0       -1.507229    3.765182    2.097817
      8          1           0       -1.177788    3.705965    1.051432
      9          1           0       -1.441796    4.827426    2.357732
     10          8           0       -3.098304    0.888607    2.064434
     11          6           0       -0.535595    2.955413    2.974246
     12          1           0       -0.884771    1.937178    3.158474
     13          1           0       -0.431544    3.440371    3.952075
     14          6           0        0.840236    2.883550    2.283910
     15          8           0        1.256737    3.875113    1.654052
     16          8           0        1.438654    1.751516    2.377278
     17          7           0       -3.049467    1.987836    0.070891
     18          1           0       -2.829031    2.878776   -0.354856
     19          6           0       -2.644500    0.781370   -0.650027
     20          1           0       -3.119247   -0.049563   -0.125547
     21          6           0       -1.106017    0.642907   -0.588538
     22          6           0       -3.097106    0.836127   -2.114588
     23          1           0       -2.674315   -0.038593   -2.631676
     24          1           0       -2.598758    1.697378   -2.586267
     25          8           0       -0.374941    1.442905   -1.179615
     26          6           0       -4.578986    0.920644   -2.336409
     27          6           0       -5.601116    0.755097   -1.433232
     28          1           0       -5.567811    0.548756   -0.373032
     29          6           0       -5.198137    1.197168   -3.610272
     30          6           0       -6.603396    1.177466   -3.406884
     31          6           0       -4.700044    1.472536   -4.896163
     32          1           0       -3.628673    1.494050   -5.085611
     33          7           0       -6.815664    0.903585   -2.070675
     34          1           0       -7.716532    0.824847   -1.624933
     35          6           0       -6.989762    1.681106   -5.703673
     36          1           0       -7.667094    1.867768   -6.531729
     37          6           0       -7.511833    1.415657   -4.443525
     38          1           0       -8.584506    1.393825   -4.272285
     39          6           0       -5.597654    1.711443   -5.928339
     40          1           0       -5.226505    1.920811   -6.927460
     41          7           0       -0.636622   -0.403967    0.145165
     42          1           0       -1.348527   -0.856158    0.707982
     43          6           0        0.724198   -0.625785    0.684876
     44          1           0        0.794066   -0.140995    1.663227
     45          6           0        1.826551   -0.035241   -0.195117
     46          6           0        0.981580   -2.152141    0.823475
     47          1           0        1.991962   -2.271368    1.226853
     48          8           0        2.075764   -0.597115   -1.356760
     49          6           0       -0.005063   -2.876568    1.729435
     50          1           0       -0.020753   -2.419121    2.723936
     51          1           0        0.294129   -3.923030    1.831250
     52          1           0       -1.027924   -2.861365    1.331217
     53          8           0        1.035946   -2.748985   -0.490615
     54          1           0        0.136701   -2.991933   -0.758754
     55          7           0        2.566624    0.911033    0.278434
     56          1           0        2.235592    1.356959    1.272438
     57          6           0        3.739207    1.503042   -0.366143
     58          1           0        3.898498    1.054293   -1.352536
     59          6           0        4.962582    1.173668    0.491394
     60          6           0        3.512708    3.029787   -0.509220
     61          1           0        4.400079    3.481296   -0.961326
     62          1           0        3.366246    3.448601    0.492678
     63          8           0        4.948787    0.528063    1.509947
     64          6           0        2.258720    3.266170   -1.346243
     65          1           0        2.448250    3.035418   -2.403165
     66          1           0        1.501093    2.565649   -1.002357
     67          6           0        1.614421    4.641726   -1.207477
     68          1           0        1.540374    4.891631   -0.142975
     69          1           0        2.151325    5.422488   -1.758410
     70          7           0        0.251372    4.510655   -1.777109
     71          1           0       -0.104672    3.554877   -1.834932
     72          7           0       -0.247702    6.774131   -1.735054
     73          1           0       -0.853580    7.548683   -1.962439
     74          1           0        0.503027    6.952845   -1.082918
     75          7           0       -1.767833    5.254673   -2.638342
     76          1           0       -1.909992    4.381947   -3.127469
     77          1           0       -2.418360    5.998920   -2.844730
     78          6           0       -0.578812    5.509132   -2.043666
     79          8           0        6.074317    1.701525   -0.061309
     80          1           0        6.820593    1.465240    0.522040
     81          1           0        1.644742   -1.516616   -1.350574
 ---------------------------------------------------------------------

 SCF Done:  E(RB3LYP) =  -2053.91038247     A.U. after    1 cycles

 Alpha  occ. eigenvalues --  -19.30302 -19.29591 -19.28352 -19.24412 -19.22754
 Alpha  occ. eigenvalues --  -19.21309 -19.17114 -19.15867 -14.52416 -14.52387
 Alpha  occ. eigenvalues --  -14.51149 -14.48846 -14.47439 -14.45859 -14.45150
 Alpha  occ. eigenvalues --  -14.38020 -10.48334 -10.43144 -10.41078 -10.41014
 Alpha  occ. eigenvalues --  -10.37782 -10.37309 -10.35866 -10.34295 -10.34128
 Alpha  occ. eigenvalues --  -10.34099 -10.33496 -10.30288 -10.29734 -10.29547
 Alpha  occ. eigenvalues --  -10.29455 -10.28902 -10.28315 -10.28292 -10.26365
 Alpha  occ. eigenvalues --  -10.26143 -10.25754 -10.25715 -10.25563 -10.25153
 Alpha  occ. eigenvalues --  -10.24958 -10.24643  -1.21043  -1.19332  -1.16703
 Alpha  occ. eigenvalues --   -1.16200  -1.15755  -1.13058  -1.10587  -1.09718
 Alpha  occ. eigenvalues --   -1.05883  -1.05530  -1.05310  -1.05105  -1.04546
 Alpha  occ. eigenvalues --   -1.02217  -1.00727  -0.95895  -0.91899  -0.90875
 Alpha  occ. eigenvalues --   -0.90262  -0.89083  -0.87156  -0.85208  -0.84147
 Alpha  occ. eigenvalues --   -0.83022  -0.80510  -0.80385  -0.79117  -0.77530
 Alpha  occ. eigenvalues --   -0.77436  -0.76015  -0.74897  -0.74467  -0.73468
 Alpha  occ. eigenvalues --   -0.71634  -0.71286  -0.69845  -0.69516  -0.69312
 Alpha  occ. eigenvalues --   -0.68764  -0.66977  -0.66250  -0.65555  -0.64905
 Alpha  occ. eigenvalues --   -0.64635  -0.64457  -0.63754  -0.63214  -0.61578
 Alpha  occ. eigenvalues --   -0.60941  -0.60450  -0.60426  -0.59625  -0.59382
 Alpha  occ. eigenvalues --   -0.58896  -0.58111  -0.57798  -0.57124  -0.56808
 Alpha  occ. eigenvalues --   -0.56213  -0.56034  -0.55374  -0.54708  -0.54456
 Alpha  occ. eigenvalues --   -0.54147  -0.53838  -0.53478  -0.52834  -0.52524
 Alpha  occ. eigenvalues --   -0.52029  -0.51622  -0.51050  -0.50687  -0.50398
 Alpha  occ. eigenvalues --   -0.50172  -0.50007  -0.49912  -0.49573  -0.49307
 Alpha  occ. eigenvalues --   -0.48971  -0.48554  -0.48264  -0.48111  -0.47871
 Alpha  occ. eigenvalues --   -0.46957  -0.46751  -0.46360  -0.45747  -0.45347
 Alpha  occ. eigenvalues --   -0.45095  -0.44720  -0.44423  -0.44157  -0.43758
 Alpha  occ. eigenvalues --   -0.43501  -0.42398  -0.42212  -0.41599  -0.41083
 Alpha  occ. eigenvalues --   -0.40649  -0.40450  -0.40282  -0.40048  -0.39666
 Alpha  occ. eigenvalues --   -0.38719  -0.38273  -0.36230  -0.35526  -0.34315
 Alpha  occ. eigenvalues --   -0.34152  -0.32377  -0.31734  -0.30391  -0.29731
 Alpha  occ. eigenvalues --   -0.29239  -0.27507
 Alpha virt. eigenvalues --   -0.12405  -0.12082  -0.10446  -0.09518  -0.08043
 Alpha virt. eigenvalues --   -0.07807  -0.07277  -0.05717  -0.05128  -0.04256
 Alpha virt. eigenvalues --   -0.03850  -0.02557  -0.02076  -0.01816  -0.01287

 Mulliken charges:
               1
     1  N   -0.716324
     2  H    0.326246
     3  H    0.304485
     4  C   -0.059929
     5  H    0.135631
     6  C    0.626255
     7  C   -0.282537
     8  H    0.113988
     9  H    0.150514
    10  O   -0.530621
    11  C   -0.351141
    12  H    0.157663
    13  H    0.167855
    14  C    0.589025
    15  O   -0.563797
    16  O   -0.624836
    17  N   -0.578326
    18  H    0.320039
    19  C   -0.081698
    20  H    0.180692
    21  C    0.656668
    22  C   -0.351811
    23  H    0.166589
    24  H    0.120749
    25  O   -0.550592
    26  C    0.066856
    27  C    0.006216
    28  H    0.170485
    29  C    0.077488
    30  C    0.316979
    31  C   -0.223702
    32  H    0.107293
    33  N   -0.698051
    34  H    0.339331
    35  C   -0.151842
    36  H    0.140632
    37  C   -0.158848
    38  H    0.139204
    39  C   -0.138002
    40  H    0.130780
    41  N   -0.640830
    42  H    0.367247
    43  C   -0.088235
    44  H    0.255097
    45  C    0.643089
    46  C    0.087722
    47  H    0.206715
    48  O   -0.595914
    49  C   -0.499385
    50  H    0.201490
    51  H    0.204224
    52  H    0.151531
    53  O   -0.637261
    54  H    0.424097
    55  N   -0.562022
    56  H    0.456620
    57  C   -0.093333
    58  H    0.206249
    59  C    0.600657
    60  C   -0.289231
    61  H    0.176429
    62  H    0.205922
    63  O   -0.437467
    64  C   -0.342782
    65  H    0.152343
    66  H    0.211429
    67  C   -0.158837
    68  H    0.246442
    69  H    0.166284
    70  N   -0.626577
    71  H    0.388147
    72  N   -0.757168
    73  H    0.378901
    74  H    0.399502
    75  N   -0.773540
    76  H    0.387543
    77  H    0.378675
    78  C    0.821746
    79  O   -0.562738
    80  H    0.429215
    81  H    0.468399
 Sum of Mulliken charges =   1.00000

 Dipole moment (field-independent basis, Debye):
    X=             -4.2230    Y=             14.2457    Z=             -9.1014  Tot=             17.4243
 Quadrupole moment (field-independent basis, Debye-Ang):
   XX=           -182.1828   YY=           -109.2566   ZZ=           -227.5604
   XY=            -15.7393   XZ=             12.7176   YZ=            -47.7504

 Normal termination of Gaussian 16 at Thu May 26 18:16:38 2022.
