 Gaussian 16, Revision C.01,
 Gaussian 16:  ES64L-G16RevC.01  3-Jul-2019

 -------------------------------------------------------------------
 # B3LYP/6-31G* guess=read geom=check nosymm integral(ultrafinegrid)
 -------------------------------------------------------------------

 ------------------------------------------------------
 Candidate Structure: Conf:578 Charge calc in gas phase
 ------------------------------------------------------
 Structure from the checkpoint file:  "conf-578.chk"
 Charge =  1 Multiplicity = 1

                          Input orientation:
 ---------------------------------------------------------------------
 Center     Atomic      Atomic             Coordinates (Angstroms)
 Number     Number       Type             X           Y           Z
 ---------------------------------------------------------------------
      1          7           0       -5.477315    0.631514   -3.761603
      2          1           0       -5.725810    1.255823   -4.534011
      3          1           0       -5.786785   -0.341252   -4.011591
      4          1           0       -5.916944    0.979362   -2.896093
      5          6           0       -3.982362    0.474690   -3.582910
      6          1           0       -3.493363    1.380703   -3.945043
      7          6           0       -3.648153   -0.771255   -4.428624
      8          6           0       -3.666668    0.241790   -2.085387
      9          1           0       -4.104979   -0.716030   -1.781639
     10          1           0       -2.581674    0.132377   -2.011457
     11          8           0       -4.566414   -1.565633   -4.666379
     12          6           0       -4.180752    1.377553   -1.227763
     13          6           0       -3.471713    2.586570   -1.153237
     14          1           0       -2.515712    2.676044   -1.664574
     15          6           0       -5.399883    1.263776   -0.539992
     16          1           0       -5.933450    0.313665   -0.538738
     17          6           0       -3.972612    3.655138   -0.411568
     18          1           0       -3.408675    4.581671   -0.352591
     19          6           0       -5.904157    2.338569    0.200867
     20          1           0       -6.841648    2.231070    0.738772
     21          6           0       -5.192595    3.535748    0.262077
     22          1           0       -5.578477    4.369775    0.840669
     23          7           0       -2.374667   -0.878537   -4.818933
     24          1           0       -1.707241   -0.216539   -4.409647
     25          6           0       -1.785985   -2.161757   -5.184758
     26          1           0       -2.581019   -2.804965   -5.576078
     27          6           0       -1.198437   -2.755170   -3.870228
     28          6           0       -0.714333   -1.931051   -6.271520
     29          1           0       -1.187476   -1.428481   -7.119985
     30          1           0       -0.331102   -2.893126   -6.638124
     31          8           0       -1.471376   -2.251656   -2.786269
     32          8           0        0.340434   -1.097396   -5.823062
     33          1           0        0.995460   -1.627451   -5.310113
     34          7           0       -0.300667   -3.770114   -3.982108
     35          1           0       -0.083160   -4.165265   -4.886424
     36          6           0        0.708892   -3.928388   -2.931393
     37          1           0        0.198655   -4.086941   -1.978413
     38          6           0        1.538644   -2.621783   -2.934189
     39          6           0        1.617665   -5.116139   -3.246241
     40          1           0        2.326649   -5.236506   -2.413146
     41          1           0        2.200764   -4.886414   -4.151243
     42          8           0        2.047602   -2.239923   -3.998649
     43          8           0        0.792796   -6.254617   -3.419424
     44          1           0        1.364133   -7.020261   -3.584821
     45          7           0        1.614439   -1.927619   -1.788278
     46          1           0        1.271685   -2.312157   -0.911427
     47          6           0        2.330546   -0.667702   -1.643652
     48          1           0        3.088333   -0.612479   -2.428101
     49          6           0        2.967540   -0.686426   -0.234380
     50          6           0        1.393822    0.574244   -1.742299
     51          1           0        0.656476    0.550023   -0.936511
     52          1           0        2.009758    1.473848   -1.620291
     53          8           0        2.498197   -1.421874    0.639958
     54          6           0        0.648671    0.679139   -3.056470
     55          8           0       -0.573546    0.727043   -3.148176
     56          8           0        1.460767    0.712942   -4.108759
     57          7           0        3.998600    0.150802   -0.062741
     58          1           0        4.263342    0.855183   -0.756933
     59          6           0        4.590710    0.456058    1.232973
     60          1           0        3.775365    0.612017    1.952943
     61          6           0        5.311771    1.838186    1.047172
     62          6           0        5.492323   -0.706860    1.758606
     63          1           0        6.550919   -0.428506    1.678840
     64          1           0        5.346535   -1.549652    1.078518
     65          8           0        5.950009    2.261176    2.073479
     66          6           0        5.169102   -1.204852    3.189878
     67          1           0        5.358670   -2.283011    3.247612
     68          1           0        4.097869   -1.072082    3.381387
     69          6           0        5.984328   -0.563201    4.326346
     70          1           0        5.569340   -0.880772    5.292713
     71          1           0        7.024159   -0.917226    4.282364
     72          7           0        5.966829    0.888439    4.218658
     73          1           0        5.962793    1.338934    3.225522
     74          7           0        6.332759    1.471591    6.470153
     75          1           0        6.059836    2.126679    7.189128
     76          1           0        6.362847    0.501417    6.745817
     77          7           0        5.929282    3.092673    4.843767
     78          1           0        5.876133    3.278553    3.838396
     79          1           0        6.426713    3.778987    5.394839
     80          6           0        6.080983    1.783141    5.173206
     81          8           0        5.190089    2.403821   -0.044782
     82          1           0        0.937011    0.516202   -4.920132
 ---------------------------------------------------------------------

 SCF Done:  E(RB3LYP) =  -2166.28744817     A.U. after    2 cycles

 Alpha  occ. eigenvalues --  -19.27106 -19.24435 -19.23601 -19.23213 -19.22700
 Alpha  occ. eigenvalues --  -19.20947 -19.20504 -19.18385 -19.15142 -19.14058
 Alpha  occ. eigenvalues --  -14.57901 -14.46650 -14.46648 -14.45057 -14.44872
 Alpha  occ. eigenvalues --  -14.44327 -14.43365 -14.41378 -10.41378 -10.41131
 Alpha  occ. eigenvalues --  -10.41123 -10.38197 -10.38028 -10.37793 -10.35433
 Alpha  occ. eigenvalues --  -10.33418 -10.33247 -10.32548 -10.32180 -10.32152
 Alpha  occ. eigenvalues --  -10.31917 -10.30848 -10.30710 -10.30239 -10.29269
 Alpha  occ. eigenvalues --  -10.28778 -10.28688 -10.28653 -10.28594 -10.28400
 Alpha  occ. eigenvalues --  -10.27849 -10.25847 -10.24887  -1.18876  -1.16819
 Alpha  occ. eigenvalues --   -1.13564  -1.12201  -1.11783  -1.10805  -1.10213
 Alpha  occ. eigenvalues --   -1.10146  -1.10021  -1.09782  -1.07865  -1.03735
 Alpha  occ. eigenvalues --   -1.01249  -1.01058  -1.00402  -0.99058  -0.98191
 Alpha  occ. eigenvalues --   -0.97730  -0.95747  -0.91029  -0.87927  -0.86810
 Alpha  occ. eigenvalues --   -0.85971  -0.84684  -0.84172  -0.83158  -0.80711
 Alpha  occ. eigenvalues --   -0.77710  -0.77319  -0.74581  -0.74162  -0.72210
 Alpha  occ. eigenvalues --   -0.71956  -0.71613  -0.71440  -0.70068  -0.69714
 Alpha  occ. eigenvalues --   -0.68810  -0.68292  -0.68223  -0.67328  -0.66861
 Alpha  occ. eigenvalues --   -0.66739  -0.64444  -0.63836  -0.63078  -0.62850
 Alpha  occ. eigenvalues --   -0.61382  -0.60752  -0.60562  -0.60464  -0.59482
 Alpha  occ. eigenvalues --   -0.59411  -0.58460  -0.57702  -0.57617  -0.56654
 Alpha  occ. eigenvalues --   -0.56332  -0.56102  -0.55929  -0.55655  -0.55461
 Alpha  occ. eigenvalues --   -0.55148  -0.54785  -0.54255  -0.53746  -0.53571
 Alpha  occ. eigenvalues --   -0.52566  -0.52191  -0.51965  -0.51694  -0.51615
 Alpha  occ. eigenvalues --   -0.51315  -0.50950  -0.50623  -0.50457  -0.49479
 Alpha  occ. eigenvalues --   -0.49032  -0.48918  -0.48542  -0.48416  -0.48185
 Alpha  occ. eigenvalues --   -0.47816  -0.47362  -0.46345  -0.46021  -0.45872
 Alpha  occ. eigenvalues --   -0.45653  -0.45465  -0.45198  -0.45137  -0.43950
 Alpha  occ. eigenvalues --   -0.43796  -0.43620  -0.42449  -0.42101  -0.41938
 Alpha  occ. eigenvalues --   -0.41240  -0.41128  -0.40137  -0.39694  -0.39105
 Alpha  occ. eigenvalues --   -0.38049  -0.37402  -0.37096  -0.36349  -0.35615
 Alpha  occ. eigenvalues --   -0.35438  -0.35034  -0.34930  -0.34565  -0.34360
 Alpha  occ. eigenvalues --   -0.34063  -0.33149  -0.32412  -0.31839  -0.30299
 Alpha  occ. eigenvalues --   -0.29622  -0.28345
 Alpha virt. eigenvalues --   -0.11393  -0.10761  -0.09270  -0.08830  -0.08016
 Alpha virt. eigenvalues --   -0.07880  -0.06671  -0.06324  -0.03908  -0.02860
 Alpha virt. eigenvalues --   -0.02205  -0.01624  -0.00234   0.00100   0.00234

 Mulliken charges:
               1
     1  N   -0.747671
     2  H    0.411495
     3  H    0.421812
     4  H    0.402135
     5  C   -0.126479
     6  H    0.213705
     7  C    0.646943
     8  C   -0.391809
     9  H    0.188065
    10  H    0.255081
    11  O   -0.539046
    12  C    0.136217
    13  C   -0.185811
    14  H    0.158838
    15  C   -0.232659
    16  H    0.145304
    17  C   -0.124459
    18  H    0.160144
    19  C   -0.122293
    20  H    0.159405
    21  C   -0.125649
    22  H    0.160723
    23  N   -0.593243
    24  H    0.401826
    25  C   -0.114087
    26  H    0.210264
    27  C    0.621558
    28  C   -0.055953
    29  H    0.177694
    30  H    0.146980
    31  O   -0.516650
    32  O   -0.677048
    33  H    0.461306
    34  N   -0.586623
    35  H    0.343591
    36  C   -0.038053
    37  H    0.188060
    38  C    0.623195
    39  C   -0.063608
    40  H    0.154872
    41  H    0.153260
    42  O   -0.573757
    43  O   -0.613628
    44  H    0.410608
    45  N   -0.581448
    46  H    0.363368
    47  C   -0.075138
    48  H    0.212854
    49  C    0.617779
    50  C   -0.344475
    51  H    0.184397
    52  H    0.207459
    53  O   -0.551461
    54  C    0.590804
    55  O   -0.505391
    56  O   -0.544664
    57  N   -0.620560
    58  H    0.361117
    59  C   -0.056005
    60  H    0.161172
    61  C    0.614279
    62  C   -0.294529
    63  H    0.162326
    64  H    0.169676
    65  O   -0.644062
    66  C   -0.279695
    67  H    0.154790
    68  H    0.168547
    69  C   -0.152846
    70  H    0.143029
    71  H    0.173695
    72  N   -0.624523
    73  H    0.455460
    74  N   -0.758720
    75  H    0.364274
    76  H    0.367537
    77  N   -0.774364
    78  H    0.403238
    79  H    0.351725
    80  C    0.752546
    81  O   -0.540894
    82  H    0.444147
 Sum of Mulliken charges =   1.00000

 Dipole moment (field-independent basis, Debye):
    X=             -6.2876    Y=             -0.1390    Z=             -0.8152  Tot=              6.3417
 Quadrupole moment (field-independent basis, Debye-Ang):
   XX=           -111.0968   YY=           -203.3162   ZZ=            -98.2536
   XY=            -41.9380   XZ=            125.2081   YZ=             34.8983

 Normal termination of Gaussian 16 at Thu May 26 21:35:45 2022.
