 Gaussian 16, Revision C.01,
 Gaussian 16:  ES64L-G16RevC.01  3-Jul-2019

 -------------------------------------------------------------------
 # B3LYP/6-31G* guess=read geom=check nosymm integral(ultrafinegrid)
 -------------------------------------------------------------------

 ------------------------------------------------------
 Candidate Structure: Conf:306 Charge calc in gas phase
 ------------------------------------------------------
 Structure from the checkpoint file:  "conf-306.chk"
 Charge =  1 Multiplicity = 1

                          Input orientation:
 ---------------------------------------------------------------------
 Center     Atomic      Atomic             Coordinates (Angstroms)
 Number     Number       Type             X           Y           Z
 ---------------------------------------------------------------------
      1          7           0       -5.922964   -2.578803   -3.853043
      2          1           0       -6.381560   -2.630964   -4.766397
      3          1           0       -5.304989   -3.427862   -3.739373
      4          1           0       -6.648173   -2.512461   -3.122268
      5          6           0       -4.940209   -1.434652   -3.747907
      6          1           0       -5.179352   -0.711003   -4.530199
      7          6           0       -3.572418   -2.123203   -3.968726
      8          6           0       -5.028011   -0.782834   -2.341239
      9          1           0       -4.556584   -1.451615   -1.613871
     10          1           0       -4.405358    0.117159   -2.367095
     11          8           0       -3.532731   -3.356673   -3.910210
     12          6           0       -6.453446   -0.455298   -1.950244
     13          6           0       -7.110986    0.665510   -2.480282
     14          1           0       -6.574601    1.347100   -3.137370
     15          6           0       -7.159903   -1.308069   -1.085809
     16          1           0       -6.649617   -2.152989   -0.625637
     17          6           0       -8.440124    0.928103   -2.152199
     18          1           0       -8.932180    1.806847   -2.558725
     19          6           0       -8.495649   -1.047021   -0.761331
     20          1           0       -9.024001   -1.707604   -0.080205
     21          6           0       -9.136795    0.069534   -1.296038
     22          1           0      -10.171029    0.278734   -1.039916
     23          7           0       -2.522700   -1.324843   -4.187822
     24          1           0       -2.623629   -0.318468   -4.076386
     25          6           0       -1.164300   -1.777596   -3.926304
     26          1           0       -0.959162   -2.683757   -4.505049
     27          6           0       -1.010180   -2.070931   -2.406525
     28          6           0       -0.210949   -0.640336   -4.368348
     29          1           0       -0.225900   -0.563322   -5.459086
     30          1           0        0.811633   -0.865771   -4.045069
     31          8           0       -1.857190   -1.705297   -1.601483
     32          8           0       -0.651712    0.619376   -3.871114
     33          1           0       -0.528163    0.644842   -2.888573
     34          7           0        0.149679   -2.707193   -2.083794
     35          1           0        0.839412   -2.781859   -2.825289
     36          6           0        0.776066   -2.524733   -0.778592
     37          1           0       -0.001197   -2.181695   -0.091310
     38          6           0        1.860330   -1.439644   -0.967550
     39          6           0        1.377910   -3.827425   -0.241599
     40          1           0        1.949074   -3.597241    0.672196
     41          1           0        2.088320   -4.229296   -0.981895
     42          8           0        2.359447   -1.250512   -2.079952
     43          8           0        0.310261   -4.718369    0.012594
     44          1           0        0.684790   -5.569774    0.285453
     45          7           0        2.209021   -0.717913    0.118951
     46          1           0        1.776454   -0.855038    1.026351
     47          6           0        3.071432    0.442801    0.010773
     48          1           0        3.798595    0.249900   -0.780949
     49          6           0        3.750009    0.639773    1.379429
     50          6           0        2.276519    1.749889   -0.325037
     51          1           0        1.680578    2.021825    0.551316
     52          1           0        2.983424    2.554317   -0.544261
     53          8           0        3.161703    0.292722    2.406874
     54          6           0        1.314562    1.567120   -1.474419
     55          8           0        0.220078    1.030596   -1.337577
     56          8           0        1.763367    2.029540   -2.643205
     57          7           0        4.959408    1.227413    1.338812
     58          1           0        5.326722    1.598341    0.464894
     59          6           0        5.651963    1.748836    2.511797
     60          1           0        4.900446    1.984824    3.266611
     61          6           0        6.353016    3.046847    2.074379
     62          6           0        6.689630    0.754477    3.096397
     63          1           0        7.480890    1.321894    3.599348
     64          1           0        7.163993    0.242584    2.250861
     65          8           0        6.836958    3.791424    3.056309
     66          6           0        6.116590   -0.274646    4.081232
     67          1           0        6.851652   -1.081515    4.201675
     68          1           0        5.209504   -0.734387    3.671364
     69          6           0        5.831735    0.270356    5.491497
     70          1           0        5.661421   -0.580056    6.164685
     71          1           0        6.700257    0.817098    5.868550
     72          7           0        4.684412    1.164286    5.624166
     73          1           0        3.768272    0.778973    5.437379
     74          7           0        5.826394    3.195441    5.515009
     75          1           0        5.777907    4.138993    5.899070
     76          1           0        6.547637    3.451009    3.966338
     77          7           0        3.570551    3.062300    6.285808
     78          1           0        3.083098    2.534948    6.999983
     79          1           0        3.577577    4.059539    6.453799
     80          6           0        4.756145    2.517035    5.811747
     81          8           0        6.476639    3.332346    0.897796
     82          1           0        1.091676    1.827093   -3.332230
 ---------------------------------------------------------------------

 SCF Done:  E(RB3LYP) =  -2166.27626828     A.U. after    2 cycles

 Alpha  occ. eigenvalues --  -19.28099 -19.25911 -19.24545 -19.23234 -19.22253
 Alpha  occ. eigenvalues --  -19.21991 -19.21235 -19.20485 -19.19654 -19.17996
 Alpha  occ. eigenvalues --  -14.58724 -14.48439 -14.44761 -14.44669 -14.43381
 Alpha  occ. eigenvalues --  -14.42245 -14.41948 -14.36594 -10.42631 -10.41389
 Alpha  occ. eigenvalues --  -10.39860 -10.38157 -10.37636 -10.36866 -10.36347
 Alpha  occ. eigenvalues --  -10.36298 -10.33918 -10.33580 -10.32732 -10.32697
 Alpha  occ. eigenvalues --  -10.32045 -10.31820 -10.31589 -10.30373 -10.30111
 Alpha  occ. eigenvalues --  -10.29826 -10.29744 -10.29507 -10.29484 -10.28919
 Alpha  occ. eigenvalues --  -10.28152 -10.25029 -10.24523  -1.19443  -1.18383
 Alpha  occ. eigenvalues --   -1.13683  -1.13513  -1.12823  -1.12383  -1.11550
 Alpha  occ. eigenvalues --   -1.11226  -1.10190  -1.09792  -1.05760  -1.05104
 Alpha  occ. eigenvalues --   -1.05083  -1.01593  -1.01106  -0.99905  -0.97006
 Alpha  occ. eigenvalues --   -0.95855  -0.92363  -0.91591  -0.88474  -0.87490
 Alpha  occ. eigenvalues --   -0.85720  -0.85400  -0.85209  -0.83524  -0.80804
 Alpha  occ. eigenvalues --   -0.78737  -0.77614  -0.74954  -0.73712  -0.73175
 Alpha  occ. eigenvalues --   -0.72794  -0.72359  -0.71197  -0.71022  -0.69556
 Alpha  occ. eigenvalues --   -0.69120  -0.68286  -0.67423  -0.66860  -0.66704
 Alpha  occ. eigenvalues --   -0.65334  -0.65209  -0.64373  -0.63415  -0.62276
 Alpha  occ. eigenvalues --   -0.61983  -0.61354  -0.60985  -0.60874  -0.60081
 Alpha  occ. eigenvalues --   -0.59447  -0.58563  -0.57959  -0.57166  -0.56979
 Alpha  occ. eigenvalues --   -0.56812  -0.56357  -0.56105  -0.55648  -0.55383
 Alpha  occ. eigenvalues --   -0.54888  -0.54242  -0.53902  -0.53592  -0.53143
 Alpha  occ. eigenvalues --   -0.53064  -0.52816  -0.52435  -0.52159  -0.51770
 Alpha  occ. eigenvalues --   -0.51481  -0.51125  -0.51005  -0.50618  -0.50373
 Alpha  occ. eigenvalues --   -0.49893  -0.49611  -0.49021  -0.48683  -0.48035
 Alpha  occ. eigenvalues --   -0.47590  -0.47279  -0.47032  -0.46859  -0.46267
 Alpha  occ. eigenvalues --   -0.46001  -0.45611  -0.45223  -0.45030  -0.44882
 Alpha  occ. eigenvalues --   -0.44872  -0.43900  -0.43314  -0.42571  -0.41470
 Alpha  occ. eigenvalues --   -0.41407  -0.40568  -0.40413  -0.40345  -0.40106
 Alpha  occ. eigenvalues --   -0.39174  -0.38063  -0.37006  -0.36181  -0.35712
 Alpha  occ. eigenvalues --   -0.35583  -0.35312  -0.35228  -0.35161  -0.34813
 Alpha  occ. eigenvalues --   -0.34382  -0.33608  -0.33353  -0.32718  -0.32647
 Alpha  occ. eigenvalues --   -0.31675  -0.29829
 Alpha virt. eigenvalues --   -0.12570  -0.11845  -0.10332  -0.09207  -0.08963
 Alpha virt. eigenvalues --   -0.07607  -0.06802  -0.04909  -0.04390  -0.03292
 Alpha virt. eigenvalues --   -0.02839  -0.02136  -0.01339  -0.00688  -0.00162

 Mulliken charges:
               1
     1  N   -0.751934
     2  H    0.413100
     3  H    0.428322
     4  H    0.404321
     5  C   -0.123067
     6  H    0.210210
     7  C    0.672684
     8  C   -0.384601
     9  H    0.224402
    10  H    0.203750
    11  O   -0.531340
    12  C    0.132717
    13  C   -0.181640
    14  H    0.143777
    15  C   -0.229296
    16  H    0.155367
    17  C   -0.122650
    18  H    0.165274
    19  C   -0.120423
    20  H    0.165334
    21  C   -0.124761
    22  H    0.166856
    23  N   -0.585171
    24  H    0.362552
    25  C   -0.106469
    26  H    0.199871
    27  C    0.633754
    28  C   -0.087888
    29  H    0.178982
    30  H    0.190140
    31  O   -0.525010
    32  O   -0.675224
    33  H    0.448616
    34  N   -0.561088
    35  H    0.342742
    36  C   -0.104231
    37  H    0.205922
    38  C    0.634136
    39  C   -0.019957
    40  H    0.139816
    41  H    0.139444
    42  O   -0.550521
    43  O   -0.606654
    44  H    0.406078
    45  N   -0.598621
    46  H    0.355483
    47  C   -0.066025
    48  H    0.203752
    49  C    0.625958
    50  C   -0.335605
    51  H    0.196517
    52  H    0.200394
    53  O   -0.553042
    54  C    0.606210
    55  O   -0.506099
    56  O   -0.552841
    57  N   -0.603336
    58  H    0.357706
    59  C   -0.086357
    60  H    0.194223
    61  C    0.601244
    62  C   -0.270444
    63  H    0.168454
    64  H    0.156121
    65  O   -0.603343
    66  C   -0.277431
    67  H    0.146802
    68  H    0.160617
    69  C   -0.131525
    70  H    0.152346
    71  H    0.186211
    72  N   -0.592469
    73  H    0.340756
    74  N   -0.727055
    75  H    0.296053
    76  H    0.469756
    77  N   -0.753284
    78  H    0.337658
    79  H    0.337435
    80  C    0.641796
    81  O   -0.481421
    82  H    0.427165
 Sum of Mulliken charges =   1.00000

 Dipole moment (field-independent basis, Debye):
    X=            -18.0470    Y=             -7.1773    Z=             -5.5971  Tot=             20.2122
 Quadrupole moment (field-independent basis, Debye-Ang):
   XX=            -98.2339   YY=           -219.1593   ZZ=           -131.3164
   XY=              8.5470   XZ=            102.6261   YZ=             37.3658

 Normal termination of Gaussian 16 at Thu May 26 21:35:40 2022.
