 Gaussian 16, Revision C.01,
 Gaussian 16:  ES64L-G16RevC.01  3-Jul-2019

 -------------------------------------------------------------------
 # B3LYP/6-31G* guess=read geom=check nosymm integral(ultrafinegrid)
 -------------------------------------------------------------------

 ------------------------------------------------------
 Candidate Structure: Conf:684 Charge calc in gas phase
 ------------------------------------------------------
 Structure from the checkpoint file:  "conf-684.chk"
 Charge =  1 Multiplicity = 1

                          Input orientation:
 ---------------------------------------------------------------------
 Center     Atomic      Atomic             Coordinates (Angstroms)
 Number     Number       Type             X           Y           Z
 ---------------------------------------------------------------------
      1          7           0       -3.782168    1.565886   -6.988162
      2          1           0       -2.983193    2.107663   -7.329607
      3          1           0       -3.652134    0.561456   -7.286818
      4          1           0       -4.649035    1.986110   -7.356460
      5          6           0       -3.820901    1.462432   -5.480919
      6          1           0       -3.250214    2.297288   -5.068947
      7          6           0       -3.147767    0.092285   -5.207335
      8          6           0       -5.290032    1.504069   -4.990618
      9          1           0       -5.783529    0.570706   -5.286926
     10          1           0       -5.261891    1.512736   -3.895794
     11          8           0       -3.063583   -0.699925   -6.157066
     12          6           0       -6.045246    2.700258   -5.532264
     13          6           0       -6.906118    2.552400   -6.632199
     14          1           0       -7.104200    1.560112   -7.035494
     15          6           0       -5.856140    3.978896   -4.986334
     16          1           0       -5.205974    4.109707   -4.123753
     17          6           0       -7.562091    3.661521   -7.176962
     18          1           0       -8.236006    3.529846   -8.018266
     19          6           0       -6.514143    5.082552   -5.526839
     20          1           0       -6.369339    6.064667   -5.086564
     21          6           0       -7.364414    4.926873   -6.626028
     22          1           0       -7.877979    5.788276   -7.042093
     23          7           0       -2.750504   -0.128895   -3.959820
     24          1           0       -2.857672    0.564624   -3.217709
     25          6           0       -2.121851   -1.356255   -3.483068
     26          1           0       -2.671702   -2.227127   -3.852845
     27          6           0       -2.163386   -1.271646   -1.952947
     28          6           0       -0.639036   -1.460564   -3.974137
     29          1           0       -0.105181   -0.555910   -3.655499
     30          1           0       -0.660921   -1.495625   -5.067741
     31          8           0       -2.447801   -0.195556   -1.407172
     32          8           0       -0.025598   -2.631494   -3.501281
     33          1           0        0.420929   -2.392435   -2.658349
     34          7           0       -1.840915   -2.408720   -1.302530
     35          1           0       -1.449471   -3.151181   -1.880105
     36          6           0       -1.314977   -2.378566    0.056396
     37          1           0       -1.953615   -1.732123    0.665056
     38          6           0        0.108904   -1.755448    0.022921
     39          6           0       -1.325189   -3.796278    0.628406
     40          1           0       -2.365291   -4.146036    0.700531
     41          1           0       -0.893915   -3.786577    1.639867
     42          8           0        0.690751   -1.542271   -1.046183
     43          8           0       -0.562476   -4.591223   -0.265985
     44          1           0       -0.589126   -5.514857    0.025609
     45          7           0        0.629650   -1.409119    1.212061
     46          1           0        0.132332   -1.555387    2.084956
     47          6           0        1.782478   -0.528575    1.330443
     48          1           0        2.456269   -0.740082    0.498393
     49          6           0        2.429444   -0.831839    2.694444
     50          6           0        1.375369    0.983793    1.302637
     51          1           0        0.919773    1.235128    2.265873
     52          1           0        2.273422    1.589545    1.160139
     53          8           0        1.716968   -1.210327    3.631771
     54          6           0        0.384190    1.303371    0.198012
     55          8           0        0.649305    1.751519   -0.894642
     56          8           0       -0.874009    0.984359    0.589637
     57          7           0        3.749599   -0.622087    2.771549
     58          1           0        4.294919   -0.197017    2.017482
     59          6           0        4.504410   -0.654581    4.015916
     60          1           0        3.969905   -0.042224    4.755636
     61          6           0        5.860725    0.072687    3.712835
     62          6           0        4.646790   -2.101100    4.589641
     63          1           0        5.691771   -2.430475    4.526256
     64          1           0        4.076342   -2.764006    3.934622
     65          8           0        6.677953    0.131129    4.701363
     66          6           0        4.107946   -2.286875    6.027489
     67          1           0        3.760576   -3.319325    6.154543
     68          1           0        3.227672   -1.647126    6.157841
     69          6           0        5.122147   -2.029027    7.158165
     70          1           0        4.595227   -2.001108    8.120691
     71          1           0        5.843343   -2.856069    7.205600
     72          7           0        5.853019   -0.788108    6.939361
     73          1           0        6.186558   -0.552531    5.928129
     74          7           0        6.043458    0.023756    9.145476
     75          1           0        5.935497    0.861439    9.699727
     76          1           0        5.621743   -0.811895    9.521868
     77          7           0        6.667603    1.319786    7.313930
     78          1           0        6.836386    1.325413    6.302351
     79          1           0        7.330812    1.827569    7.883530
     80          6           0        6.175171    0.150952    7.799264
     81          8           0        6.022279    0.537961    2.581228
     82          1           0       -1.454677    0.968990   -0.200776
 ---------------------------------------------------------------------

 SCF Done:  E(RB3LYP) =  -2166.28137435     A.U. after    1 cycles

 Alpha  occ. eigenvalues --  -19.25979 -19.23982 -19.23403 -19.22699 -19.21117
 Alpha  occ. eigenvalues --  -19.20008 -19.18868 -19.16998 -19.14096 -19.13035
 Alpha  occ. eigenvalues --  -14.59183 -14.49008 -14.45810 -14.45098 -14.43391
 Alpha  occ. eigenvalues --  -14.43354 -14.42702 -14.40283 -10.42949 -10.40587
 Alpha  occ. eigenvalues --  -10.40322 -10.39222 -10.37227 -10.36971 -10.34081
 Alpha  occ. eigenvalues --  -10.33874 -10.33440 -10.32640 -10.32227 -10.32080
 Alpha  occ. eigenvalues --  -10.31699 -10.31494 -10.30814 -10.30452 -10.30422
 Alpha  occ. eigenvalues --  -10.30141 -10.30057 -10.30024 -10.29771 -10.26795
 Alpha  occ. eigenvalues --  -10.26182 -10.24848 -10.23892  -1.18460  -1.15113
 Alpha  occ. eigenvalues --   -1.14261  -1.13187  -1.11848  -1.10682  -1.09307
 Alpha  occ. eigenvalues --   -1.08992  -1.08712  -1.06782  -1.06263  -1.05458
 Alpha  occ. eigenvalues --   -1.01947  -0.99943  -0.99429  -0.98091  -0.97468
 Alpha  occ. eigenvalues --   -0.97270  -0.96583  -0.92902  -0.88128  -0.86569
 Alpha  occ. eigenvalues --   -0.85722  -0.85360  -0.84592  -0.83020  -0.79558
 Alpha  occ. eigenvalues --   -0.79156  -0.76061  -0.74925  -0.73521  -0.73340
 Alpha  occ. eigenvalues --   -0.72871  -0.72593  -0.71473  -0.70922  -0.69992
 Alpha  occ. eigenvalues --   -0.69799  -0.68216  -0.66899  -0.66393  -0.66032
 Alpha  occ. eigenvalues --   -0.65610  -0.65273  -0.63154  -0.62616  -0.62562
 Alpha  occ. eigenvalues --   -0.62079  -0.61806  -0.60630  -0.60169  -0.58846
 Alpha  occ. eigenvalues --   -0.58617  -0.57663  -0.57389  -0.57045  -0.56820
 Alpha  occ. eigenvalues --   -0.56493  -0.56323  -0.55614  -0.55495  -0.54970
 Alpha  occ. eigenvalues --   -0.54453  -0.53762  -0.53668  -0.53373  -0.53105
 Alpha  occ. eigenvalues --   -0.52789  -0.52472  -0.52421  -0.51748  -0.51371
 Alpha  occ. eigenvalues --   -0.51098  -0.50707  -0.50466  -0.49950  -0.49752
 Alpha  occ. eigenvalues --   -0.49364  -0.48898  -0.48382  -0.48109  -0.47413
 Alpha  occ. eigenvalues --   -0.47224  -0.46858  -0.46108  -0.45684  -0.45589
 Alpha  occ. eigenvalues --   -0.45283  -0.45087  -0.44308  -0.44017  -0.43947
 Alpha  occ. eigenvalues --   -0.43132  -0.42784  -0.42423  -0.41029  -0.40786
 Alpha  occ. eigenvalues --   -0.40410  -0.40257  -0.40163  -0.39498  -0.38682
 Alpha  occ. eigenvalues --   -0.37435  -0.36812  -0.36529  -0.36511  -0.36163
 Alpha  occ. eigenvalues --   -0.36043  -0.35715  -0.34407  -0.33577  -0.33226
 Alpha  occ. eigenvalues --   -0.32697  -0.32601  -0.30877  -0.30596  -0.29314
 Alpha  occ. eigenvalues --   -0.28555  -0.27274
 Alpha virt. eigenvalues --   -0.12848  -0.12162  -0.10668  -0.09465  -0.08504
 Alpha virt. eigenvalues --   -0.06339  -0.05540  -0.04880  -0.04423  -0.02440
 Alpha virt. eigenvalues --   -0.02411  -0.02021  -0.01643  -0.00914  -0.00748

 Mulliken charges:
               1
     1  N   -0.750532
     2  H    0.416984
     3  H    0.427644
     4  H    0.404691
     5  C   -0.114256
     6  H    0.215647
     7  C    0.661144
     8  C   -0.382823
     9  H    0.194699
    10  H    0.207489
    11  O   -0.538907
    12  C    0.137197
    13  C   -0.229390
    14  H    0.151332
    15  C   -0.181193
    16  H    0.147991
    17  C   -0.120049
    18  H    0.167577
    19  C   -0.122269
    20  H    0.168405
    21  C   -0.123616
    22  H    0.169446
    23  N   -0.616265
    24  H    0.370630
    25  C   -0.077998
    26  H    0.200963
    27  C    0.634803
    28  C   -0.038239
    29  H    0.167950
    30  H    0.171010
    31  O   -0.573201
    32  O   -0.637771
    33  H    0.447913
    34  N   -0.589592
    35  H    0.372760
    36  C   -0.102787
    37  H    0.202247
    38  C    0.669661
    39  C   -0.044639
    40  H    0.155780
    41  H    0.155488
    42  O   -0.560708
    43  O   -0.618349
    44  H    0.416877
    45  N   -0.591649
    46  H    0.352242
    47  C   -0.065894
    48  H    0.201143
    49  C    0.624525
    50  C   -0.331838
    51  H    0.182360
    52  H    0.192428
    53  O   -0.561930
    54  C    0.564214
    55  O   -0.466086
    56  O   -0.592692
    57  N   -0.623430
    58  H    0.361195
    59  C   -0.049756
    60  H    0.157333
    61  C    0.608557
    62  C   -0.294095
    63  H    0.161880
    64  H    0.169084
    65  O   -0.644073
    66  C   -0.275368
    67  H    0.149886
    68  H    0.170833
    69  C   -0.153965
    70  H    0.138153
    71  H    0.175447
    72  N   -0.618949
    73  H    0.448881
    74  N   -0.757124
    75  H    0.363323
    76  H    0.365183
    77  N   -0.774868
    78  H    0.402295
    79  H    0.350599
    80  C    0.748235
    81  O   -0.533701
    82  H    0.433877
 Sum of Mulliken charges =   1.00000

 Dipole moment (field-independent basis, Debye):
    X=            -14.2997    Y=              4.1266    Z=             -5.9404  Tot=             16.0249
 Quadrupole moment (field-independent basis, Debye-Ang):
   XX=           -144.4287   YY=           -191.6857   ZZ=             65.0224
   XY=            -41.0267   XZ=            201.5849   YZ=            -69.4703

 Normal termination of Gaussian 16 at Thu May 26 21:35:08 2022.
