 Gaussian 16, Revision C.01,
 Gaussian 16:  ES64L-G16RevC.01  3-Jul-2019

 -------------------------------------------------------------------
 # B3LYP/6-31G* guess=read geom=check nosymm integral(ultrafinegrid)
 -------------------------------------------------------------------

 ------------------------------------------------------
 Candidate Structure: Conf:962 Charge calc in gas phase
 ------------------------------------------------------
 Structure from the checkpoint file:  "conf-962.chk"
 Charge =  1 Multiplicity = 1

                          Input orientation:
 ---------------------------------------------------------------------
 Center     Atomic      Atomic             Coordinates (Angstroms)
 Number     Number       Type             X           Y           Z
 ---------------------------------------------------------------------
      1          7           0       -6.714173    1.404574   -4.726831
      2          1           0       -6.933656    2.291628   -4.265389
      3          1           0       -5.995741    1.590653   -5.478774
      4          1           0       -7.587934    0.998738   -5.095037
      5          6           0       -5.997988    0.431297   -3.819315
      6          1           0       -6.208016    0.712819   -2.785542
      7          6           0       -4.506996    0.633330   -4.193915
      8          6           0       -6.483919   -1.011432   -4.107424
      9          1           0       -6.109298   -1.316109   -5.092020
     10          1           0       -6.002866   -1.664052   -3.371133
     11          8           0       -4.260815    1.218024   -5.261130
     12          6           0       -7.992595   -1.133799   -4.052108
     13          6           0       -8.666213   -1.188503   -2.822532
     14          1           0       -8.099094   -1.205405   -1.894134
     15          6           0       -8.744599   -1.136488   -5.238461
     16          1           0       -8.236353   -1.148161   -6.201893
     17          6           0      -10.058407   -1.246204   -2.781267
     18          1           0      -10.566959   -1.302296   -1.823336
     19          6           0      -10.141989   -1.189114   -5.195769
     20          1           0      -10.709585   -1.205510   -6.121445
     21          6           0      -10.799147   -1.241460   -3.967323
     22          1           0      -11.883207   -1.290380   -3.931277
     23          7           0       -3.620926    0.123147   -3.352898
     24          1           0       -3.880821   -0.369205   -2.492977
     25          6           0       -2.174097    0.128773   -3.540213
     26          1           0       -1.933515   -0.246411   -4.541828
     27          6           0       -1.652994   -0.862693   -2.464038
     28          6           0       -1.575705    1.533938   -3.388167
     29          1           0       -1.986014    2.179535   -4.177230
     30          1           0       -0.487839    1.472383   -3.540586
     31          8           0       -2.437582   -1.348624   -1.651187
     32          8           0       -1.907125    1.999403   -2.092046
     33          1           0       -1.412049    2.815484   -1.924066
     34          7           0       -0.336337   -1.130344   -2.528956
     35          1           0        0.280925   -0.551728   -3.092403
     36          6           0        0.377635   -1.918425   -1.539071
     37          1           0       -0.257118   -2.010317   -0.652402
     38          6           0        1.682163   -1.152959   -1.233830
     39          6           0        0.702132   -3.328801   -2.061732
     40          1           0        1.279728   -3.865669   -1.293208
     41          1           0        1.338695   -3.236715   -2.956038
     42          8           0        2.089501   -0.288425   -2.010482
     43          8           0       -0.523476   -3.973604   -2.347521
     44          1           0       -0.323805   -4.844399   -2.723789
     45          7           0        2.342115   -1.527903   -0.118006
     46          1           0        1.953426   -2.196691    0.539304
     47          6           0        3.619768   -0.959664    0.276274
     48          1           0        4.217384   -0.778105   -0.619226
     49          6           0        4.300860   -1.953533    1.226754
     50          6           0        3.429320    0.395498    1.043790
     51          1           0        3.173857    1.166763    0.311729
     52          1           0        2.615829    0.285487    1.763780
     53          8           0        3.607495   -2.570388    2.052309
     54          6           0        4.703374    0.748964    1.794258
     55          8           0        4.816589    0.656006    3.009403
     56          8           0        5.694931    1.048643    0.962643
     57          7           0        5.646889   -1.992436    1.181919
     58          1           0        6.151527   -1.350683    0.570357
     59          6           0        6.396683   -2.277683    2.407468
     60          1           0        5.697476   -2.036139    3.195449
     61          6           0        7.548799   -1.232301    2.568999
     62          6           0        6.796040   -3.761204    2.565570
     63          1           0        7.609159   -3.996900    1.868738
     64          1           0        5.936576   -4.374075    2.262470
     65          8           0        8.147317   -1.256396    3.675068
     66          6           0        7.243524   -4.131678    3.993819
     67          1           0        8.020996   -3.429221    4.299405
     68          1           0        7.707969   -5.125563    3.974680
     69          6           0        6.135482   -4.208715    5.075112
     70          1           0        5.628790   -5.176961    5.023398
     71          1           0        6.583165   -4.130421    6.070396
     72          7           0        5.040571   -3.219943    5.005568
     73          1           0        4.295465   -3.441159    4.351358
     74          7           0        6.297570   -1.357949    5.650643
     75          1           0        6.231107   -0.393973    5.958820
     76          1           0        7.130308   -1.517191    5.021806
     77          7           0        4.007384   -1.151995    5.277957
     78          1           0        3.144317   -1.634973    5.059432
     79          1           0        4.109838   -0.267412    4.777064
     80          6           0        5.132326   -1.914986    5.305528
     81          8           0        7.734121   -0.437572    1.609171
     82          1           0        6.581335    0.781613    1.368065
 ---------------------------------------------------------------------

 SCF Done:  E(RB3LYP) =  -2166.26312084     A.U. after    1 cycles

 Alpha  occ. eigenvalues --  -19.26256 -19.24409 -19.23096 -19.22547 -19.21612
 Alpha  occ. eigenvalues --  -19.20455 -19.20030 -19.19561 -19.13737 -19.13697
 Alpha  occ. eigenvalues --  -14.59427 -14.48898 -14.45783 -14.45151 -14.44719
 Alpha  occ. eigenvalues --  -14.44551 -14.43104 -14.41899 -10.43107 -10.40869
 Alpha  occ. eigenvalues --  -10.40495 -10.38835 -10.38107 -10.37650 -10.36092
 Alpha  occ. eigenvalues --  -10.34568 -10.34021 -10.33920 -10.32292 -10.32144
 Alpha  occ. eigenvalues --  -10.32123 -10.32047 -10.31716 -10.31040 -10.30668
 Alpha  occ. eigenvalues --  -10.30373 -10.30257 -10.29999 -10.29947 -10.27058
 Alpha  occ. eigenvalues --  -10.26935 -10.24267 -10.24172  -1.18665  -1.15105
 Alpha  occ. eigenvalues --   -1.14013  -1.13338  -1.12415  -1.11773  -1.10739
 Alpha  occ. eigenvalues --   -1.10042  -1.09660  -1.07095  -1.06369  -1.05512
 Alpha  occ. eigenvalues --   -1.01917  -1.01029  -0.99411  -0.99084  -0.97993
 Alpha  occ. eigenvalues --   -0.97682  -0.96906  -0.93141  -0.88822  -0.87104
 Alpha  occ. eigenvalues --   -0.86010  -0.85736  -0.84943  -0.83452  -0.80154
 Alpha  occ. eigenvalues --   -0.79548  -0.76480  -0.76311  -0.73833  -0.73645
 Alpha  occ. eigenvalues --   -0.73129  -0.73078  -0.71708  -0.70750  -0.70205
 Alpha  occ. eigenvalues --   -0.69838  -0.68132  -0.67036  -0.66747  -0.66256
 Alpha  occ. eigenvalues --   -0.65918  -0.65474  -0.64270  -0.63476  -0.62969
 Alpha  occ. eigenvalues --   -0.62546  -0.62365  -0.62257  -0.59681  -0.59367
 Alpha  occ. eigenvalues --   -0.58123  -0.57839  -0.57592  -0.57432  -0.57229
 Alpha  occ. eigenvalues --   -0.56647  -0.56480  -0.55915  -0.55512  -0.55330
 Alpha  occ. eigenvalues --   -0.54846  -0.54600  -0.54335  -0.53939  -0.53563
 Alpha  occ. eigenvalues --   -0.53371  -0.53059  -0.52688  -0.52632  -0.51907
 Alpha  occ. eigenvalues --   -0.51525  -0.51156  -0.50887  -0.50543  -0.50260
 Alpha  occ. eigenvalues --   -0.49948  -0.49128  -0.48819  -0.48101  -0.47590
 Alpha  occ. eigenvalues --   -0.47475  -0.47151  -0.46749  -0.46348  -0.45818
 Alpha  occ. eigenvalues --   -0.45507  -0.45356  -0.45253  -0.44695  -0.44389
 Alpha  occ. eigenvalues --   -0.44116  -0.43406  -0.42760  -0.41938  -0.41410
 Alpha  occ. eigenvalues --   -0.41049  -0.40904  -0.39922  -0.39013  -0.38993
 Alpha  occ. eigenvalues --   -0.37166  -0.37119  -0.36739  -0.36604  -0.36259
 Alpha  occ. eigenvalues --   -0.35909  -0.35630  -0.35121  -0.34870  -0.34518
 Alpha  occ. eigenvalues --   -0.33887  -0.33113  -0.33036  -0.32445  -0.29436
 Alpha  occ. eigenvalues --   -0.28078  -0.27611
 Alpha virt. eigenvalues --   -0.13043  -0.12416  -0.10891  -0.09767  -0.08004
 Alpha virt. eigenvalues --   -0.07242  -0.06927  -0.05707  -0.04906  -0.04509
 Alpha virt. eigenvalues --   -0.02682  -0.01922  -0.01788  -0.01222  -0.00921

 Mulliken charges:
               1
     1  N   -0.751126
     2  H    0.415369
     3  H    0.426447
     4  H    0.404278
     5  C   -0.112828
     6  H    0.215865
     7  C    0.662188
     8  C   -0.385074
     9  H    0.193482
    10  H    0.212670
    11  O   -0.548180
    12  C    0.138218
    13  C   -0.181428
    14  H    0.148322
    15  C   -0.229999
    16  H    0.150818
    17  C   -0.122391
    18  H    0.167823
    19  C   -0.120178
    20  H    0.167491
    21  C   -0.123762
    22  H    0.169406
    23  N   -0.603797
    24  H    0.379057
    25  C   -0.075800
    26  H    0.199768
    27  C    0.654077
    28  C   -0.049873
    29  H    0.167660
    30  H    0.156787
    31  O   -0.531029
    32  O   -0.615275
    33  H    0.414416
    34  N   -0.603043
    35  H    0.358818
    36  C   -0.086480
    37  H    0.196971
    38  C    0.623156
    39  C   -0.014492
    40  H    0.138315
    41  H    0.140901
    42  O   -0.536424
    43  O   -0.608075
    44  H    0.405924
    45  N   -0.617255
    46  H    0.351415
    47  C   -0.026466
    48  H    0.198898
    49  C    0.575684
    50  C   -0.321213
    51  H    0.197582
    52  H    0.160110
    53  O   -0.582764
    54  C    0.578072
    55  O   -0.505478
    56  O   -0.579137
    57  N   -0.586673
    58  H    0.357266
    59  C   -0.079645
    60  H    0.147690
    61  C    0.625079
    62  C   -0.263028
    63  H    0.163042
    64  H    0.140256
    65  O   -0.572133
    66  C   -0.303119
    67  H    0.201675
    68  H    0.153367
    69  C   -0.152953
    70  H    0.167655
    71  H    0.190852
    72  N   -0.564669
    73  H    0.366647
    74  N   -0.735467
    75  H    0.359410
    76  H    0.424152
    77  N   -0.738165
    78  H    0.349057
    79  H    0.394484
    80  C    0.661341
    81  O   -0.604754
    82  H    0.460214
 Sum of Mulliken charges =   1.00000

 Dipole moment (field-independent basis, Debye):
    X=            -27.1629    Y=             -3.1483    Z=            -11.9518  Tot=             29.8426
 Quadrupole moment (field-independent basis, Debye-Ang):
   XX=            -81.6348   YY=           -202.8862   ZZ=           -136.7355
   XY=            -47.3810   XZ=            129.2893   YZ=            -26.0845

 Normal termination of Gaussian 16 at Thu May 26 21:35:11 2022.
