 Gaussian 16, Revision C.01,
 Gaussian 16:  ES64L-G16RevC.01  3-Jul-2019

 -------------------------------------------------------------------
 # B3LYP/6-31G* guess=read geom=check nosymm integral(ultrafinegrid)
 -------------------------------------------------------------------

 ------------------------------------------------------
 Candidate Structure: Conf:304 Charge calc in gas phase
 ------------------------------------------------------
 Structure from the checkpoint file:  "conf-304.chk"
 Charge =  1 Multiplicity = 1

                          Input orientation:
 ---------------------------------------------------------------------
 Center     Atomic      Atomic             Coordinates (Angstroms)
 Number     Number       Type             X           Y           Z
 ---------------------------------------------------------------------
      1          7           0       -5.473996   -3.350940   -2.734564
      2          1           0       -5.852156   -3.973309   -3.454891
      3          1           0       -4.754926   -3.876475   -2.186209
      4          1           0       -6.248621   -3.026090   -2.129250
      5          6           0       -4.724672   -2.167895   -3.302594
      6          1           0       -5.090932   -1.992225   -4.316223
      7          6           0       -3.242895   -2.596411   -3.248351
      8          6           0       -4.954243   -0.922270   -2.393533
      9          1           0       -4.368006   -1.048334   -1.474769
     10          1           0       -4.539826   -0.057163   -2.922575
     11          8           0       -2.937705   -3.508076   -2.467688
     12          6           0       -6.416561   -0.717943   -2.058875
     13          6           0       -6.909352   -1.151072   -0.815328
     14          1           0       -6.218074   -1.543095   -0.070436
     15          6           0       -7.305012   -0.149041   -2.984219
     16          1           0       -6.935971    0.208727   -3.943302
     17          6           0       -8.267538   -1.017303   -0.506613
     18          1           0       -8.633966   -1.340151    0.463280
     19          6           0       -8.656431   -0.011612   -2.671027
     20          1           0       -9.332288    0.444729   -3.388124
     21          6           0       -9.140552   -0.449998   -1.434277
     22          1           0      -10.193097   -0.337296   -1.192867
     23          7           0       -2.373801   -1.895690   -3.995286
     24          1           0       -2.721445   -1.059595   -4.456159
     25          6           0       -0.927961   -1.856360   -3.654980
     26          1           0       -0.639595   -2.873362   -3.384056
     27          6           0       -0.858897   -0.884508   -2.467364
     28          6           0       -0.077409   -1.400113   -4.846176
     29          1           0        0.947288   -1.280218   -4.482502
     30          1           0       -0.417341   -0.413017   -5.191546
     31          8           0       -1.054629    0.318383   -2.634213
     32          8           0       -0.050637   -2.366572   -5.875952
     33          1           0       -0.842193   -2.269886   -6.425562
     34          7           0       -0.760670   -1.466976   -1.246173
     35          1           0       -0.403497   -2.412796   -1.182631
     36          6           0       -0.982355   -0.716708   -0.008249
     37          1           0       -1.579904    0.152753   -0.297374
     38          6           0        0.367283   -0.232358    0.553910
     39          6           0       -1.794597   -1.581817    0.963667
     40          1           0       -2.087397   -0.984517    1.829510
     41          1           0       -1.186736   -2.418782    1.331232
     42          8           0        0.844951   -0.724823    1.591640
     43          8           0       -3.000656   -2.043671    0.353081
     44          1           0       -2.747274   -2.670697   -0.345144
     45          7           0        0.963560    0.681898   -0.217288
     46          1           0        0.457965    0.993111   -1.040708
     47          6           0        2.345613    1.111426   -0.060565
     48          1           0        2.943755    0.226872    0.185038
     49          6           0        2.500798    2.153112    1.080206
     50          6           0        2.879681    1.729151   -1.364786
     51          1           0        2.283631    2.610975   -1.640223
     52          1           0        3.901665    2.106420   -1.200396
     53          8           0        1.522902    2.764961    1.523989
     54          6           0        2.885741    0.782148   -2.545554
     55          8           0        2.360195   -0.318230   -2.591267
     56          8           0        3.546501    1.316277   -3.585137
     57          7           0        3.780920    2.292029    1.477551
     58          1           0        4.502119    1.881516    0.838369
     59          6           0        4.386615    3.598749    1.806379
     60          1           0        3.670972    4.389469    1.553381
     61          6           0        5.639931    3.714642    0.825489
     62          6           0        4.813457    3.777126    3.265866
     63          1           0        5.359744    4.723390    3.294140
     64          1           0        5.552887    3.004419    3.523200
     65          8           0        6.326867    4.729001    0.963606
     66          6           0        3.642278    3.782064    4.278165
     67          1           0        2.693189    3.839297    3.731430
     68          1           0        3.675553    4.681045    4.906569
     69          6           0        3.621995    2.591787    5.252313
     70          1           0        4.452620    2.670279    5.959558
     71          1           0        2.698162    2.573553    5.839657
     72          7           0        3.771589    1.264432    4.626918
     73          1           0        4.718831    0.961599    4.443978
     74          7           0        1.564980    1.109129    3.880251
     75          1           0        0.937010    0.538609    3.319297
     76          1           0        1.505373    2.090209    3.613154
     77          7           0        3.029251   -0.643160    3.520607
     78          1           0        3.923420   -1.091123    3.658558
     79          1           0        2.431835   -0.968515    2.762175
     80          6           0        2.809631    0.599398    3.985440
     81          8           0        5.766052    2.723970    0.032194
     82          1           0        3.537387    0.660590   -4.307723
 ---------------------------------------------------------------------

 SCF Done:  E(RB3LYP) =  -2166.22264519     A.U. after    3 cycles

 Alpha  occ. eigenvalues --  -19.29880 -19.27099 -19.26396 -19.25345 -19.24390
 Alpha  occ. eigenvalues --  -19.22969 -19.22165 -19.17846 -19.09361 -19.07923
 Alpha  occ. eigenvalues --  -14.61848 -14.53119 -14.49073 -14.47217 -14.46606
 Alpha  occ. eigenvalues --  -14.45895 -14.45206 -14.38814 -10.46689 -10.43055
 Alpha  occ. eigenvalues --  -10.42802 -10.41612 -10.40266 -10.39629 -10.36501
 Alpha  occ. eigenvalues --  -10.35376 -10.34657 -10.34564 -10.34518 -10.34419
 Alpha  occ. eigenvalues --  -10.33552 -10.32091 -10.31945 -10.31702 -10.31457
 Alpha  occ. eigenvalues --  -10.31402 -10.31134 -10.30850 -10.27597 -10.26876
 Alpha  occ. eigenvalues --  -10.24706 -10.24233 -10.22446  -1.22000  -1.18316
 Alpha  occ. eigenvalues --   -1.16628  -1.16053  -1.14111  -1.13302  -1.12921
 Alpha  occ. eigenvalues --   -1.11506  -1.09261  -1.08976  -1.08958  -1.05089
 Alpha  occ. eigenvalues --   -1.02377  -1.02140  -1.01110  -0.99150  -0.98960
 Alpha  occ. eigenvalues --   -0.96387  -0.95017  -0.93181  -0.90656  -0.88425
 Alpha  occ. eigenvalues --   -0.87238  -0.87021  -0.85817  -0.85187  -0.81099
 Alpha  occ. eigenvalues --   -0.79621  -0.78105  -0.77216  -0.76184  -0.75810
 Alpha  occ. eigenvalues --   -0.75119  -0.74646  -0.73632  -0.73006  -0.71867
 Alpha  occ. eigenvalues --   -0.71438  -0.71040  -0.69090  -0.68781  -0.68156
 Alpha  occ. eigenvalues --   -0.67468  -0.66031  -0.65523  -0.64822  -0.63921
 Alpha  occ. eigenvalues --   -0.63781  -0.62841  -0.61994  -0.61526  -0.61152
 Alpha  occ. eigenvalues --   -0.60705  -0.59959  -0.59738  -0.59545  -0.59371
 Alpha  occ. eigenvalues --   -0.58758  -0.58375  -0.57963  -0.57163  -0.56751
 Alpha  occ. eigenvalues --   -0.56324  -0.55653  -0.55353  -0.54516  -0.54421
 Alpha  occ. eigenvalues --   -0.54294  -0.54047  -0.53560  -0.53450  -0.52856
 Alpha  occ. eigenvalues --   -0.52634  -0.52159  -0.51777  -0.51553  -0.51230
 Alpha  occ. eigenvalues --   -0.50926  -0.50388  -0.50080  -0.49757  -0.48757
 Alpha  occ. eigenvalues --   -0.48632  -0.48517  -0.47590  -0.47053  -0.46869
 Alpha  occ. eigenvalues --   -0.46623  -0.46260  -0.44972  -0.44785  -0.44488
 Alpha  occ. eigenvalues --   -0.44458  -0.43898  -0.43571  -0.43190  -0.42097
 Alpha  occ. eigenvalues --   -0.40907  -0.39805  -0.39593  -0.39427  -0.39369
 Alpha  occ. eigenvalues --   -0.38927  -0.38609  -0.38040  -0.37917  -0.37831
 Alpha  occ. eigenvalues --   -0.37548  -0.37152  -0.36748  -0.36268  -0.35823
 Alpha  occ. eigenvalues --   -0.35319  -0.34970  -0.31860  -0.30734  -0.24315
 Alpha  occ. eigenvalues --   -0.24189  -0.21857
 Alpha virt. eigenvalues --   -0.16318  -0.13690  -0.13035  -0.11795  -0.11087
 Alpha virt. eigenvalues --   -0.09024  -0.08162  -0.07908  -0.06746  -0.06018
 Alpha virt. eigenvalues --   -0.04769  -0.04503  -0.03499  -0.03071  -0.02884

 Mulliken charges:
               1
     1  N   -0.745334
     2  H    0.419974
     3  H    0.426626
     4  H    0.410081
     5  C   -0.115674
     6  H    0.213426
     7  C    0.655508
     8  C   -0.409372
     9  H    0.226395
    10  H    0.204212
    11  O   -0.538701
    12  C    0.123841
    13  C   -0.237121
    14  H    0.173303
    15  C   -0.179051
    16  H    0.144778
    17  C   -0.119134
    18  H    0.171596
    19  C   -0.122371
    20  H    0.171597
    21  C   -0.122314
    22  H    0.173661
    23  N   -0.588578
    24  H    0.357081
    25  C   -0.089103
    26  H    0.201119
    27  C    0.650263
    28  C   -0.074302
    29  H    0.209584
    30  H    0.154351
    31  O   -0.541906
    32  O   -0.592326
    33  H    0.398528
    34  N   -0.603137
    35  H    0.351658
    36  C   -0.106521
    37  H    0.204288
    38  C    0.651139
    39  C   -0.060321
    40  H    0.184142
    41  H    0.161358
    42  O   -0.585617
    43  O   -0.636986
    44  H    0.407836
    45  N   -0.559815
    46  H    0.369240
    47  C   -0.046496
    48  H    0.173661
    49  C    0.582802
    50  C   -0.435075
    51  H    0.202454
    52  H    0.272987
    53  O   -0.564459
    54  C    0.589253
    55  O   -0.497392
    56  O   -0.534434
    57  N   -0.609302
    58  H    0.350513
    59  C   -0.098109
    60  H    0.158711
    61  C    0.591690
    62  C   -0.262940
    63  H    0.194823
    64  H    0.110910
    65  O   -0.549832
    66  C   -0.288533
    67  H    0.163763
    68  H    0.162785
    69  C   -0.176331
    70  H    0.181141
    71  H    0.182957
    72  N   -0.573068
    73  H    0.357412
    74  N   -0.750506
    75  H    0.374593
    76  H    0.396953
    77  N   -0.774709
    78  H    0.359369
    79  H    0.404609
    80  C    0.764214
    81  O   -0.618202
    82  H    0.415889
 Sum of Mulliken charges =   1.00000

 Dipole moment (field-independent basis, Debye):
    X=            -29.2698    Y=            -17.9296    Z=             -7.6367  Tot=             35.1640
 Quadrupole moment (field-independent basis, Debye-Ang):
   XX=           -143.6310   YY=           -251.9598   ZZ=           -140.7071
   XY=              3.3091   XZ=            104.3246   YZ=             34.4227

 Normal termination of Gaussian 16 at Thu May 26 21:36:06 2022.
