 Gaussian 16, Revision C.01,
 Gaussian 16:  ES64L-G16RevC.01  3-Jul-2019

 -------------------------------------------------------------------
 # B3LYP/6-31G* guess=read geom=check nosymm integral(ultrafinegrid)
 -------------------------------------------------------------------

 ------------------------------------------------------
 Candidate Structure: Conf:126 Charge calc in gas phase
 ------------------------------------------------------
 Structure from the checkpoint file:  "conf-126.chk"
 Charge =  1 Multiplicity = 1

                          Input orientation:
 ---------------------------------------------------------------------
 Center     Atomic      Atomic             Coordinates (Angstroms)
 Number     Number       Type             X           Y           Z
 ---------------------------------------------------------------------
      1          7           0       -5.664961    0.861407   -2.334404
      2          1           0       -6.451776    0.207729   -2.359753
      3          1           0       -4.916723    0.500266   -1.655486
      4          1           0       -6.010246    1.779545   -2.040724
      5          6           0       -4.877891    0.916134   -3.632351
      6          1           0       -5.424121    0.343227   -4.384977
      7          6           0       -3.547157    0.224078   -3.228294
      8          6           0       -4.689055    2.383231   -4.090356
      9          1           0       -5.664567    2.883500   -4.014380
     10          1           0       -4.001017    2.880829   -3.397925
     11          8           0       -3.380799   -0.028962   -2.024147
     12          6           0       -4.182406    2.506627   -5.515848
     13          6           0       -2.847882    2.851410   -5.773890
     14          1           0       -2.160504    2.998083   -4.945017
     15          6           0       -5.057557    2.299016   -6.592377
     16          1           0       -6.102130    2.054285   -6.406281
     17          6           0       -2.403045    2.988496   -7.091255
     18          1           0       -1.371554    3.271174   -7.281867
     19          6           0       -4.608911    2.430845   -7.906141
     20          1           0       -5.298311    2.275634   -8.730775
     21          6           0       -3.279512    2.778658   -8.157207
     22          1           0       -2.932083    2.893199   -9.179830
     23          7           0       -2.664383   -0.028545   -4.186371
     24          1           0       -2.879847    0.194071   -5.151135
     25          6           0       -1.289756   -0.409671   -3.878168
     26          1           0       -1.298567   -1.375404   -3.361972
     27          6           0       -0.640557    0.684054   -2.986492
     28          6           0       -0.512360   -0.530683   -5.194968
     29          1           0        0.467322   -0.978368   -4.981672
     30          1           0       -0.347233    0.475603   -5.609135
     31          8           0       -1.038969    1.847302   -3.019703
     32          8           0       -1.292719   -1.329742   -6.070858
     33          1           0       -0.819652   -1.415562   -6.913061
     34          7           0        0.396049    0.251584   -2.247945
     35          1           0        0.708487   -0.717408   -2.256667
     36          6           0        1.223971    1.118297   -1.427406
     37          1           0        1.424358    2.052014   -1.963256
     38          6           0        2.521221    0.348541   -1.157129
     39          6           0        0.520018    1.478318   -0.082223
     40          1           0        0.250720    0.545786    0.432154
     41          1           0       -0.399838    2.014802   -0.331698
     42          8           0        2.597027   -0.860780   -1.370043
     43          8           0        1.316755    2.317802    0.724880
     44          1           0        1.865266    1.743082    1.302259
     45          7           0        3.529300    1.104362   -0.643098
     46          1           0        3.244219    2.024703   -0.318793
     47          6           0        4.618707    0.479211    0.085913
     48          1           0        4.864985   -0.452649   -0.428330
     49          6           0        4.139996    0.111966    1.520030
     50          6           0        5.864504    1.399142    0.081624
     51          1           0        6.219667    1.469383   -0.952014
     52          1           0        5.595410    2.403455    0.423214
     53          8           0        3.076167    0.507655    2.003148
     54          6           0        6.993982    0.862505    0.978738
     55          8           0        7.416245   -0.311216    0.757572
     56          8           0        7.348763    1.603055    1.941344
     57          7           0        5.012628   -0.684559    2.182596
     58          1           0        5.851324   -0.945606    1.666004
     59          6           0        4.851601   -1.203522    3.526696
     60          1           0        3.802423   -1.044490    3.803299
     61          6           0        5.664410   -0.445497    4.602769
     62          6           0        5.154387   -2.717870    3.571452
     63          1           0        4.339551   -3.229279    3.046954
     64          1           0        5.111733   -3.028392    4.619269
     65          8           0        5.873707   -0.957932    5.687286
     66          6           0        6.480142   -3.192979    2.938818
     67          1           0        6.513831   -2.952455    1.868036
     68          1           0        6.477332   -4.288846    2.983303
     69          6           0        7.794782   -2.742971    3.596026
     70          1           0        7.739566   -2.904769    4.673770
     71          1           0        8.613354   -3.368792    3.218167
     72          7           0        8.125831   -1.336802    3.322773
     73          1           0        8.044547   -1.012125    2.337409
     74          7           0        8.931938   -0.844473    5.466543
     75          1           0        9.278275   -0.101196    6.060332
     76          1           0        8.150000   -1.331744    5.895560
     77          7           0        9.235564    0.651562    3.684789
     78          1           0        8.735074    1.028659    2.848728
     79          1           0        9.445836    1.364110    4.372741
     80          6           0        8.747816   -0.504443    4.160973
     81          8           0        6.085402    0.798087    4.355295
     82          1           0        6.128134    1.036926    3.399798
 ---------------------------------------------------------------------

 SCF Done:  E(RB3LYP) =  -2166.29332818     A.U. after    1 cycles

 Alpha  occ. eigenvalues --  -19.26620 -19.25313 -19.24795 -19.20821 -19.20132
 Alpha  occ. eigenvalues --  -19.20089 -19.19765 -19.19707 -19.16815 -19.16512
 Alpha  occ. eigenvalues --  -14.59469 -14.49258 -14.44908 -14.44740 -14.44544
 Alpha  occ. eigenvalues --  -14.43150 -14.43024 -14.43021 -10.43161 -10.40820
 Alpha  occ. eigenvalues --  -10.40560 -10.38404 -10.38297 -10.36612 -10.36396
 Alpha  occ. eigenvalues --  -10.34666 -10.34541 -10.34447 -10.33615 -10.30986
 Alpha  occ. eigenvalues --  -10.30776 -10.30708 -10.30677 -10.30634 -10.30179
 Alpha  occ. eigenvalues --  -10.29398 -10.28743 -10.28685 -10.28596 -10.28543
 Alpha  occ. eigenvalues --  -10.26728 -10.26208 -10.25367  -1.19154  -1.15941
 Alpha  occ. eigenvalues --   -1.13611  -1.12848  -1.12494  -1.11860  -1.10983
 Alpha  occ. eigenvalues --   -1.10060  -1.09209  -1.07691  -1.07514  -1.05782
 Alpha  occ. eigenvalues --   -1.01294  -1.01177  -1.00120  -0.99958  -0.98928
 Alpha  occ. eigenvalues --   -0.97242  -0.96346  -0.92503  -0.88327  -0.87511
 Alpha  occ. eigenvalues --   -0.85453  -0.84829  -0.84261  -0.82580  -0.81253
 Alpha  occ. eigenvalues --   -0.79438  -0.75921  -0.74987  -0.73839  -0.73721
 Alpha  occ. eigenvalues --   -0.73253  -0.72362  -0.71112  -0.70680  -0.70369
 Alpha  occ. eigenvalues --   -0.68762  -0.68345  -0.68048  -0.66668  -0.65979
 Alpha  occ. eigenvalues --   -0.65507  -0.65404  -0.64912  -0.63922  -0.62665
 Alpha  occ. eigenvalues --   -0.62550  -0.62488  -0.60911  -0.60442  -0.59789
 Alpha  occ. eigenvalues --   -0.58817  -0.58362  -0.58168  -0.57507  -0.56906
 Alpha  occ. eigenvalues --   -0.56343  -0.55905  -0.55538  -0.55431  -0.55290
 Alpha  occ. eigenvalues --   -0.54078  -0.53917  -0.53693  -0.53472  -0.53387
 Alpha  occ. eigenvalues --   -0.52689  -0.52346  -0.51897  -0.51644  -0.51558
 Alpha  occ. eigenvalues --   -0.51405  -0.51262  -0.50885  -0.50251  -0.50036
 Alpha  occ. eigenvalues --   -0.49697  -0.49639  -0.49333  -0.48970  -0.48470
 Alpha  occ. eigenvalues --   -0.48109  -0.47350  -0.47127  -0.46504  -0.46175
 Alpha  occ. eigenvalues --   -0.45871  -0.45823  -0.44872  -0.44616  -0.44382
 Alpha  occ. eigenvalues --   -0.43966  -0.43757  -0.42522  -0.42342  -0.41989
 Alpha  occ. eigenvalues --   -0.41503  -0.41283  -0.40739  -0.39311  -0.39158
 Alpha  occ. eigenvalues --   -0.37888  -0.37875  -0.36340  -0.36128  -0.35658
 Alpha  occ. eigenvalues --   -0.35135  -0.34852  -0.34735  -0.34618  -0.34059
 Alpha  occ. eigenvalues --   -0.33803  -0.32725  -0.32685  -0.31859  -0.31791
 Alpha  occ. eigenvalues --   -0.31181  -0.30459
 Alpha virt. eigenvalues --   -0.12231  -0.10927  -0.10699  -0.09967  -0.07311
 Alpha virt. eigenvalues --   -0.06634  -0.06023  -0.05859  -0.05671  -0.05304
 Alpha virt. eigenvalues --   -0.03211  -0.02814  -0.02173  -0.01048  -0.00833

 Mulliken charges:
               1
     1  N   -0.763400
     2  H    0.414568
     3  H    0.438221
     4  H    0.413453
     5  C   -0.113288
     6  H    0.218245
     7  C    0.673352
     8  C   -0.382425
     9  H    0.176118
    10  H    0.212442
    11  O   -0.544450
    12  C    0.121447
    13  C   -0.203477
    14  H    0.192653
    15  C   -0.180424
    16  H    0.128946
    17  C   -0.137050
    18  H    0.157300
    19  C   -0.125633
    20  H    0.158883
    21  C   -0.122462
    22  H    0.159959
    23  N   -0.580837
    24  H    0.372142
    25  C   -0.052139
    26  H    0.195434
    27  C    0.640383
    28  C   -0.070750
    29  H    0.170212
    30  H    0.157240
    31  O   -0.544837
    32  O   -0.620539
    33  H    0.417525
    34  N   -0.618976
    35  H    0.359983
    36  C   -0.066201
    37  H    0.187388
    38  C    0.601078
    39  C   -0.035863
    40  H    0.145231
    41  H    0.168247
    42  O   -0.535273
    43  O   -0.649099
    44  H    0.442606
    45  N   -0.593196
    46  H    0.346583
    47  C   -0.091055
    48  H    0.210202
    49  C    0.616686
    50  C   -0.327635
    51  H    0.184181
    52  H    0.163705
    53  O   -0.547156
    54  C    0.566390
    55  O   -0.585976
    56  O   -0.586828
    57  N   -0.654421
    58  H    0.393597
    59  C   -0.070644
    60  H    0.214838
    61  C    0.624386
    62  C   -0.276430
    63  H    0.160648
    64  H    0.180679
    65  O   -0.496745
    66  C   -0.313476
    67  H    0.170663
    68  H    0.168503
    69  C   -0.134196
    70  H    0.171199
    71  H    0.182522
    72  N   -0.638095
    73  H    0.404630
    74  N   -0.733976
    75  H    0.353477
    76  H    0.385298
    77  N   -0.753080
    78  H    0.408978
    79  H    0.344211
    80  C    0.723127
    81  O   -0.597886
    82  H    0.450361
 Sum of Mulliken charges =   1.00000

 Dipole moment (field-independent basis, Debye):
    X=             -9.4966    Y=              0.1506    Z=            -11.4664  Tot=             14.8891
 Quadrupole moment (field-independent basis, Debye-Ang):
   XX=            -39.2680   YY=           -238.3070   ZZ=           -124.9400
   XY=            -35.0126   XZ=            120.8211   YZ=            -26.3619

 Normal termination of Gaussian 16 at Thu May 26 21:15:27 2022.
