 Gaussian 16, Revision C.01,
 Gaussian 16:  ES64L-G16RevC.01  3-Jul-2019

 -------------------------------------------------------------------
 # B3LYP/6-31G* guess=read geom=check nosymm integral(ultrafinegrid)
 -------------------------------------------------------------------

 ------------------------------------------------------
 Candidate Structure: Conf:966 Charge calc in gas phase
 ------------------------------------------------------
 Structure from the checkpoint file:  "conf-966.chk"
 Charge =  1 Multiplicity = 1

                          Input orientation:
 ---------------------------------------------------------------------
 Center     Atomic      Atomic             Coordinates (Angstroms)
 Number     Number       Type             X           Y           Z
 ---------------------------------------------------------------------
      1          7           0       -4.331602    2.075888   -6.471389
      2          1           0       -4.198411    3.086045   -6.368090
      3          1           0       -3.473145    1.677204   -6.928166
      4          1           0       -5.188390    1.908605   -7.022755
      5          6           0       -4.392824    1.350578   -5.145878
      6          1           0       -4.712931    2.065140   -4.384751
      7          6           0       -2.939799    0.863678   -4.925248
      8          6           0       -5.393212    0.170231   -5.245257
      9          1           0       -4.960720   -0.600543   -5.894406
     10          1           0       -5.470958   -0.265751   -4.243837
     11          8           0       -2.203685    0.824728   -5.930040
     12          6           0       -6.747469    0.606440   -5.764715
     13          6           0       -7.081701    0.412295   -7.115392
     14          1           0       -6.405726   -0.139998   -7.767075
     15          6           0       -7.664086    1.258307   -4.925858
     16          1           0       -7.429609    1.400556   -3.872958
     17          6           0       -8.307009    0.864095   -7.617328
     18          1           0       -8.558679    0.693174   -8.659772
     19          6           0       -8.886843    1.703100   -5.426147
     20          1           0       -9.593689    2.193087   -4.763129
     21          6           0       -9.208429    1.511536   -6.773514
     22          1           0      -10.163556    1.855680   -7.158395
     23          7           0       -2.639161    0.496407   -3.691460
     24          1           0       -3.296857    0.625560   -2.909780
     25          6           0       -1.400299   -0.116826   -3.193424
     26          1           0       -1.289127   -1.118238   -3.628147
     27          6           0       -1.674647   -0.256930   -1.669164
     28          6           0       -0.112432    0.673813   -3.543995
     29          1           0        0.681438    0.370132   -2.856898
     30          1           0       -0.304409    1.746963   -3.378220
     31          8           0       -2.747684    0.145426   -1.203951
     32          8           0        0.368180    0.391059   -4.833119
     33          1           0       -0.331671    0.616400   -5.471805
     34          7           0       -0.701782   -0.829193   -0.946358
     35          1           0        0.163391   -1.137089   -1.390832
     36          6           0       -0.816066   -1.071902    0.498115
     37          1           0       -1.456118   -0.291665    0.921925
     38          6           0        0.604716   -0.980925    1.089247
     39          6           0       -1.440881   -2.448396    0.799458
     40          1           0       -0.856976   -3.224637    0.282941
     41          1           0       -2.460137   -2.463319    0.402040
     42          8           0        1.137212   -1.942071    1.646368
     43          8           0       -1.523997   -2.676171    2.186395
     44          1           0       -0.601028   -2.777389    2.481508
     45          7           0        1.235012    0.197035    0.879972
     46          1           0        0.760206    0.998164    0.475633
     47          6           0        2.658618    0.381445    1.065135
     48          1           0        2.991222   -0.257226    1.886488
     49          6           0        2.877261    1.881465    1.357500
     50          6           0        3.453063    0.030031   -0.235341
     51          1           0        3.203986    0.775944   -0.996084
     52          1           0        4.524732    0.077885   -0.026454
     53          8           0        2.101202    2.706642    0.864438
     54          6           0        3.092859   -1.328721   -0.789242
     55          8           0        2.111184   -1.566057   -1.478251
     56          8           0        3.968567   -2.278911   -0.437951
     57          7           0        3.952121    2.174451    2.098887
     58          1           0        4.567057    1.462595    2.493776
     59          6           0        4.434880    3.523423    2.384617
     60          1           0        4.324752    4.145321    1.491684
     61          6           0        5.930570    3.364596    2.768874
     62          6           0        3.619574    4.127214    3.559614
     63          1           0        3.857420    3.548975    4.462404
     64          1           0        2.562999    3.940882    3.336731
     65          8           0        6.651849    4.404282    2.592440
     66          6           0        3.752149    5.636141    3.839442
     67          1           0        2.973274    5.903804    4.569183
     68          1           0        3.510222    6.201640    2.930055
     69          6           0        5.101916    6.176126    4.337330
     70          1           0        5.855271    6.040783    3.565548
     71          1           0        5.002822    7.246355    4.560104
     72          7           0        5.567204    5.496635    5.560535
     73          1           0        4.898951    5.439526    6.318057
     74          7           0        7.719010    4.885396    4.882550
     75          1           0        8.640765    4.593905    5.179662
     76          1           0        7.421070    4.661874    3.857872
     77          7           0        7.112482    4.760251    7.123482
     78          1           0        6.438356    4.932606    7.854940
     79          1           0        7.796073    4.042224    7.316771
     80          6           0        6.801397    5.033322    5.824225
     81          8           0        6.266860    2.283186    3.281217
     82          1           0        3.636595   -3.127449   -0.789793
 ---------------------------------------------------------------------

 SCF Done:  E(RB3LYP) =  -2166.27015792     A.U. after    1 cycles

 Alpha  occ. eigenvalues --  -19.27244 -19.27016 -19.22065 -19.21856 -19.21531
 Alpha  occ. eigenvalues --  -19.19020 -19.18824 -19.17164 -19.13527 -19.12976
 Alpha  occ. eigenvalues --  -14.60001 -14.49486 -14.45978 -14.45874 -14.45341
 Alpha  occ. eigenvalues --  -14.42898 -14.42181 -14.40768 -10.43972 -10.41248
 Alpha  occ. eigenvalues --  -10.41027 -10.40029 -10.39070 -10.36194 -10.34448
 Alpha  occ. eigenvalues --  -10.34283 -10.34276 -10.32545 -10.32448 -10.31175
 Alpha  occ. eigenvalues --  -10.31123 -10.30912 -10.30781 -10.30471 -10.30463
 Alpha  occ. eigenvalues --  -10.30341 -10.30091 -10.28972 -10.28630 -10.27446
 Alpha  occ. eigenvalues --  -10.26501 -10.25217 -10.24014  -1.19336  -1.18148
 Alpha  occ. eigenvalues --   -1.14312  -1.13795  -1.11088  -1.09686  -1.09557
 Alpha  occ. eigenvalues --   -1.08959  -1.08902  -1.06709  -1.06521  -1.05987
 Alpha  occ. eigenvalues --   -1.01938  -0.99453  -0.99442  -0.98692  -0.97839
 Alpha  occ. eigenvalues --   -0.96997  -0.96588  -0.93405  -0.88443  -0.86590
 Alpha  occ. eigenvalues --   -0.86062  -0.85598  -0.85010  -0.82053  -0.79963
 Alpha  occ. eigenvalues --   -0.79658  -0.76600  -0.75926  -0.74196  -0.73562
 Alpha  occ. eigenvalues --   -0.73457  -0.71933  -0.71727  -0.71008  -0.70360
 Alpha  occ. eigenvalues --   -0.69793  -0.68046  -0.67578  -0.67302  -0.66521
 Alpha  occ. eigenvalues --   -0.65820  -0.65462  -0.63598  -0.63506  -0.63070
 Alpha  occ. eigenvalues --   -0.62602  -0.61958  -0.60618  -0.59839  -0.59126
 Alpha  occ. eigenvalues --   -0.58630  -0.57763  -0.57504  -0.57228  -0.56906
 Alpha  occ. eigenvalues --   -0.56659  -0.56494  -0.55659  -0.55482  -0.54740
 Alpha  occ. eigenvalues --   -0.54585  -0.54050  -0.53758  -0.53564  -0.53313
 Alpha  occ. eigenvalues --   -0.53046  -0.52718  -0.52461  -0.52204  -0.51762
 Alpha  occ. eigenvalues --   -0.51112  -0.50898  -0.50270  -0.49707  -0.49441
 Alpha  occ. eigenvalues --   -0.49338  -0.48616  -0.47994  -0.47891  -0.47727
 Alpha  occ. eigenvalues --   -0.47587  -0.46870  -0.46553  -0.46004  -0.45612
 Alpha  occ. eigenvalues --   -0.45554  -0.45445  -0.45302  -0.44324  -0.43780
 Alpha  occ. eigenvalues --   -0.43362  -0.43125  -0.42666  -0.42015  -0.41044
 Alpha  occ. eigenvalues --   -0.40916  -0.39585  -0.39336  -0.39202  -0.38689
 Alpha  occ. eigenvalues --   -0.38331  -0.36906  -0.36823  -0.36407  -0.36238
 Alpha  occ. eigenvalues --   -0.35955  -0.35587  -0.34429  -0.33810  -0.33174
 Alpha  occ. eigenvalues --   -0.32515  -0.31267  -0.31163  -0.31019  -0.28959
 Alpha  occ. eigenvalues --   -0.27910  -0.27205
 Alpha virt. eigenvalues --   -0.13490  -0.12575  -0.11368  -0.10111  -0.07738
 Alpha virt. eigenvalues --   -0.07428  -0.05849  -0.05589  -0.04962  -0.03118
 Alpha virt. eigenvalues --   -0.02789  -0.02757  -0.02083  -0.01543  -0.00506

 Mulliken charges:
               1
     1  N   -0.748931
     2  H    0.417344
     3  H    0.428846
     4  H    0.406045
     5  C   -0.114805
     6  H    0.216775
     7  C    0.667489
     8  C   -0.382682
     9  H    0.196443
    10  H    0.212760
    11  O   -0.568980
    12  C    0.135220
    13  C   -0.230939
    14  H    0.152363
    15  C   -0.181347
    16  H    0.150403
    17  C   -0.119583
    18  H    0.168877
    19  C   -0.122013
    20  H    0.169682
    21  C   -0.123283
    22  H    0.170763
    23  N   -0.627071
    24  H    0.379601
    25  C   -0.073714
    26  H    0.209032
    27  C    0.620219
    28  C   -0.037209
    29  H    0.180893
    30  H    0.136269
    31  O   -0.546450
    32  O   -0.623305
    33  H    0.423202
    34  N   -0.654117
    35  H    0.407727
    36  C   -0.076571
    37  H    0.199591
    38  C    0.605040
    39  C   -0.015970
    40  H    0.133473
    41  H    0.153266
    42  O   -0.542971
    43  O   -0.621350
    44  H    0.418510
    45  N   -0.592379
    46  H    0.350046
    47  C   -0.065249
    48  H    0.199161
    49  C    0.630566
    50  C   -0.339714
    51  H    0.189175
    52  H    0.198485
    53  O   -0.560189
    54  C    0.605650
    55  O   -0.503569
    56  O   -0.534685
    57  N   -0.612391
    58  H    0.354521
    59  C   -0.027388
    60  H    0.162517
    61  C    0.585025
    62  C   -0.263468
    63  H    0.134264
    64  H    0.165006
    65  O   -0.628127
    66  C   -0.289075
    67  H    0.133498
    68  H    0.164575
    69  C   -0.159419
    70  H    0.234464
    71  H    0.160176
    72  N   -0.600850
    73  H    0.336335
    74  N   -0.761190
    75  H    0.344686
    76  H    0.442509
    77  N   -0.763685
    78  H    0.355049
    79  H    0.366247
    80  C    0.782684
    81  O   -0.564699
    82  H    0.422895
 Sum of Mulliken charges =   1.00000

 Dipole moment (field-independent basis, Debye):
    X=            -12.2099    Y=             13.9936    Z=            -11.7418  Tot=             21.9720
 Quadrupole moment (field-independent basis, Debye-Ang):
   XX=            -74.4463   YY=           -188.0315   ZZ=             -3.7557
   XY=             -5.2859   XZ=            218.8318   YZ=             29.2381

 Normal termination of Gaussian 16 at Thu May 26 21:35:12 2022.
