 Gaussian 16, Revision C.01,
 Gaussian 16:  ES64L-G16RevC.01  3-Jul-2019

 -------------------------------------------------------------------
 # B3LYP/6-31G* guess=read geom=check nosymm integral(ultrafinegrid)
 -------------------------------------------------------------------

 ------------------------------------------------------
 Candidate Structure: Conf:156 Charge calc in gas phase
 ------------------------------------------------------
 Structure from the checkpoint file:  "conf-156.chk"
 Charge =  1 Multiplicity = 1

                          Input orientation:
 ---------------------------------------------------------------------
 Center     Atomic      Atomic             Coordinates (Angstroms)
 Number     Number       Type             X           Y           Z
 ---------------------------------------------------------------------
      1          7           0       -3.610039   -0.927028   -0.527297
      2          1           0       -4.293332   -1.056423    0.223191
      3          1           0       -3.052583   -1.782882   -0.675802
      4          1           0       -2.908904   -0.166553   -0.266243
      5          6           0       -4.253379   -0.600432   -1.863300
      6          1           0       -4.982831   -1.392807   -2.058441
      7          6           0       -3.046409   -0.778072   -2.829999
      8          6           0       -4.941441    0.773020   -1.774383
      9          1           0       -5.605291    0.755304   -0.898237
     10          1           0       -4.183062    1.539471   -1.583180
     11          8           0       -2.215333   -1.631880   -2.526109
     12          6           0       -5.746992    1.151908   -3.005929
     13          6           0       -5.438064    2.327241   -3.707440
     14          1           0       -4.621188    2.959207   -3.364224
     15          6           0       -6.817295    0.360121   -3.446488
     16          1           0       -7.091967   -0.542578   -2.904261
     17          6           0       -6.179521    2.697417   -4.832887
     18          1           0       -5.933970    3.613930   -5.361293
     19          6           0       -7.555973    0.729942   -4.569802
     20          1           0       -8.384860    0.109485   -4.897479
     21          6           0       -7.237118    1.898265   -5.266985
     22          1           0       -7.816054    2.186056   -6.139374
     23          7           0       -2.914754    0.066093   -3.882025
     24          1           0       -3.597072    0.817790   -3.935598
     25          6           0       -1.540318    0.470285   -4.259334
     26          1           0       -0.961368   -0.433496   -4.455499
     27          6           0       -1.020787    1.223231   -3.021814
     28          6           0       -1.573645    1.330798   -5.530252
     29          1           0       -0.561341    1.691991   -5.733767
     30          1           0       -2.209653    2.213423   -5.360170
     31          8           0       -1.690316    2.165281   -2.553507
     32          8           0       -1.964888    0.586181   -6.660808
     33          1           0       -2.889091    0.313322   -6.548597
     34          7           0        0.068189    0.729722   -2.421806
     35          1           0        0.604317   -0.051017   -2.799030
     36          6           0        0.566728    1.220146   -1.144628
     37          1           0        0.565062    2.315817   -1.154087
     38          6           0        2.010502    0.677878   -1.011555
     39          6           0       -0.289009    0.709621    0.035961
     40          1           0        0.078741    1.149374    0.970024
     41          1           0       -0.196455   -0.379897    0.105483
     42          8           0        2.380171   -0.251998   -1.733227
     43          8           0       -1.689349    1.017047   -0.113399
     44          1           0       -1.771761    1.724513   -0.795832
     45          7           0        2.751883    1.265035   -0.067203
     46          1           0        2.407040    2.023719    0.519579
     47          6           0        4.108409    0.870356    0.276618
     48          1           0        4.134234   -0.219706    0.399631
     49          6           0        4.384910    1.532543    1.654602
     50          6           0        5.128362    1.229380   -0.819466
     51          1           0        6.121034    0.835756   -0.576150
     52          1           0        4.831961    0.735503   -1.752364
     53          8           0        3.494663    2.169914    2.221604
     54          6           0        5.242727    2.718388   -1.077888
     55          8           0        4.505308    3.572399   -0.636840
     56          8           0        6.281656    2.988103   -1.896815
     57          7           0        5.616717    1.339894    2.149740
     58          1           0        6.323337    0.787957    1.671035
     59          6           0        6.121413    1.948424    3.379245
     60          1           0        5.719710    2.959999    3.465601
     61          6           0        7.661839    2.014572    3.275201
     62          6           0        5.693630    1.109987    4.618310
     63          1           0        5.832908    0.049190    4.366063
     64          1           0        4.615486    1.249513    4.747055
     65          8           0        8.247907    2.938710    3.852809
     66          6           0        6.437709    1.447432    5.935640
     67          1           0        5.717161    1.520152    6.759435
     68          1           0        6.932199    2.419999    5.847408
     69          6           0        7.473228    0.389150    6.365776
     70          1           0        7.908271    0.669743    7.329667
     71          1           0        6.980605   -0.577516    6.520882
     72          7           0        8.551790    0.167081    5.390932
     73          1           0        8.234123   -0.015851    4.434321
     74          7           0       10.366318    1.106274    6.548410
     75          1           0       11.108912    1.788989    6.525023
     76          1           0        9.895326    0.985499    7.431143
     77          7           0       10.411477    0.846337    4.231681
     78          1           0        9.783372    0.962643    3.398803
     79          1           0       11.316653    1.294885    4.216800
     80          6           0        9.764502    0.742688    5.394551
     81          8           0        8.194747    0.998235    2.684620
     82          1           0        6.296926    3.956403   -2.020982
 ---------------------------------------------------------------------

 SCF Done:  E(RB3LYP) =  -2166.27402032     A.U. after    3 cycles

 Alpha  occ. eigenvalues --  -19.27429 -19.25974 -19.25683 -19.23825 -19.23500
 Alpha  occ. eigenvalues --  -19.20934 -19.20259 -19.17888 -19.14493 -19.13154
 Alpha  occ. eigenvalues --  -14.57697 -14.48685 -14.47501 -14.46075 -14.44426
 Alpha  occ. eigenvalues --  -14.44326 -14.42708 -14.41501 -10.43014 -10.41021
 Alpha  occ. eigenvalues --  -10.40523 -10.39876 -10.38581 -10.38269 -10.35245
 Alpha  occ. eigenvalues --  -10.35159 -10.34580 -10.34294 -10.33639 -10.33262
 Alpha  occ. eigenvalues --  -10.31563 -10.31493 -10.31241 -10.30683 -10.29699
 Alpha  occ. eigenvalues --  -10.29508 -10.29152 -10.29099 -10.28865 -10.27536
 Alpha  occ. eigenvalues --  -10.26936 -10.25020 -10.24618  -1.18477  -1.16713
 Alpha  occ. eigenvalues --   -1.15734  -1.13588  -1.12849  -1.11862  -1.11494
 Alpha  occ. eigenvalues --   -1.09849  -1.09688  -1.07755  -1.06967  -1.05250
 Alpha  occ. eigenvalues --   -1.03668  -1.01151  -0.99427  -0.98749  -0.97640
 Alpha  occ. eigenvalues --   -0.97007  -0.96623  -0.92164  -0.88891  -0.86996
 Alpha  occ. eigenvalues --   -0.85706  -0.85119  -0.84768  -0.84399  -0.80225
 Alpha  occ. eigenvalues --   -0.79178  -0.77817  -0.76934  -0.74315  -0.73526
 Alpha  occ. eigenvalues --   -0.72806  -0.71871  -0.71500  -0.70938  -0.70577
 Alpha  occ. eigenvalues --   -0.69746  -0.68558  -0.67826  -0.67024  -0.66513
 Alpha  occ. eigenvalues --   -0.65808  -0.65180  -0.63915  -0.63546  -0.62903
 Alpha  occ. eigenvalues --   -0.62570  -0.62362  -0.61196  -0.60970  -0.60216
 Alpha  occ. eigenvalues --   -0.59998  -0.58684  -0.58401  -0.58018  -0.57439
 Alpha  occ. eigenvalues --   -0.56974  -0.56579  -0.56013  -0.55719  -0.55055
 Alpha  occ. eigenvalues --   -0.54661  -0.54354  -0.54104  -0.53594  -0.53451
 Alpha  occ. eigenvalues --   -0.52863  -0.52775  -0.52467  -0.52307  -0.51734
 Alpha  occ. eigenvalues --   -0.51629  -0.51509  -0.51282  -0.51144  -0.50406
 Alpha  occ. eigenvalues --   -0.50363  -0.49835  -0.49620  -0.49548  -0.49077
 Alpha  occ. eigenvalues --   -0.48242  -0.47881  -0.46937  -0.46423  -0.46127
 Alpha  occ. eigenvalues --   -0.45910  -0.45584  -0.45072  -0.44743  -0.44616
 Alpha  occ. eigenvalues --   -0.44339  -0.43854  -0.43260  -0.42698  -0.42100
 Alpha  occ. eigenvalues --   -0.40957  -0.40623  -0.40413  -0.40235  -0.39491
 Alpha  occ. eigenvalues --   -0.39401  -0.38166  -0.38003  -0.37059  -0.36400
 Alpha  occ. eigenvalues --   -0.35680  -0.35407  -0.35245  -0.35111  -0.34664
 Alpha  occ. eigenvalues --   -0.33487  -0.33350  -0.32181  -0.31618  -0.29771
 Alpha  occ. eigenvalues --   -0.29207  -0.26739
 Alpha virt. eigenvalues --   -0.13778  -0.11137  -0.10803  -0.10226  -0.07896
 Alpha virt. eigenvalues --   -0.06981  -0.05906  -0.05304  -0.03712  -0.03600
 Alpha virt. eigenvalues --   -0.02572  -0.02401  -0.01528  -0.00794  -0.00244

 Mulliken charges:
               1
     1  N   -0.774017
     2  H    0.400259
     3  H    0.418267
     4  H    0.453944
     5  C   -0.122939
     6  H    0.224032
     7  C    0.639323
     8  C   -0.384027
     9  H    0.181260
    10  H    0.196485
    11  O   -0.511148
    12  C    0.134493
    13  C   -0.223603
    14  H    0.169852
    15  C   -0.177030
    16  H    0.133606
    17  C   -0.125297
    18  H    0.164551
    19  C   -0.124248
    20  H    0.162915
    21  C   -0.123744
    22  H    0.165435
    23  N   -0.606503
    24  H    0.366023
    25  C   -0.082704
    26  H    0.205180
    27  C    0.621079
    28  C   -0.049696
    29  H    0.184553
    30  H    0.151274
    31  O   -0.586951
    32  O   -0.591883
    33  H    0.403503
    34  N   -0.582895
    35  H    0.377692
    36  C   -0.123536
    37  H    0.207191
    38  C    0.624460
    39  C   -0.003770
    40  H    0.182145
    41  H    0.159386
    42  O   -0.541824
    43  O   -0.697321
    44  H    0.454742
    45  N   -0.600561
    46  H    0.372179
    47  C   -0.051703
    48  H    0.187398
    49  C    0.637505
    50  C   -0.379318
    51  H    0.196072
    52  H    0.218159
    53  O   -0.550301
    54  C    0.593183
    55  O   -0.459907
    56  O   -0.560149
    57  N   -0.627612
    58  H    0.350943
    59  C   -0.011357
    60  H    0.180309
    61  C    0.572998
    62  C   -0.294636
    63  H    0.132109
    64  H    0.172064
    65  O   -0.561561
    66  C   -0.275745
    67  H    0.148603
    68  H    0.193854
    69  C   -0.167617
    70  H    0.142765
    71  H    0.175472
    72  N   -0.592453
    73  H    0.375339
    74  N   -0.761019
    75  H    0.368304
    76  H    0.368215
    77  N   -0.750122
    78  H    0.413072
    79  H    0.343165
    80  C    0.786725
    81  O   -0.651964
    82  H    0.419079
 Sum of Mulliken charges =   1.00000

 Dipole moment (field-independent basis, Debye):
    X=             -3.2408    Y=             -0.7026    Z=              3.0373  Tot=              4.4968
 Quadrupole moment (field-independent basis, Debye-Ang):
   XX=             -9.0239   YY=           -252.8487   ZZ=           -141.0028
   XY=             12.6004   XZ=            138.8328   YZ=            -15.7215

 Normal termination of Gaussian 16 at Thu May 26 21:36:09 2022.
