 Gaussian 16, Revision C.01,
 Gaussian 16:  ES64L-G16RevC.01  3-Jul-2019

 -------------------------------------------------------------------
 # B3LYP/6-31G* guess=read geom=check nosymm integral(ultrafinegrid)
 -------------------------------------------------------------------

 ------------------------------------------------------
 Candidate Structure: Conf:472 Charge calc in gas phase
 ------------------------------------------------------
 Structure from the checkpoint file:  "conf-472.chk"
 Charge =  1 Multiplicity = 1

                          Input orientation:
 ---------------------------------------------------------------------
 Center     Atomic      Atomic             Coordinates (Angstroms)
 Number     Number       Type             X           Y           Z
 ---------------------------------------------------------------------
      1          7           0       -6.678641   -0.897492   -4.766457
      2          1           0       -6.423329   -1.832015   -5.199999
      3          1           0       -7.403253   -1.055937   -4.046765
      4          1           0       -7.026969   -0.236077   -5.463603
      5          6           0       -5.382789   -0.481660   -4.108156
      6          1           0       -4.895210    0.228797   -4.783117
      7          6           0       -4.560156   -1.805783   -4.133185
      8          6           0       -5.639978    0.181852   -2.734729
      9          1           0       -4.668518    0.387106   -2.272726
     10          1           0       -6.095367    1.162874   -2.915943
     11          8           0       -4.993114   -2.731322   -4.834811
     12          6           0       -6.518395   -0.643850   -1.816276
     13          6           0       -7.912449   -0.460632   -1.829601
     14          1           0       -8.348916    0.344416   -2.421195
     15          6           0       -5.970561   -1.618646   -0.968654
     16          1           0       -4.892852   -1.751222   -0.916113
     17          6           0       -8.744300   -1.250907   -1.030500
     18          1           0       -9.818077   -1.088911   -1.042413
     19          6           0       -6.802533   -2.400130   -0.167093
     20          1           0       -6.365207   -3.142947    0.493430
     21          6           0       -8.188684   -2.225763   -0.202632
     22          1           0       -8.830357   -2.836260    0.425466
     23          7           0       -3.426682   -1.823206   -3.441180
     24          1           0       -3.196272   -1.097059   -2.761817
     25          6           0       -2.573232   -2.995169   -3.281225
     26          1           0       -3.177323   -3.901900   -3.377834
     27          6           0       -1.977401   -2.868514   -1.870434
     28          6           0       -1.445910   -3.028673   -4.361162
     29          1           0       -0.913202   -2.068417   -4.341734
     30          1           0       -1.927835   -3.135838   -5.338533
     31          8           0       -2.102198   -1.816303   -1.234887
     32          8           0       -0.575717   -4.118379   -4.172528
     33          1           0        0.163411   -3.809380   -3.600770
     34          7           0       -1.306608   -3.956746   -1.436800
     35          1           0       -1.135830   -4.663859   -2.147129
     36          6           0       -0.306936   -3.842215   -0.388406
     37          1           0       -0.715043   -3.191454    0.389594
     38          6           0        0.976348   -3.199203   -0.980700
     39          6           0       -0.004438   -5.215052    0.221818
     40          1           0        0.792448   -5.097241    0.970569
     41          1           0        0.381120   -5.885590   -0.564792
     42          8           0        1.153449   -3.118025   -2.204023
     43          8           0       -1.202497   -5.704193    0.793410
     44          1           0       -1.018059   -6.572716    1.182849
     45          7           0        1.866986   -2.760322   -0.081043
     46          1           0        1.707113   -2.814624    0.923845
     47          6           0        3.148516   -2.161940   -0.420148
     48          1           0        3.629403   -2.747679   -1.209096
     49          6           0        3.982746   -2.208414    0.883603
     50          6           0        2.976167   -0.708740   -0.954711
     51          1           0        2.360542   -0.765134   -1.856222
     52          1           0        2.484848   -0.083378   -0.205609
     53          8           0        3.414051   -2.398178    1.965238
     54          6           0        4.354779   -0.178051   -1.304302
     55          8           0        5.060544   -0.718048   -2.135762
     56          8           0        4.743825    0.823990   -0.510151
     57          7           0        5.310113   -2.014635    0.754776
     58          1           0        5.705430   -1.755859   -0.147162
     59          6           0        6.164207   -1.681241    1.890512
     60          1           0        5.497260   -1.319743    2.679927
     61          6           0        7.114271   -0.497804    1.495504
     62          6           0        6.976001   -2.908838    2.409108
     63          1           0        8.045060   -2.672932    2.380337
     64          1           0        6.829033   -3.733357    1.704261
     65          8           0        7.815547   -0.041920    2.459536
     66          6           0        6.615556   -3.423800    3.817217
     67          1           0        7.287228   -4.259897    4.050085
     68          1           0        5.594262   -3.823410    3.819831
     69          6           0        6.704292   -2.371115    4.950260
     70          1           0        5.771073   -1.805534    5.019324
     71          1           0        6.834623   -2.861285    5.921208
     72          7           0        7.752238   -1.370550    4.726998
     73          1           0        7.579314   -0.739181    3.893603
     74          7           0        9.538131   -2.318359    5.916871
     75          1           0       10.532581   -2.423137    6.049659
     76          1           0        8.938648   -2.611464    6.673023
     77          7           0        9.902991   -0.832245    4.155239
     78          1           0        9.495793   -0.337203    3.352312
     79          1           0       10.842457   -0.614766    4.452352
     80          6           0        9.054259   -1.509227    4.946508
     81          8           0        7.126793   -0.112759    0.314871
     82          1           0        5.736066    0.812356   -0.482759
 ---------------------------------------------------------------------

 SCF Done:  E(RB3LYP) =  -2166.27877837     A.U. after    1 cycles

 Alpha  occ. eigenvalues --  -19.26032 -19.22422 -19.21759 -19.21710 -19.21571
 Alpha  occ. eigenvalues --  -19.20318 -19.17935 -19.17224 -19.14879 -19.14066
 Alpha  occ. eigenvalues --  -14.58630 -14.48747 -14.46914 -14.44916 -14.44695
 Alpha  occ. eigenvalues --  -14.43633 -14.43444 -14.41001 -10.42930 -10.41797
 Alpha  occ. eigenvalues --  -10.40258 -10.38332 -10.37129 -10.35724 -10.34906
 Alpha  occ. eigenvalues --  -10.33700 -10.33193 -10.32611 -10.32225 -10.32093
 Alpha  occ. eigenvalues --  -10.31799 -10.31591 -10.30463 -10.30426 -10.30413
 Alpha  occ. eigenvalues --  -10.29704 -10.29582 -10.29337 -10.29233 -10.27388
 Alpha  occ. eigenvalues --  -10.25512 -10.25343 -10.24516  -1.18478  -1.13693
 Alpha  occ. eigenvalues --   -1.13357  -1.12743  -1.11756  -1.10381  -1.09960
 Alpha  occ. eigenvalues --   -1.09597  -1.09234  -1.07591  -1.05340  -1.04587
 Alpha  occ. eigenvalues --   -1.01582  -1.00174  -1.00088  -0.98871  -0.98421
 Alpha  occ. eigenvalues --   -0.97400  -0.96913  -0.92495  -0.87717  -0.86377
 Alpha  occ. eigenvalues --   -0.85644  -0.85132  -0.84549  -0.82742  -0.79856
 Alpha  occ. eigenvalues --   -0.79174  -0.75795  -0.74787  -0.74214  -0.73646
 Alpha  occ. eigenvalues --   -0.72637  -0.72151  -0.71865  -0.70596  -0.69927
 Alpha  occ. eigenvalues --   -0.68913  -0.67807  -0.67386  -0.66760  -0.66436
 Alpha  occ. eigenvalues --   -0.65271  -0.64388  -0.63089  -0.63033  -0.62951
 Alpha  occ. eigenvalues --   -0.62617  -0.60816  -0.60552  -0.59737  -0.59325
 Alpha  occ. eigenvalues --   -0.58995  -0.58633  -0.58221  -0.57091  -0.56743
 Alpha  occ. eigenvalues --   -0.56457  -0.56298  -0.55788  -0.55305  -0.55037
 Alpha  occ. eigenvalues --   -0.53852  -0.53432  -0.53355  -0.52781  -0.52577
 Alpha  occ. eigenvalues --   -0.52298  -0.52172  -0.51866  -0.51711  -0.51448
 Alpha  occ. eigenvalues --   -0.51102  -0.50831  -0.50517  -0.50263  -0.49876
 Alpha  occ. eigenvalues --   -0.49352  -0.48925  -0.48638  -0.48007  -0.47626
 Alpha  occ. eigenvalues --   -0.47151  -0.46763  -0.46653  -0.45747  -0.45526
 Alpha  occ. eigenvalues --   -0.45068  -0.44895  -0.44726  -0.44494  -0.43521
 Alpha  occ. eigenvalues --   -0.42796  -0.42283  -0.41453  -0.41034  -0.40848
 Alpha  occ. eigenvalues --   -0.40671  -0.40664  -0.40191  -0.39544  -0.39288
 Alpha  occ. eigenvalues --   -0.37401  -0.36232  -0.35941  -0.35590  -0.35554
 Alpha  occ. eigenvalues --   -0.35019  -0.34979  -0.34588  -0.34157  -0.33675
 Alpha  occ. eigenvalues --   -0.33211  -0.32079  -0.31849  -0.30735  -0.30163
 Alpha  occ. eigenvalues --   -0.28803  -0.28144
 Alpha virt. eigenvalues --   -0.12194  -0.11701  -0.11558  -0.08121  -0.07544
 Alpha virt. eigenvalues --   -0.06584  -0.06389  -0.04058  -0.03751  -0.03402
 Alpha virt. eigenvalues --   -0.02836  -0.02718  -0.01115  -0.00515  -0.00335

 Mulliken charges:
               1
     1  N   -0.757504
     2  H    0.433946
     3  H    0.403817
     4  H    0.409470
     5  C   -0.113511
     6  H    0.228404
     7  C    0.657120
     8  C   -0.393691
     9  H    0.208736
    10  H    0.188533
    11  O   -0.536565
    12  C    0.140034
    13  C   -0.235690
    14  H    0.140194
    15  C   -0.184481
    16  H    0.168925
    17  C   -0.118849
    18  H    0.163682
    19  C   -0.125755
    20  H    0.168888
    21  C   -0.121635
    22  H    0.166495
    23  N   -0.609939
    24  H    0.374069
    25  C   -0.095336
    26  H    0.206003
    27  C    0.623221
    28  C   -0.028459
    29  H    0.152172
    30  H    0.169746
    31  O   -0.550251
    32  O   -0.642284
    33  H    0.446880
    34  N   -0.568610
    35  H    0.352365
    36  C   -0.093709
    37  H    0.205103
    38  C    0.644258
    39  C   -0.041470
    40  H    0.151865
    41  H    0.141086
    42  O   -0.564109
    43  O   -0.608041
    44  H    0.407658
    45  N   -0.615829
    46  H    0.363464
    47  C   -0.054956
    48  H    0.205575
    49  C    0.604171
    50  C   -0.321312
    51  H    0.193526
    52  H    0.172061
    53  O   -0.556271
    54  C    0.553242
    55  O   -0.468742
    56  O   -0.575725
    57  N   -0.614681
    58  H    0.372185
    59  C   -0.064276
    60  H    0.171716
    61  C    0.609834
    62  C   -0.284088
    63  H    0.152440
    64  H    0.164200
    65  O   -0.621777
    66  C   -0.274408
    67  H    0.143839
    68  H    0.170738
    69  C   -0.170227
    70  H    0.191896
    71  H    0.146895
    72  N   -0.607967
    73  H    0.413917
    74  N   -0.759463
    75  H    0.365580
    76  H    0.371272
    77  N   -0.779037
    78  H    0.420964
    79  H    0.353324
    80  C    0.773783
    81  O   -0.561410
    82  H    0.452763
 Sum of Mulliken charges =   1.00000

 Dipole moment (field-independent basis, Debye):
    X=            -10.5456    Y=            -10.1568    Z=              0.9767  Tot=             14.6739
 Quadrupole moment (field-independent basis, Debye-Ang):
   XX=             76.6287   YY=           -209.1534   ZZ=           -117.9892
   XY=            -39.7238   XZ=            223.3639   YZ=            -44.2264

 Normal termination of Gaussian 16 at Thu May 26 21:35:19 2022.
