 Gaussian 16, Revision C.01,
 Gaussian 16:  ES64L-G16RevC.01  3-Jul-2019

 -------------------------------------------------------------------
 # B3LYP/6-31G* guess=read geom=check nosymm integral(ultrafinegrid)
 -------------------------------------------------------------------

 ------------------------------------------------------
 Candidate Structure: Conf:961 Charge calc in gas phase
 ------------------------------------------------------
 Structure from the checkpoint file:  "conf-961.chk"
 Charge =  1 Multiplicity = 1

                          Input orientation:
 ---------------------------------------------------------------------
 Center     Atomic      Atomic             Coordinates (Angstroms)
 Number     Number       Type             X           Y           Z
 ---------------------------------------------------------------------
      1          7           0       -6.438661   -0.181773   -5.885960
      2          1           0       -6.807156    0.773944   -5.865986
      3          1           0       -5.507823   -0.175522   -6.401012
      4          1           0       -7.121497   -0.789828   -6.347045
      5          6           0       -6.014473   -0.688295   -4.517815
      6          1           0       -6.573636   -0.145585   -3.753217
      7          6           0       -4.501155   -0.349609   -4.509736
      8          6           0       -6.288294   -2.210606   -4.438392
      9          1           0       -7.360306   -2.366396   -4.622391
     10          1           0       -5.737029   -2.699633   -5.251413
     11          8           0       -3.951391   -0.231771   -5.620506
     12          6           0       -5.900787   -2.815211   -3.104449
     13          6           0       -4.668716   -3.463403   -2.947811
     14          1           0       -3.995701   -3.559272   -3.797172
     15          6           0       -6.763917   -2.713121   -2.004956
     16          1           0       -7.733009   -2.229599   -2.115562
     17          6           0       -4.295397   -3.990553   -1.711014
     18          1           0       -3.324651   -4.463389   -1.596681
     19          6           0       -6.397158   -3.246943   -0.769507
     20          1           0       -7.076226   -3.169193    0.074401
     21          6           0       -5.162776   -3.882569   -0.621802
     22          1           0       -4.878532   -4.296805    0.341066
     23          7           0       -3.912886   -0.242120   -3.331442
     24          1           0       -4.414000   -0.363840   -2.447053
     25          6           0       -2.473709   -0.103493   -3.130465
     26          1           0       -1.951185   -0.817513   -3.778028
     27          6           0       -2.260768   -0.472026   -1.641054
     28          6           0       -1.964549    1.306389   -3.461792
     29          1           0       -2.127876    1.497163   -4.532167
     30          1           0       -0.880638    1.327156   -3.275042
     31          8           0       -3.220206   -0.509228   -0.872805
     32          8           0       -2.668588    2.221385   -2.643743
     33          1           0       -2.250528    3.091791   -2.725639
     34          7           0       -0.985377   -0.718418   -1.287298
     35          1           0       -0.289415   -0.902538   -2.003473
     36          6           0       -0.621035   -1.254618    0.022265
     37          1           0       -0.989043   -0.586125    0.806568
     38          6           0        0.906165   -1.367106    0.017474
     39          6           0       -1.210253   -2.676175    0.238927
     40          1           0       -2.293982   -2.596295    0.342185
     41          1           0       -0.800105   -3.081372    1.177833
     42          8           0        1.457757   -1.858223   -0.980407
     43          8           0       -0.966647   -3.526738   -0.863422
     44          1           0       -0.014789   -3.472602   -1.070074
     45          7           0        1.548295   -0.982657    1.126876
     46          1           0        1.068652   -0.572745    1.927695
     47          6           0        2.980442   -1.126960    1.337035
     48          1           0        3.297696   -2.130847    1.038621
     49          6           0        3.189060   -0.917842    2.860389
     50          6           0        3.787744   -0.107488    0.479972
     51          1           0        3.570946   -0.322630   -0.569832
     52          1           0        3.487444    0.914715    0.721722
     53          8           0        2.290013   -0.401554    3.529936
     54          6           0        5.263262   -0.328026    0.757765
     55          8           0        5.805321   -1.400499    0.561029
     56          8           0        5.840647    0.715514    1.360385
     57          7           0        4.376147   -1.322113    3.359121
     58          1           0        5.105804   -1.639614    2.725720
     59          6           0        4.865801   -0.919990    4.679318
     60          1           0        4.141848   -0.215214    5.093686
     61          6           0        6.236673   -0.205173    4.489291
     62          6           0        4.946736   -2.177258    5.597253
     63          1           0        5.801340   -2.792658    5.282857
     64          1           0        4.052564   -2.763652    5.362088
     65          8           0        6.572238    0.610645    5.410164
     66          6           0        4.970717   -1.960784    7.133055
     67          1           0        4.338685   -2.724535    7.601019
     68          1           0        4.511019   -0.997577    7.389923
     69          6           0        6.337743   -2.061248    7.830383
     70          1           0        6.187932   -2.052436    8.918143
     71          1           0        6.826094   -3.008457    7.567391
     72          7           0        7.193018   -0.940826    7.433375
     73          1           0        6.722762   -0.201246    6.871255
     74          7           0        9.264956   -1.978179    7.724987
     75          1           0       10.259573   -1.992386    7.553641
     76          1           0        8.952333   -2.430397    8.571519
     77          7           0        9.026168   -0.091699    6.354078
     78          1           0        8.350702    0.413611    5.745686
     79          1           0       10.014110   -0.075212    6.150952
     80          6           0        8.499013   -1.004977    7.174547
     81          8           0        6.921935   -0.514167    3.492151
     82          1           0        6.606694    0.368914    1.887181
 ---------------------------------------------------------------------

 SCF Done:  E(RB3LYP) =  -2166.27176265     A.U. after    2 cycles

 Alpha  occ. eigenvalues --  -19.25924 -19.23677 -19.21744 -19.21102 -19.21036
 Alpha  occ. eigenvalues --  -19.19449 -19.17382 -19.17181 -19.14814 -19.14121
 Alpha  occ. eigenvalues --  -14.59768 -14.48496 -14.46516 -14.44763 -14.43805
 Alpha  occ. eigenvalues --  -14.43356 -14.43346 -14.40662 -10.42656 -10.41212
 Alpha  occ. eigenvalues --  -10.40232 -10.38189 -10.36523 -10.35688 -10.34520
 Alpha  occ. eigenvalues --  -10.34038 -10.33457 -10.33305 -10.32385 -10.31271
 Alpha  occ. eigenvalues --  -10.30404 -10.30310 -10.30099 -10.29819 -10.28343
 Alpha  occ. eigenvalues --  -10.28060 -10.27629 -10.27338 -10.27153 -10.27040
 Alpha  occ. eigenvalues --  -10.25818 -10.25099 -10.24695  -1.18447  -1.13648
 Alpha  occ. eigenvalues --   -1.13330  -1.13052  -1.11428  -1.11077  -1.09992
 Alpha  occ. eigenvalues --   -1.09183  -1.08263  -1.07614  -1.05069  -1.04539
 Alpha  occ. eigenvalues --   -1.01155  -0.99844  -0.99715  -0.98624  -0.97846
 Alpha  occ. eigenvalues --   -0.97073  -0.95618  -0.91900  -0.87785  -0.85966
 Alpha  occ. eigenvalues --   -0.85125  -0.84139  -0.83223  -0.82133  -0.79846
 Alpha  occ. eigenvalues --   -0.78906  -0.75789  -0.75279  -0.73634  -0.73385
 Alpha  occ. eigenvalues --   -0.72682  -0.72601  -0.71511  -0.69617  -0.69129
 Alpha  occ. eigenvalues --   -0.67599  -0.67233  -0.66845  -0.66040  -0.65969
 Alpha  occ. eigenvalues --   -0.65784  -0.64168  -0.63631  -0.62776  -0.62557
 Alpha  occ. eigenvalues --   -0.62105  -0.61729  -0.60003  -0.59588  -0.58525
 Alpha  occ. eigenvalues --   -0.58045  -0.57912  -0.57308  -0.56892  -0.56250
 Alpha  occ. eigenvalues --   -0.55991  -0.55313  -0.54975  -0.54596  -0.54248
 Alpha  occ. eigenvalues --   -0.53965  -0.53605  -0.53436  -0.53046  -0.52265
 Alpha  occ. eigenvalues --   -0.51670  -0.51437  -0.51252  -0.50997  -0.50717
 Alpha  occ. eigenvalues --   -0.50447  -0.50070  -0.49839  -0.49573  -0.49444
 Alpha  occ. eigenvalues --   -0.49167  -0.48930  -0.47906  -0.47663  -0.47488
 Alpha  occ. eigenvalues --   -0.46616  -0.46067  -0.45934  -0.45514  -0.45265
 Alpha  occ. eigenvalues --   -0.44737  -0.44405  -0.43451  -0.43369  -0.42967
 Alpha  occ. eigenvalues --   -0.42686  -0.42511  -0.42030  -0.41142  -0.40882
 Alpha  occ. eigenvalues --   -0.40681  -0.40393  -0.40247  -0.39060  -0.38541
 Alpha  occ. eigenvalues --   -0.37049  -0.36433  -0.35775  -0.34914  -0.34340
 Alpha  occ. eigenvalues --   -0.33919  -0.33730  -0.33684  -0.33630  -0.33521
 Alpha  occ. eigenvalues --   -0.32372  -0.32112  -0.31527  -0.30703  -0.30035
 Alpha  occ. eigenvalues --   -0.28399  -0.28227
 Alpha virt. eigenvalues --   -0.11934  -0.10545  -0.10099  -0.09024  -0.07106
 Alpha virt. eigenvalues --   -0.05789  -0.05773  -0.05511  -0.03611  -0.02633
 Alpha virt. eigenvalues --   -0.02506  -0.02194  -0.01767  -0.00783  -0.00741

 Mulliken charges:
               1
     1  N   -0.753344
     2  H    0.417110
     3  H    0.431158
     4  H    0.412466
     5  C   -0.109616
     6  H    0.216903
     7  C    0.659937
     8  C   -0.384536
     9  H    0.177630
    10  H    0.187234
    11  O   -0.555112
    12  C    0.151245
    13  C   -0.187478
    14  H    0.139517
    15  C   -0.187509
    16  H    0.128596
    17  C   -0.126717
    18  H    0.188090
    19  C   -0.118996
    20  H    0.155587
    21  C   -0.123261
    22  H    0.156901
    23  N   -0.588613
    24  H    0.387986
    25  C   -0.078832
    26  H    0.192186
    27  C    0.659912
    28  C   -0.033746
    29  H    0.162858
    30  H    0.151404
    31  O   -0.533878
    32  O   -0.612016
    33  H    0.413188
    34  N   -0.613953
    35  H    0.353545
    36  C   -0.056015
    37  H    0.178346
    38  C    0.607592
    39  C   -0.041108
    40  H    0.180721
    41  H    0.144481
    42  O   -0.560258
    43  O   -0.633289
    44  H    0.412307
    45  N   -0.623322
    46  H    0.365349
    47  C   -0.055339
    48  H    0.202047
    49  C    0.604652
    50  C   -0.325628
    51  H    0.198371
    52  H    0.173163
    53  O   -0.544113
    54  C    0.556659
    55  O   -0.473083
    56  O   -0.572529
    57  N   -0.610413
    58  H    0.370388
    59  C   -0.065649
    60  H    0.185075
    61  C    0.607004
    62  C   -0.271526
    63  H    0.148155
    64  H    0.164284
    65  O   -0.622306
    66  C   -0.306228
    67  H    0.160497
    68  H    0.171913
    69  C   -0.146669
    70  H    0.164591
    71  H    0.163063
    72  N   -0.609450
    73  H    0.406762
    74  N   -0.755234
    75  H    0.363829
    76  H    0.370649
    77  N   -0.768349
    78  H    0.416979
    79  H    0.349817
    80  C    0.772034
    81  O   -0.582851
    82  H    0.448786
 Sum of Mulliken charges =   1.00000

 Dipole moment (field-independent basis, Debye):
    X=            -10.6258    Y=             -4.9447    Z=             -4.6780  Tot=             12.6191
 Quadrupole moment (field-independent basis, Debye-Ang):
   XX=             45.0755   YY=           -232.3104   ZZ=            -18.8605
   XY=            -23.8962   XZ=            258.1360   YZ=            -48.4688

 Normal termination of Gaussian 16 at Thu May 26 21:35:24 2022.
