 Gaussian 16, Revision C.01,
 Gaussian 16:  ES64L-G16RevC.01  3-Jul-2019

 -------------------------------------------------------------------
 # B3LYP/6-31G* guess=read geom=check nosymm integral(ultrafinegrid)
 -------------------------------------------------------------------

 ------------------------------------------------------
 Candidate Structure: Conf:669 Charge calc in gas phase
 ------------------------------------------------------
 Structure from the checkpoint file:  "conf-669.chk"
 Charge =  1 Multiplicity = 1

                          Input orientation:
 ---------------------------------------------------------------------
 Center     Atomic      Atomic             Coordinates (Angstroms)
 Number     Number       Type             X           Y           Z
 ---------------------------------------------------------------------
      1          7           0       -5.984757   -0.424806   -4.562775
      2          1           0       -6.267746   -0.225481   -5.524457
      3          1           0       -5.731249   -1.451109   -4.455407
      4          1           0       -6.753695   -0.196691   -3.910105
      5          6           0       -4.706072    0.260684   -4.140835
      6          1           0       -4.362167    0.880264   -4.972590
      7          6           0       -3.727441   -0.926331   -3.935538
      8          6           0       -4.927603    1.140895   -2.869741
      9          1           0       -3.961994    1.231738   -2.362846
     10          1           0       -5.217321    2.143751   -3.200193
     11          8           0       -4.186849   -2.074984   -3.980608
     12          6           0       -5.974231    0.590198   -1.920914
     13          6           0       -7.302605    1.044115   -2.012923
     14          1           0       -7.553367    1.848050   -2.704338
     15          6           0       -5.653849   -0.399759   -0.978812
     16          1           0       -4.627878   -0.746272   -0.885641
     17          6           0       -8.295583    0.516292   -1.181659
     18          1           0       -9.313906    0.887153   -1.253077
     19          6           0       -6.648141   -0.917681   -0.148296
     20          1           0       -6.388911   -1.674107    0.586793
     21          6           0       -7.967573   -0.467872   -0.249527
     22          1           0       -8.733836   -0.875204    0.403436
     23          7           0       -2.445491   -0.608401   -3.766782
     24          1           0       -2.159819    0.359961   -3.626592
     25          6           0       -1.444590   -1.543437   -3.278416
     26          1           0       -1.469128   -2.460693   -3.875407
     27          6           0       -1.712172   -1.861286   -1.790241
     28          6           0       -0.069430   -0.833083   -3.437508
     29          1           0        0.192841   -0.811979   -4.499589
     30          1           0        0.694358   -1.388944   -2.885465
     31          8           0       -2.435966   -1.141416   -1.109926
     32          8           0       -0.149454    0.520069   -3.015353
     33          1           0       -0.176440    0.566528   -2.027773
     34          7           0       -1.042896   -2.943440   -1.304823
     35          1           0       -0.354261   -3.379566   -1.908657
     36          6           0       -0.658371   -2.989504    0.100379
     37          1           0       -1.461301   -2.525581    0.678863
     38          6           0        0.640525   -2.156020    0.259916
     39          6           0       -0.480118   -4.439318    0.550678
     40          1           0       -1.446789   -4.956594    0.464131
     41          1           0       -0.171978   -4.457013    1.607033
     42          8           0        1.354124   -1.901787   -0.710909
     43          8           0        0.502468   -5.018432   -0.295014
     44          1           0        0.587093   -5.958351   -0.075779
     45          7           0        0.907111   -1.703798    1.501028
     46          1           0        0.347678   -1.935170    2.318560
     47          6           0        2.044674   -0.853808    1.793618
     48          1           0        2.901711   -1.188155    1.201695
     49          6           0        2.315194   -1.001878    3.310112
     50          6           0        1.761991    0.649279    1.477448
     51          1           0        0.958230    0.999490    2.130420
     52          1           0        2.667081    1.229607    1.676665
     53          8           0        1.433032   -1.457341    4.045262
     54          6           0        1.318756    0.868998    0.050507
     55          8           0        0.146798    0.856124   -0.300735
     56          8           0        2.336183    1.075824   -0.794925
     57          7           0        3.513325   -0.571028    3.723071
     58          1           0        4.222590   -0.197168    3.091352
     59          6           0        3.928199   -0.456024    5.118982
     60          1           0        3.087536   -0.092828    5.717642
     61          6           0        5.094538    0.570351    5.128170
     62          6           0        4.392844   -1.840478    5.647005
     63          1           0        5.337713   -2.095156    5.148215
     64          1           0        3.650757   -2.570014    5.304237
     65          8           0        5.310186    1.134370    6.254243
     66          6           0        4.519979   -2.027618    7.170544
     67          1           0        4.652128   -3.103331    7.361487
     68          1           0        3.570927   -1.758202    7.652194
     69          6           0        5.618436   -1.255634    7.916323
     70          1           0        5.441682   -0.187004    7.821727
     71          1           0        5.597965   -1.532696    8.978172
     72          7           0        6.967753   -1.549054    7.397337
     73          1           0        7.213717   -2.528310    7.331383
     74          7           0        7.722480    0.621710    6.967611
     75          1           0        8.526126    1.221185    6.836382
     76          1           0        6.746464    0.988797    6.647822
     77          7           0        9.216465   -1.157735    6.998958
     78          1           0        9.412834   -2.129375    7.188568
     79          1           0        9.872768   -0.680267    6.398277
     80          6           0        7.946505   -0.674030    7.107443
     81          8           0        5.746380    0.693533    4.077694
     82          1           0        1.968363    1.131184   -1.699713
 ---------------------------------------------------------------------

 SCF Done:  E(RB3LYP) =  -2166.27877683     A.U. after    1 cycles

 Alpha  occ. eigenvalues --  -19.26623 -19.25320 -19.22704 -19.22606 -19.21521
 Alpha  occ. eigenvalues --  -19.20740 -19.18593 -19.17269 -19.13475 -19.12976
 Alpha  occ. eigenvalues --  -14.57529 -14.47657 -14.46101 -14.45898 -14.43957
 Alpha  occ. eigenvalues --  -14.42734 -14.42327 -14.40569 -10.41868 -10.41361
 Alpha  occ. eigenvalues --  -10.39684 -10.39139 -10.37540 -10.35871 -10.34459
 Alpha  occ. eigenvalues --  -10.32985 -10.32235 -10.32024 -10.31771 -10.31139
 Alpha  occ. eigenvalues --  -10.31121 -10.30803 -10.30368 -10.29377 -10.28715
 Alpha  occ. eigenvalues --  -10.28551 -10.28328 -10.28243 -10.28028 -10.27137
 Alpha  occ. eigenvalues --  -10.26440 -10.25115 -10.23949  -1.17804  -1.17612
 Alpha  occ. eigenvalues --   -1.12773  -1.11724  -1.10832  -1.10021  -1.09811
 Alpha  occ. eigenvalues --   -1.09759  -1.08962  -1.08568  -1.06673  -1.04299
 Alpha  occ. eigenvalues --   -1.00649  -0.99495  -0.99305  -0.98697  -0.97009
 Alpha  occ. eigenvalues --   -0.96591  -0.95730  -0.91313  -0.87259  -0.86132
 Alpha  occ. eigenvalues --   -0.85084  -0.84382  -0.83946  -0.82585  -0.79844
 Alpha  occ. eigenvalues --   -0.77886  -0.76518  -0.73848  -0.73400  -0.72457
 Alpha  occ. eigenvalues --   -0.72117  -0.71197  -0.71032  -0.70210  -0.69577
 Alpha  occ. eigenvalues --   -0.68207  -0.67706  -0.67512  -0.66853  -0.65966
 Alpha  occ. eigenvalues --   -0.65273  -0.64337  -0.63532  -0.62627  -0.62037
 Alpha  occ. eigenvalues --   -0.61526  -0.60476  -0.59915  -0.59644  -0.59204
 Alpha  occ. eigenvalues --   -0.58880  -0.57710  -0.57123  -0.57018  -0.56254
 Alpha  occ. eigenvalues --   -0.55723  -0.55267  -0.55023  -0.54813  -0.54676
 Alpha  occ. eigenvalues --   -0.54148  -0.53592  -0.53285  -0.52735  -0.52533
 Alpha  occ. eigenvalues --   -0.52379  -0.51907  -0.51755  -0.51005  -0.50774
 Alpha  occ. eigenvalues --   -0.50576  -0.50006  -0.49637  -0.49433  -0.49335
 Alpha  occ. eigenvalues --   -0.49093  -0.48549  -0.47953  -0.47664  -0.47421
 Alpha  occ. eigenvalues --   -0.47239  -0.46232  -0.46143  -0.45692  -0.45514
 Alpha  occ. eigenvalues --   -0.45398  -0.44161  -0.43910  -0.43794  -0.43274
 Alpha  occ. eigenvalues --   -0.42917  -0.42481  -0.41901  -0.41783  -0.41541
 Alpha  occ. eigenvalues --   -0.40911  -0.39838  -0.39505  -0.38812  -0.38328
 Alpha  occ. eigenvalues --   -0.38323  -0.36505  -0.36299  -0.35395  -0.35212
 Alpha  occ. eigenvalues --   -0.34941  -0.34734  -0.34488  -0.33960  -0.33836
 Alpha  occ. eigenvalues --   -0.33070  -0.32049  -0.31261  -0.30955  -0.28935
 Alpha  occ. eigenvalues --   -0.27886  -0.27202
 Alpha virt. eigenvalues --   -0.11384  -0.10747  -0.10082  -0.07889  -0.07390
 Alpha virt. eigenvalues --   -0.06944  -0.05878  -0.04967  -0.03215  -0.03043
 Alpha virt. eigenvalues --   -0.02551  -0.01229  -0.00630  -0.00223   0.00525

 Mulliken charges:
               1
     1  N   -0.763840
     2  H    0.406676
     3  H    0.431143
     4  H    0.404014
     5  C   -0.106358
     6  H    0.214204
     7  C    0.663671
     8  C   -0.378495
     9  H    0.221065
    10  H    0.184293
    11  O   -0.538768
    12  C    0.088568
    13  C   -0.226592
    14  H    0.142463
    15  C   -0.183617
    16  H    0.215372
    17  C   -0.120080
    18  H    0.159762
    19  C   -0.132061
    20  H    0.160445
    21  C   -0.123385
    22  H    0.161520
    23  N   -0.583187
    24  H    0.367758
    25  C   -0.105284
    26  H    0.190841
    27  C    0.633637
    28  C   -0.085497
    29  H    0.168699
    30  H    0.202855
    31  O   -0.522127
    32  O   -0.677526
    33  H    0.451010
    34  N   -0.573490
    35  H    0.356005
    36  C   -0.108512
    37  H    0.196240
    38  C    0.660036
    39  C   -0.033978
    40  H    0.150299
    41  H    0.148240
    42  O   -0.549696
    43  O   -0.619652
    44  H    0.411266
    45  N   -0.613141
    46  H    0.356107
    47  C   -0.061779
    48  H    0.197636
    49  C    0.624764
    50  C   -0.330433
    51  H    0.191241
    52  H    0.196139
    53  O   -0.553908
    54  C    0.611914
    55  O   -0.499812
    56  O   -0.545654
    57  N   -0.616064
    58  H    0.354652
    59  C   -0.028889
    60  H    0.164201
    61  C    0.584855
    62  C   -0.263816
    63  H    0.133214
    64  H    0.164463
    65  O   -0.628458
    66  C   -0.287629
    67  H    0.131886
    68  H    0.166744
    69  C   -0.161335
    70  H    0.235590
    71  H    0.160355
    72  N   -0.601449
    73  H    0.335901
    74  N   -0.764235
    75  H    0.345071
    76  H    0.445994
    77  N   -0.765449
    78  H    0.355801
    79  H    0.365647
    80  C    0.783694
    81  O   -0.560843
    82  H    0.419087
 Sum of Mulliken charges =   1.00000

 Dipole moment (field-independent basis, Debye):
    X=             -5.6622    Y=             -8.2448    Z=             -3.4170  Tot=             10.5694
 Quadrupole moment (field-independent basis, Debye-Ang):
   XX=             22.3393   YY=           -212.3406   ZZ=            -94.6417
   XY=            -40.9994   XZ=            184.2963   YZ=            -45.1956

 Normal termination of Gaussian 16 at Thu May 26 21:35:22 2022.
