 Gaussian 16, Revision C.01,
 Gaussian 16:  ES64L-G16RevC.01  3-Jul-2019

 -------------------------------------------------------------------
 # B3LYP/6-31G* guess=read geom=check nosymm integral(ultrafinegrid)
 -------------------------------------------------------------------

 -----------------------------------------------------
 Candidate Structure: Conf:34 Charge calc in gas phase
 -----------------------------------------------------
 Structure from the checkpoint file:  "conf-34.chk"
 Charge =  1 Multiplicity = 1

                          Input orientation:
 ---------------------------------------------------------------------
 Center     Atomic      Atomic             Coordinates (Angstroms)
 Number     Number       Type             X           Y           Z
 ---------------------------------------------------------------------
      1          7           0       -6.230383   -0.333850   -6.315169
      2          1           0       -6.258610    0.212309   -7.180538
      3          1           0       -5.553431   -1.134819   -6.452292
      4          1           0       -7.186327   -0.645398   -6.087173
      5          6           0       -5.608398    0.422386   -5.165014
      6          1           0       -5.696176    1.490508   -5.373019
      7          6           0       -4.135958   -0.067744   -5.183952
      8          6           0       -6.328706    0.054930   -3.843751
      9          1           0       -6.085735   -0.984538   -3.592460
     10          1           0       -5.894177    0.678937   -3.055220
     11          8           0       -3.895624   -1.110113   -5.804542
     12          6           0       -7.829007    0.243329   -3.931827
     13          6           0       -8.401089    1.521245   -3.841958
     14          1           0       -7.769551    2.385119   -3.645319
     15          6           0       -8.666820   -0.860168   -4.162217
     16          1           0       -8.246121   -1.864816   -4.181344
     17          6           0       -9.778041    1.690614   -3.978086
     18          1           0      -10.209583    2.683497   -3.892281
     19          6           0      -10.047953   -0.688560   -4.304058
     20          1           0      -10.684887   -1.552891   -4.467164
     21          6           0      -10.603522    0.586985   -4.214526
     22          1           0      -11.676033    0.722311   -4.316083
     23          7           0       -3.273977    0.671231   -4.491439
     24          1           0       -3.589073    1.414475   -3.865056
     25          6           0       -1.874519    0.333023   -4.260156
     26          1           0       -1.751139   -0.748439   -4.367436
     27          6           0       -1.579446    0.814734   -2.819486
     28          6           0       -0.954107    1.049928   -5.262403
     29          1           0        0.083711    0.748940   -5.057215
     30          1           0       -1.028551    2.136965   -5.099642
     31          8           0       -2.362105    1.598874   -2.274351
     32          8           0       -1.367823    0.682522   -6.564351
     33          1           0       -0.743548    1.066170   -7.199270
     34          7           0       -0.444454    0.360255   -2.270608
     35          1           0        0.201224   -0.245667   -2.774808
     36          6           0        0.076102    0.811847   -0.989692
     37          1           0       -0.106403    1.885459   -0.877121
     38          6           0        1.578251    0.506596   -1.008534
     39          6           0       -0.610556    0.079762    0.205237
     40          1           0       -0.490406   -1.003875    0.066720
     41          1           0       -1.677623    0.318838    0.162556
     42          8           0        2.060684   -0.247081   -1.853126
     43          8           0       -0.109710    0.514689    1.447504
     44          1           0        0.660300   -0.055033    1.677100
     45          7           0        2.284377    1.107281   -0.014525
     46          1           0        1.712547    1.520460    0.717993
     47          6           0        3.572864    0.580507    0.404283
     48          1           0        4.099816    0.257069   -0.496587
     49          6           0        3.364784   -0.647465    1.333228
     50          6           0        4.385512    1.682972    1.115906
     51          1           0        3.859566    2.033673    2.008534
     52          1           0        5.353289    1.277911    1.429494
     53          8           0        2.242993   -0.952511    1.768339
     54          6           0        4.623075    2.882786    0.219629
     55          8           0        4.211953    4.001882    0.417337
     56          8           0        5.370150    2.548151   -0.861279
     57          7           0        4.478641   -1.324465    1.628241
     58          1           0        5.404301   -1.043341    1.298892
     59          6           0        4.580503   -2.396398    2.615545
     60          1           0        3.939581   -2.154186    3.469355
     61          6           0        6.077618   -2.393559    3.061398
     62          6           0        4.098497   -3.738839    1.985564
     63          1           0        4.861505   -4.093415    1.279236
     64          1           0        3.223095   -3.474975    1.384922
     65          8           0        6.329694   -2.986664    4.167973
     66          6           0        3.669834   -4.878789    2.946433
     67          1           0        2.758932   -5.344908    2.552973
     68          1           0        3.392999   -4.467763    3.925965
     69          6           0        4.676487   -6.022145    3.156016
     70          1           0        4.196966   -6.821776    3.736832
     71          1           0        4.975025   -6.445850    2.187931
     72          7           0        5.856578   -5.523677    3.862332
     73          1           0        5.799569   -4.528433    4.188006
     74          7           0        7.398476   -7.111830    3.112737
     75          1           0        8.360309   -7.396778    2.999848
     76          1           0        6.725327   -7.856808    3.217446
     77          7           0        8.089789   -5.031271    3.944430
     78          1           0        7.794222   -4.044199    4.091921
     79          1           0        9.063993   -5.286581    3.893691
     80          6           0        7.116324   -5.895487    3.644820
     81          8           0        6.893242   -1.844257    2.305984
     82          1           0        5.478503    3.364499   -1.384859
 ---------------------------------------------------------------------

 SCF Done:  E(RB3LYP) =  -2166.27896873     A.U. after    1 cycles

 Alpha  occ. eigenvalues --  -19.25483 -19.24740 -19.23853 -19.21247 -19.19236
 Alpha  occ. eigenvalues --  -19.19236 -19.19020 -19.18048 -19.14179 -19.13419
 Alpha  occ. eigenvalues --  -14.58819 -14.48386 -14.46266 -14.44915 -14.43548
 Alpha  occ. eigenvalues --  -14.42804 -14.42475 -14.40689 -10.42463 -10.40864
 Alpha  occ. eigenvalues --  -10.39895 -10.38455 -10.37363 -10.35927 -10.34705
 Alpha  occ. eigenvalues --  -10.33858 -10.33530 -10.33436 -10.31836 -10.31650
 Alpha  occ. eigenvalues --  -10.30596 -10.30342 -10.30245 -10.30216 -10.30047
 Alpha  occ. eigenvalues --  -10.29947 -10.29817 -10.29660 -10.29569 -10.26981
 Alpha  occ. eigenvalues --  -10.26492 -10.25575 -10.24381  -1.18039  -1.15565
 Alpha  occ. eigenvalues --   -1.13428  -1.12717  -1.11340  -1.11100  -1.09641
 Alpha  occ. eigenvalues --   -1.09273  -1.07075  -1.06833  -1.06595  -1.04996
 Alpha  occ. eigenvalues --   -1.01313  -0.99552  -0.99492  -0.98338  -0.97524
 Alpha  occ. eigenvalues --   -0.97223  -0.96915  -0.92610  -0.88183  -0.86255
 Alpha  occ. eigenvalues --   -0.85588  -0.85362  -0.84927  -0.81904  -0.79843
 Alpha  occ. eigenvalues --   -0.79023  -0.75498  -0.74981  -0.73096  -0.73028
 Alpha  occ. eigenvalues --   -0.72614  -0.72117  -0.71275  -0.71208  -0.69779
 Alpha  occ. eigenvalues --   -0.69676  -0.67620  -0.66926  -0.66290  -0.66004
 Alpha  occ. eigenvalues --   -0.65585  -0.64428  -0.63468  -0.63194  -0.62729
 Alpha  occ. eigenvalues --   -0.62320  -0.61049  -0.60617  -0.59145  -0.58447
 Alpha  occ. eigenvalues --   -0.58222  -0.58122  -0.57644  -0.56983  -0.56917
 Alpha  occ. eigenvalues --   -0.56175  -0.55564  -0.55209  -0.54767  -0.54219
 Alpha  occ. eigenvalues --   -0.54064  -0.53766  -0.53503  -0.53293  -0.52972
 Alpha  occ. eigenvalues --   -0.52820  -0.52231  -0.52121  -0.51652  -0.51016
 Alpha  occ. eigenvalues --   -0.50826  -0.50343  -0.50200  -0.49742  -0.49522
 Alpha  occ. eigenvalues --   -0.49156  -0.48799  -0.48182  -0.47772  -0.47017
 Alpha  occ. eigenvalues --   -0.46930  -0.46579  -0.45774  -0.45710  -0.45466
 Alpha  occ. eigenvalues --   -0.45357  -0.45071  -0.44654  -0.44210  -0.44096
 Alpha  occ. eigenvalues --   -0.43717  -0.42924  -0.42534  -0.41728  -0.40861
 Alpha  occ. eigenvalues --   -0.40216  -0.40070  -0.39075  -0.38556  -0.38065
 Alpha  occ. eigenvalues --   -0.36895  -0.36800  -0.36550  -0.36296  -0.35983
 Alpha  occ. eigenvalues --   -0.35778  -0.35363  -0.33654  -0.33442  -0.33325
 Alpha  occ. eigenvalues --   -0.32922  -0.31778  -0.31442  -0.30860  -0.29309
 Alpha  occ. eigenvalues --   -0.28533  -0.27707
 Alpha virt. eigenvalues --   -0.12498  -0.11947  -0.10186  -0.09165  -0.07121
 Alpha virt. eigenvalues --   -0.05555  -0.05505  -0.04777  -0.04007  -0.02584
 Alpha virt. eigenvalues --   -0.02333  -0.02215  -0.01363  -0.01033  -0.00368

 Mulliken charges:
               1
     1  N   -0.750547
     2  H    0.415337
     3  H    0.426713
     4  H    0.403179
     5  C   -0.114842
     6  H    0.212263
     7  C    0.668799
     8  C   -0.387368
     9  H    0.193577
    10  H    0.212591
    11  O   -0.529861
    12  C    0.140151
    13  C   -0.180861
    14  H    0.147896
    15  C   -0.229688
    16  H    0.149879
    17  C   -0.122441
    18  H    0.167511
    19  C   -0.120361
    20  H    0.166113
    21  C   -0.123831
    22  H    0.168357
    23  N   -0.593946
    24  H    0.367911
    25  C   -0.091932
    26  H    0.203971
    27  C    0.628292
    28  C   -0.019352
    29  H    0.155820
    30  H    0.145018
    31  O   -0.543883
    32  O   -0.613787
    33  H    0.411362
    34  N   -0.620632
    35  H    0.362659
    36  C   -0.072937
    37  H    0.194350
    38  C    0.604544
    39  C   -0.032510
    40  H    0.141149
    41  H    0.166678
    42  O   -0.536225
    43  O   -0.649243
    44  H    0.444909
    45  N   -0.591841
    46  H    0.350811
    47  C   -0.091613
    48  H    0.215455
    49  C    0.646583
    50  C   -0.365151
    51  H    0.187409
    52  H    0.203650
    53  O   -0.575753
    54  C    0.581123
    55  O   -0.447941
    56  O   -0.559759
    57  N   -0.606093
    58  H    0.363270
    59  C   -0.049187
    60  H    0.169551
    61  C    0.595746
    62  C   -0.272334
    63  H    0.144193
    64  H    0.171850
    65  O   -0.639325
    66  C   -0.305079
    67  H    0.156512
    68  H    0.170588
    69  C   -0.144354
    70  H    0.160224
    71  H    0.160630
    72  N   -0.611895
    73  H    0.410845
    74  N   -0.754848
    75  H    0.361239
    76  H    0.368457
    77  N   -0.773834
    78  H    0.420471
    79  H    0.348678
    80  C    0.769601
    81  O   -0.548180
    82  H    0.415516
 Sum of Mulliken charges =   1.00000

 Dipole moment (field-independent basis, Debye):
    X=            -14.3371    Y=            -11.8655    Z=            -19.7371  Tot=             27.1274
 Quadrupole moment (field-independent basis, Debye-Ang):
   XX=             26.3749   YY=           -138.8501   ZZ=           -109.2477
   XY=            -99.4864   XZ=            165.1804   YZ=            -62.3264

 Normal termination of Gaussian 16 at Thu May 26 21:15:21 2022.
