 Gaussian 16, Revision C.01,
 Gaussian 16:  ES64L-G16RevC.01  3-Jul-2019

 -------------------------------------------------------------------
 # B3LYP/6-31G* guess=read geom=check nosymm integral(ultrafinegrid)
 -------------------------------------------------------------------

 ------------------------------------------------------
 Candidate Structure: Conf:896 Charge calc in gas phase
 ------------------------------------------------------
 Structure from the checkpoint file:  "conf-896.chk"
 Charge =  1 Multiplicity = 1

                          Input orientation:
 ---------------------------------------------------------------------
 Center     Atomic      Atomic             Coordinates (Angstroms)
 Number     Number       Type             X           Y           Z
 ---------------------------------------------------------------------
      1          7           0        3.323419   -1.692092   -2.789894
      2          1           0        3.628236   -0.788635   -3.175550
      3          1           0        2.770908   -1.448886   -1.924715
      4          1           0        4.131536   -2.270144   -2.534024
      5          6           0        2.433110   -2.432877   -3.759297
      6          1           0        3.036346   -2.602975   -4.657409
      7          6           0        1.329809   -1.411314   -4.129439
      8          6           0        2.021844   -3.781882   -3.142177
      9          1           0        1.392063   -3.601465   -2.263359
     10          1           0        1.420826   -4.318290   -3.886834
     11          8           0        1.676210   -0.253648   -4.352828
     12          6           0        3.222646   -4.625721   -2.751933
     13          6           0        3.935339   -5.347659   -3.720547
     14          1           0        3.601223   -5.342250   -4.756231
     15          6           0        3.658033   -4.663751   -1.418541
     16          1           0        3.098013   -4.129413   -0.653063
     17          6           0        5.059543   -6.091830   -3.363754
     18          1           0        5.596417   -6.654340   -4.121860
     19          6           0        4.785807   -5.408064   -1.062277
     20          1           0        5.106489   -5.437172   -0.025041
     21          6           0        5.488081   -6.121388   -2.034167
     22          1           0        6.361092   -6.704675   -1.757198
     23          7           0        0.047605   -1.840495   -4.184230
     24          1           0       -0.152640   -2.803639   -3.942785
     25          6           0       -1.079553   -0.891585   -4.228212
     26          1           0       -0.759029   -0.040007   -4.830199
     27          6           0       -1.429743   -0.302983   -2.836780
     28          6           0       -2.307710   -1.522115   -4.905279
     29          1           0       -3.133840   -0.814781   -4.806020
     30          1           0       -2.596588   -2.447761   -4.377102
     31          8           0       -2.047107    0.742931   -2.760434
     32          8           0       -2.122431   -1.733775   -6.287730
     33          1           0       -1.463861   -2.433640   -6.413652
     34          7           0       -1.045174   -1.052599   -1.751110
     35          1           0       -0.417597   -1.823719   -1.926200
     36          6           0       -0.793989   -0.439282   -0.458643
     37          1           0       -1.213330    0.571173   -0.488635
     38          6           0        0.738771   -0.360966   -0.285668
     39          6           0       -1.446561   -1.228035    0.679780
     40          1           0       -2.527520   -1.269671    0.489496
     41          1           0       -1.282888   -0.702513    1.633440
     42          8           0        1.472827   -1.128431   -0.946630
     43          8           0       -0.857210   -2.521525    0.686973
     44          1           0       -1.325221   -3.065207    1.338665
     45          7           0        1.218900    0.544800    0.565839
     46          1           0        0.608771    1.161165    1.098678
     47          6           0        2.629151    0.871654    0.686246
     48          1           0        3.209050   -0.038079    0.517934
     49          6           0        2.832661    1.422659    2.115893
     50          6           0        3.064084    1.986122   -0.327043
     51          1           0        2.722166    2.948506    0.065068
     52          1           0        4.154495    2.001501   -0.399472
     53          8           0        1.894730    2.005027    2.666496
     54          6           0        2.418716    1.833120   -1.687767
     55          8           0        1.270708    2.127568   -1.925959
     56          8           0        3.238352    1.299216   -2.638987
     57          7           0        4.060196    1.257037    2.618674
     58          1           0        4.823406    0.806128    2.105952
     59          6           0        4.571705    1.893141    3.830200
     60          1           0        4.274982    2.948457    3.827924
     61          6           0        6.130989    1.797556    3.698113
     62          6           0        3.979854    1.212657    5.103897
     63          1           0        4.538728    0.291778    5.318242
     64          1           0        2.969179    0.902741    4.825840
     65          8           0        6.797990    2.512645    4.519975
     66          6           0        3.853595    2.089458    6.379463
     67          1           0        2.863433    1.932940    6.821798
     68          1           0        3.893778    3.153318    6.112991
     69          6           0        4.873238    1.823222    7.497404
     70          1           0        4.621561    2.442945    8.368861
     71          1           0        4.830555    0.771867    7.812777
     72          7           0        6.217440    2.139597    7.017263
     73          1           0        6.281532    2.519915    6.037591
     74          7           0        7.451759    0.962533    8.612111
     75          1           0        8.310790    0.508419    8.884515
     76          1           0        6.824368    1.233161    9.354761
     77          7           0        8.375657    1.537735    6.540443
     78          1           0        8.176072    1.859452    5.577773
     79          1           0        9.323778    1.386839    6.849938
     80          6           0        7.348243    1.558686    7.400158
     81          8           0        6.581593    1.044644    2.821070
     82          1           0        2.675329    1.209101   -3.440866
 ---------------------------------------------------------------------

 SCF Done:  E(RB3LYP) =  -2166.27856170     A.U. after    1 cycles

 Alpha  occ. eigenvalues --  -19.28439 -19.25357 -19.24266 -19.24186 -19.23298
 Alpha  occ. eigenvalues --  -19.22516 -19.20376 -19.19399 -19.15910 -19.15167
 Alpha  occ. eigenvalues --  -14.56433 -14.49719 -14.47509 -14.47010 -14.45051
 Alpha  occ. eigenvalues --  -14.44814 -14.44093 -14.42643 -10.42968 -10.42194
 Alpha  occ. eigenvalues --  -10.40937 -10.40589 -10.39281 -10.37830 -10.36706
 Alpha  occ. eigenvalues --  -10.33977 -10.33468 -10.33267 -10.33210 -10.33173
 Alpha  occ. eigenvalues --  -10.33157 -10.32881 -10.31311 -10.31263 -10.29889
 Alpha  occ. eigenvalues --  -10.29789 -10.29642 -10.29360 -10.29284 -10.29073
 Alpha  occ. eigenvalues --  -10.28785 -10.26811 -10.25919  -1.19133  -1.17615
 Alpha  occ. eigenvalues --   -1.15482  -1.12540  -1.11529  -1.11438  -1.11249
 Alpha  occ. eigenvalues --   -1.10931  -1.10877  -1.10081  -1.08777  -1.05604
 Alpha  occ. eigenvalues --   -1.03541  -1.01475  -1.01155  -0.99922  -0.98909
 Alpha  occ. eigenvalues --   -0.98770  -0.96695  -0.92082  -0.89139  -0.87427
 Alpha  occ. eigenvalues --   -0.86704  -0.85278  -0.84938  -0.83981  -0.81671
 Alpha  occ. eigenvalues --   -0.78928  -0.78677  -0.75273  -0.74740  -0.73625
 Alpha  occ. eigenvalues --   -0.72757  -0.72277  -0.71606  -0.71360  -0.70668
 Alpha  occ. eigenvalues --   -0.69577  -0.68953  -0.68603  -0.68434  -0.67509
 Alpha  occ. eigenvalues --   -0.67338  -0.65853  -0.64827  -0.64617  -0.63969
 Alpha  occ. eigenvalues --   -0.62341  -0.61701  -0.61157  -0.60821  -0.60096
 Alpha  occ. eigenvalues --   -0.59768  -0.59448  -0.59063  -0.58718  -0.57731
 Alpha  occ. eigenvalues --   -0.57205  -0.56986  -0.56861  -0.56473  -0.56193
 Alpha  occ. eigenvalues --   -0.55527  -0.55511  -0.55200  -0.54665  -0.54360
 Alpha  occ. eigenvalues --   -0.53864  -0.53444  -0.52786  -0.52517  -0.52185
 Alpha  occ. eigenvalues --   -0.51941  -0.51770  -0.51212  -0.51050  -0.50704
 Alpha  occ. eigenvalues --   -0.50401  -0.50115  -0.49638  -0.49161  -0.48843
 Alpha  occ. eigenvalues --   -0.48477  -0.48087  -0.47642  -0.47243  -0.46867
 Alpha  occ. eigenvalues --   -0.46550  -0.46283  -0.46056  -0.45828  -0.45057
 Alpha  occ. eigenvalues --   -0.44953  -0.44573  -0.43687  -0.43081  -0.42341
 Alpha  occ. eigenvalues --   -0.42150  -0.41610  -0.40955  -0.40747  -0.40194
 Alpha  occ. eigenvalues --   -0.39116  -0.38604  -0.38031  -0.37594  -0.36588
 Alpha  occ. eigenvalues --   -0.36319  -0.35918  -0.35643  -0.35303  -0.34886
 Alpha  occ. eigenvalues --   -0.34799  -0.33503  -0.33297  -0.32998  -0.30956
 Alpha  occ. eigenvalues --   -0.30431  -0.29544
 Alpha virt. eigenvalues --   -0.12511  -0.11287  -0.10936  -0.09520  -0.08825
 Alpha virt. eigenvalues --   -0.07096  -0.06909  -0.05650  -0.04941  -0.04485
 Alpha virt. eigenvalues --   -0.03456  -0.02218  -0.01761  -0.01285  -0.00970

 Mulliken charges:
               1
     1  N   -0.773888
     2  H    0.422303
     3  H    0.452445
     4  H    0.401647
     5  C   -0.104305
     6  H    0.223605
     7  C    0.668918
     8  C   -0.408079
     9  H    0.203165
    10  H    0.182266
    11  O   -0.532488
    12  C    0.124319
    13  C   -0.180161
    14  H    0.141945
    15  C   -0.216495
    16  H    0.155658
    17  C   -0.124878
    18  H    0.163905
    19  C   -0.122768
    20  H    0.160616
    21  C   -0.123056
    22  H    0.164081
    23  N   -0.649350
    24  H    0.347712
    25  C   -0.075513
    26  H    0.234560
    27  C    0.609509
    28  C   -0.056692
    29  H    0.206961
    30  H    0.128687
    31  O   -0.478761
    32  O   -0.587501
    33  H    0.391959
    34  N   -0.587062
    35  H    0.335008
    36  C   -0.110133
    37  H    0.221617
    38  C    0.685235
    39  C   -0.028965
    40  H    0.166038
    41  H    0.146078
    42  O   -0.623065
    43  O   -0.629162
    44  H    0.412160
    45  N   -0.579658
    46  H    0.371417
    47  C   -0.065577
    48  H    0.166276
    49  C    0.627853
    50  C   -0.342553
    51  H    0.213215
    52  H    0.192029
    53  O   -0.547179
    54  C    0.575949
    55  O   -0.440083
    56  O   -0.621500
    57  N   -0.620763
    58  H    0.354408
    59  C   -0.053145
    60  H    0.170978
    61  C    0.598986
    62  C   -0.277882
    63  H    0.143287
    64  H    0.174985
    65  O   -0.630829
    66  C   -0.305886
    67  H    0.163489
    68  H    0.171417
    69  C   -0.144313
    70  H    0.162867
    71  H    0.162119
    72  N   -0.613791
    73  H    0.416326
    74  N   -0.756478
    75  H    0.364152
    76  H    0.371901
    77  N   -0.779011
    78  H    0.416717
    79  H    0.350920
    80  C    0.771909
    81  O   -0.549977
    82  H    0.449348
 Sum of Mulliken charges =   1.00000

 Dipole moment (field-independent basis, Debye):
    X=             19.5817    Y=            -12.9716    Z=              8.2680  Tot=             24.9011
 Quadrupole moment (field-independent basis, Debye-Ang):
   XX=           -121.1857   YY=           -205.8065   ZZ=            -56.9672
   XY=            -21.5515   XZ=             82.4883   YZ=             56.5413

 Normal termination of Gaussian 16 at Thu May 26 21:35:14 2022.
