 Gaussian 16, Revision C.01,
 Gaussian 16:  ES64L-G16RevC.01  3-Jul-2019

 -------------------------------------------------------------------
 # B3LYP/6-31G* guess=read geom=check nosymm integral(ultrafinegrid)
 -------------------------------------------------------------------

 ------------------------------------------------------
 Candidate Structure: Conf:883 Charge calc in gas phase
 ------------------------------------------------------
 Structure from the checkpoint file:  "conf-883.chk"
 Charge =  1 Multiplicity = 1

                          Input orientation:
 ---------------------------------------------------------------------
 Center     Atomic      Atomic             Coordinates (Angstroms)
 Number     Number       Type             X           Y           Z
 ---------------------------------------------------------------------
      1          7           0       -5.871716   -2.439666   -4.896841
      2          1           0       -6.116284   -1.654010   -5.507617
      3          1           0       -5.081984   -2.984607   -5.355001
      4          1           0       -6.702457   -3.021251   -4.754938
      5          6           0       -5.213987   -2.002986   -3.599522
      6          1           0       -5.553502   -0.993936   -3.357693
      7          6           0       -3.709836   -2.060702   -3.978101
      8          6           0       -5.588172   -3.006439   -2.481849
      9          1           0       -6.681835   -3.001873   -2.377929
     10          1           0       -5.288657   -4.009517   -2.810448
     11          8           0       -3.403196   -2.836524   -4.894822
     12          6           0       -4.937687   -2.676884   -1.153526
     13          6           0       -3.761195   -3.327381   -0.757827
     14          1           0       -3.328086   -4.096724   -1.393329
     15          6           0       -5.489685   -1.695990   -0.318250
     16          1           0       -6.415111   -1.197020   -0.600763
     17          6           0       -3.134817   -2.994537    0.443643
     18          1           0       -2.205742   -3.485027    0.719640
     19          6           0       -4.870076   -1.368214    0.888425
     20          1           0       -5.310143   -0.612324    1.532253
     21          6           0       -3.691060   -2.013277    1.266710
     22          1           0       -3.207321   -1.752105    2.203253
     23          7           0       -2.881152   -1.296260   -3.276039
     24          1           0       -3.210745   -0.767175   -2.471790
     25          6           0       -1.424283   -1.327179   -3.416727
     26          1           0       -1.157778   -2.266041   -3.908091
     27          6           0       -0.867460   -1.218389   -1.989334
     28          6           0       -0.916504   -0.145436   -4.260764
     29          1           0        0.175964   -0.233533   -4.350843
     30          1           0       -1.124009    0.795363   -3.735041
     31          8           0       -1.416481   -0.442721   -1.196225
     32          8           0       -1.570016   -0.220507   -5.516507
     33          1           0       -1.193374    0.468160   -6.085627
     34          7           0        0.189031   -1.998147   -1.698708
     35          1           0        0.665032   -2.464668   -2.463036
     36          6           0        0.989098   -1.827511   -0.483854
     37          1           0        0.329940   -1.385690    0.266020
     38          6           0        2.154456   -0.891196   -0.861462
     39          6           0        1.518279   -3.164066    0.031721
     40          1           0        2.175957   -2.962761    0.890051
     41          1           0        2.130194   -3.637569   -0.750724
     42          8           0        2.809500   -1.117284   -1.870917
     43          8           0        0.402275   -3.969590    0.390730
     44          1           0        0.742388   -4.778464    0.802898
     45          7           0        2.341158    0.171010   -0.030988
     46          1           0        1.649190    0.318604    0.693576
     47          6           0        3.118068    1.341994   -0.436228
     48          1           0        3.492377    1.113364   -1.438479
     49          6           0        4.348254    1.620941    0.454686
     50          6           0        2.200734    2.596070   -0.514776
     51          1           0        2.014389    2.993538    0.487026
     52          1           0        2.704109    3.360910   -1.107026
     53          8           0        4.974255    2.670176    0.313588
     54          6           0        0.893458    2.185846   -1.159587
     55          8           0        0.701487    2.057709   -2.351774
     56          8           0       -0.029823    1.852483   -0.225017
     57          7           0        4.637253    0.644647    1.333622
     58          1           0        4.109293   -0.226057    1.352878
     59          6           0        5.838000    0.563533    2.149811
     60          1           0        6.717496    0.723847    1.512729
     61          6           0        5.872179   -0.910077    2.683678
     62          6           0        5.833536    1.664488    3.258688
     63          1           0        5.254165    1.314099    4.123785
     64          1           0        5.279277    2.502409    2.830525
     65          8           0        6.955318   -1.255388    3.275522
     66          6           0        7.214772    2.213769    3.707821
     67          1           0        7.179515    3.308683    3.726771
     68          1           0        7.982637    1.954367    2.968113
     69          6           0        7.701213    1.766946    5.094392
     70          1           0        8.662433    2.249860    5.317650
     71          1           0        6.983158    2.077180    5.867174
     72          7           0        7.843217    0.313184    5.106026
     73          1           0        7.634221   -0.191165    4.194150
     74          7           0        8.003569   -0.059170    7.412842
     75          1           0        7.621640   -0.559391    8.201684
     76          1           0        8.285671    0.896705    7.568214
     77          7           0        7.384043   -1.768555    5.951535
     78          1           0        7.137071   -2.013353    4.978339
     79          1           0        7.686205   -2.489635    6.590326
     80          6           0        7.747391   -0.488380    6.153336
     81          8           0        4.873952   -1.621120    2.496252
     82          1           0       -0.747643    1.352035   -0.672278
 ---------------------------------------------------------------------

 SCF Done:  E(RB3LYP) =  -2166.26077712     A.U. after    1 cycles

 Alpha  occ. eigenvalues --  -19.25890 -19.25168 -19.23182 -19.22854 -19.22434
 Alpha  occ. eigenvalues --  -19.20136 -19.19148 -19.15030 -19.14033 -19.13124
 Alpha  occ. eigenvalues --  -14.59924 -14.49116 -14.46554 -14.46010 -14.43663
 Alpha  occ. eigenvalues --  -14.43345 -14.42585 -14.38797 -10.42852 -10.40592
 Alpha  occ. eigenvalues --  -10.40470 -10.39617 -10.38243 -10.36467 -10.34059
 Alpha  occ. eigenvalues --  -10.33762 -10.32649 -10.32279 -10.31906 -10.31660
 Alpha  occ. eigenvalues --  -10.31447 -10.30313 -10.29804 -10.29776 -10.28875
 Alpha  occ. eigenvalues --  -10.28536 -10.28174 -10.27862 -10.27689 -10.26254
 Alpha  occ. eigenvalues --  -10.26096 -10.24886 -10.23577  -1.18613  -1.16183
 Alpha  occ. eigenvalues --   -1.14314  -1.13444  -1.11276  -1.10610  -1.09966
 Alpha  occ. eigenvalues --   -1.09369  -1.07311  -1.07211  -1.06445  -1.05465
 Alpha  occ. eigenvalues --   -1.02605  -1.00317  -0.99246  -0.97850  -0.97288
 Alpha  occ. eigenvalues --   -0.96064  -0.95322  -0.92244  -0.88248  -0.85923
 Alpha  occ. eigenvalues --   -0.84887  -0.84488  -0.83747  -0.83218  -0.79336
 Alpha  occ. eigenvalues --   -0.79193  -0.75637  -0.74891  -0.73640  -0.72934
 Alpha  occ. eigenvalues --   -0.72884  -0.72276  -0.71019  -0.70397  -0.69929
 Alpha  occ. eigenvalues --   -0.69068  -0.67770  -0.67040  -0.66637  -0.65872
 Alpha  occ. eigenvalues --   -0.65615  -0.65361  -0.63089  -0.63037  -0.62381
 Alpha  occ. eigenvalues --   -0.61192  -0.60853  -0.60480  -0.59504  -0.59081
 Alpha  occ. eigenvalues --   -0.58503  -0.58357  -0.57419  -0.56820  -0.56791
 Alpha  occ. eigenvalues --   -0.56271  -0.55835  -0.55576  -0.55104  -0.54491
 Alpha  occ. eigenvalues --   -0.54356  -0.54008  -0.53593  -0.53313  -0.53143
 Alpha  occ. eigenvalues --   -0.52770  -0.52068  -0.51725  -0.51255  -0.50923
 Alpha  occ. eigenvalues --   -0.50888  -0.50061  -0.49817  -0.49688  -0.49278
 Alpha  occ. eigenvalues --   -0.48885  -0.48461  -0.48061  -0.47537  -0.46895
 Alpha  occ. eigenvalues --   -0.46343  -0.46082  -0.45478  -0.45242  -0.44883
 Alpha  occ. eigenvalues --   -0.44505  -0.44229  -0.44004  -0.43884  -0.43615
 Alpha  occ. eigenvalues --   -0.43426  -0.43088  -0.41866  -0.41813  -0.40703
 Alpha  occ. eigenvalues --   -0.40619  -0.39835  -0.39180  -0.38763  -0.38269
 Alpha  occ. eigenvalues --   -0.38048  -0.36923  -0.36431  -0.36291  -0.35446
 Alpha  occ. eigenvalues --   -0.35149  -0.34238  -0.34136  -0.34045  -0.33485
 Alpha  occ. eigenvalues --   -0.33415  -0.32603  -0.29952  -0.29225  -0.28488
 Alpha  occ. eigenvalues --   -0.28107  -0.27323
 Alpha virt. eigenvalues --   -0.12046  -0.10563  -0.10558  -0.09650  -0.08674
 Alpha virt. eigenvalues --   -0.05848  -0.05688  -0.05666  -0.05549  -0.02671
 Alpha virt. eigenvalues --   -0.01970  -0.01570  -0.01420  -0.00868  -0.00299

 Mulliken charges:
               1
     1  N   -0.751768
     2  H    0.419071
     3  H    0.433061
     4  H    0.412260
     5  C   -0.113519
     6  H    0.212226
     7  C    0.673250
     8  C   -0.381213
     9  H    0.178735
    10  H    0.187443
    11  O   -0.536714
    12  C    0.146464
    13  C   -0.189568
    14  H    0.142771
    15  C   -0.191761
    16  H    0.130404
    17  C   -0.127884
    18  H    0.181478
    19  C   -0.122928
    20  H    0.155882
    21  C   -0.118610
    22  H    0.155933
    23  N   -0.581862
    24  H    0.371814
    25  C   -0.088830
    26  H    0.197163
    27  C    0.651283
    28  C   -0.027250
    29  H    0.168293
    30  H    0.168402
    31  O   -0.570897
    32  O   -0.625408
    33  H    0.413579
    34  N   -0.565399
    35  H    0.356265
    36  C   -0.100707
    37  H    0.185918
    38  C    0.623909
    39  C   -0.048093
    40  H    0.183597
    41  H    0.154275
    42  O   -0.514332
    43  O   -0.621555
    44  H    0.410823
    45  N   -0.629718
    46  H    0.349502
    47  C   -0.063895
    48  H    0.224529
    49  C    0.627455
    50  C   -0.341222
    51  H    0.175270
    52  H    0.210820
    53  O   -0.546709
    54  C    0.568071
    55  O   -0.475937
    56  O   -0.591146
    57  N   -0.634403
    58  H    0.360451
    59  C   -0.037966
    60  H    0.166755
    61  C    0.594787
    62  C   -0.283399
    63  H    0.134735
    64  H    0.182718
    65  O   -0.636924
    66  C   -0.303670
    67  H    0.162916
    68  H    0.170414
    69  C   -0.148220
    70  H    0.162628
    71  H    0.152082
    72  N   -0.609759
    73  H    0.423849
    74  N   -0.760695
    75  H    0.363495
    76  H    0.370428
    77  N   -0.780767
    78  H    0.410623
    79  H    0.348885
    80  C    0.766386
    81  O   -0.554486
    82  H    0.436123
 Sum of Mulliken charges =   1.00000

 Dipole moment (field-independent basis, Debye):
    X=            -12.2869    Y=             -8.3409    Z=             -0.2366  Tot=             14.8525
 Quadrupole moment (field-independent basis, Debye-Ang):
   XX=            -41.8197   YY=           -217.4736   ZZ=            -66.4951
   XY=             45.5307   XZ=            197.7855   YZ=             30.6848

 Normal termination of Gaussian 16 at Thu May 26 21:35:09 2022.
