 Gaussian 16, Revision C.01,
 Gaussian 16:  ES64L-G16RevC.01  3-Jul-2019

 -------------------------------------------------------------------
 # B3LYP/6-31G* guess=read geom=check nosymm integral(ultrafinegrid)
 -------------------------------------------------------------------

 ------------------------------------------------------
 Candidate Structure: Conf:950 Charge calc in gas phase
 ------------------------------------------------------
 Structure from the checkpoint file:  "conf-950.chk"
 Charge =  1 Multiplicity = 1

                          Input orientation:
 ---------------------------------------------------------------------
 Center     Atomic      Atomic             Coordinates (Angstroms)
 Number     Number       Type             X           Y           Z
 ---------------------------------------------------------------------
      1          7           0       -4.790860    0.504122   -5.698887
      2          1           0       -5.042455    1.200397   -6.405871
      3          1           0       -3.810087    0.132240   -5.907546
      4          1           0       -5.485795   -0.247433   -5.714794
      5          6           0       -4.591334    1.094776   -4.313644
      6          1           0       -5.023642    2.097120   -4.303112
      7          6           0       -3.045360    1.120476   -4.191864
      8          6           0       -5.260502    0.191397   -3.248775
      9          1           0       -6.294722    0.006497   -3.574470
     10          1           0       -4.732565   -0.769796   -3.219644
     11          8           0       -2.405422    0.456003   -5.030450
     12          6           0       -5.264632    0.824057   -1.869241
     13          6           0       -4.474632    0.289575   -0.842921
     14          1           0       -3.867274   -0.591533   -1.033463
     15          6           0       -6.056664    1.953162   -1.609584
     16          1           0       -6.695455    2.365232   -2.389612
     17          6           0       -4.471510    0.885176    0.420497
     18          1           0       -3.851471    0.465069    1.206845
     19          6           0       -6.050928    2.545577   -0.347251
     20          1           0       -6.669770    3.417401   -0.156595
     21          6           0       -5.254846    2.012669    0.669661
     22          1           0       -5.248610    2.475269    1.652161
     23          7           0       -2.513881    1.816386   -3.197603
     24          1           0       -3.098102    2.263673   -2.492035
     25          6           0       -1.094511    1.725549   -2.815088
     26          1           0       -0.483297    1.640822   -3.715472
     27          6           0       -0.923042    0.467660   -1.931384
     28          6           0       -0.748524    2.989343   -2.020295
     29          1           0       -0.797688    3.865055   -2.673942
     30          1           0        0.274566    2.889994   -1.641574
     31          8           0       -0.854287    0.550379   -0.703515
     32          8           0       -1.699208    3.186911   -0.985306
     33          1           0       -1.546523    2.443518   -0.369100
     34          7           0       -0.955752   -0.702606   -2.609962
     35          1           0       -0.851399   -0.668121   -3.618153
     36          6           0       -0.718873   -1.992015   -1.963732
     37          1           0       -0.850882   -1.827528   -0.892384
     38          6           0        0.730424   -2.399531   -2.303894
     39          6           0       -1.706575   -3.044646   -2.457485
     40          1           0       -1.507644   -3.981774   -1.922409
     41          1           0       -1.541814   -3.232387   -3.525301
     42          8           0        0.975483   -3.041857   -3.324254
     43          8           0       -3.043581   -2.584589   -2.212517
     44          1           0       -3.608732   -3.366241   -2.125264
     45          7           0        1.668257   -1.914700   -1.463256
     46          1           0        1.428362   -1.340676   -0.657131
     47          6           0        3.082958   -1.913544   -1.781857
     48          1           0        3.393955   -2.924305   -2.063246
     49          6           0        3.838568   -1.440509   -0.523405
     50          6           0        3.426282   -0.984000   -2.992014
     51          1           0        4.507702   -1.006193   -3.159849
     52          1           0        2.903512   -1.369190   -3.870029
     53          8           0        3.227805   -0.848749    0.375392
     54          6           0        2.979750    0.440084   -2.753957
     55          8           0        1.864200    0.880564   -2.981022
     56          8           0        3.957124    1.196660   -2.225525
     57          7           0        5.159781   -1.680180   -0.557808
     58          1           0        5.592646   -1.950369   -1.463089
     59          6           0        6.150017   -0.808828    0.069105
     60          1           0        5.701992    0.176067    0.247837
     61          6           0        7.332731   -0.660214   -0.992376
     62          6           0        6.731128   -1.332473    1.381079
     63          1           0        7.538540   -0.633725    1.632052
     64          1           0        7.205802   -2.303503    1.154394
     65          8           0        7.096051   -1.207823   -2.105698
     66          6           0        5.731565   -1.483352    2.536753
     67          1           0        5.084864   -2.353780    2.378127
     68          1           0        5.065381   -0.615235    2.574083
     69          6           0        6.425562   -1.589600    3.900941
     70          1           0        6.891889   -0.628729    4.157101
     71          1           0        5.714800   -1.862740    4.690181
     72          7           0        7.482023   -2.623958    3.849955
     73          1           0        7.811539   -2.850401    2.917179
     74          7           0        7.978007   -2.606505    6.116771
     75          1           0        8.283133   -3.119884    6.930846
     76          1           0        7.380389   -1.807109    6.266530
     77          7           0        9.040547   -4.112996    4.717371
     78          1           0        9.180977   -4.513081    3.799596
     79          1           0        9.796743   -4.236665    5.376313
     80          6           0        8.163787   -3.098582    4.880525
     81          8           0        8.331861   -0.056199   -0.570583
     82          1           0        3.583155    2.082580   -2.060326
 ---------------------------------------------------------------------

 SCF Done:  E(RB3LYP) =  -2166.21705043     A.U. after    2 cycles

 Alpha  occ. eigenvalues --  -19.26103 -19.24679 -19.23751 -19.21575 -19.20351
 Alpha  occ. eigenvalues --  -19.19453 -19.17340 -19.15603 -19.07583 -19.06521
 Alpha  occ. eigenvalues --  -14.59126 -14.51364 -14.50975 -14.50503 -14.48618
 Alpha  occ. eigenvalues --  -14.44172 -14.41192 -14.36998 -10.47279 -10.42633
 Alpha  occ. eigenvalues --  -10.39955 -10.37454 -10.37320 -10.34636 -10.33361
 Alpha  occ. eigenvalues --  -10.32814 -10.32249 -10.32162 -10.31246 -10.30979
 Alpha  occ. eigenvalues --  -10.30371 -10.29686 -10.28790 -10.28435 -10.27734
 Alpha  occ. eigenvalues --  -10.27517 -10.27453 -10.27346 -10.25719 -10.25477
 Alpha  occ. eigenvalues --  -10.24546 -10.23161 -10.23103  -1.18460  -1.15803
 Alpha  occ. eigenvalues --   -1.15713  -1.13009  -1.12237  -1.10472  -1.09277
 Alpha  occ. eigenvalues --   -1.08957  -1.06863  -1.06480  -1.04901  -1.04804
 Alpha  occ. eigenvalues --   -1.04142  -1.00589  -1.00514  -0.97737  -0.95416
 Alpha  occ. eigenvalues --   -0.94551  -0.91790  -0.91622  -0.87731  -0.86620
 Alpha  occ. eigenvalues --   -0.84577  -0.83559  -0.83180  -0.82331  -0.80289
 Alpha  occ. eigenvalues --   -0.78512  -0.77892  -0.75280  -0.73712  -0.73283
 Alpha  occ. eigenvalues --   -0.73236  -0.72389  -0.72063  -0.71657  -0.69966
 Alpha  occ. eigenvalues --   -0.69332  -0.68899  -0.67242  -0.66942  -0.66313
 Alpha  occ. eigenvalues --   -0.65272  -0.64730  -0.64347  -0.63904  -0.62545
 Alpha  occ. eigenvalues --   -0.62084  -0.61912  -0.60091  -0.59823  -0.59784
 Alpha  occ. eigenvalues --   -0.59265  -0.58717  -0.57616  -0.57410  -0.56214
 Alpha  occ. eigenvalues --   -0.56015  -0.55800  -0.54761  -0.54614  -0.54518
 Alpha  occ. eigenvalues --   -0.54199  -0.53563  -0.53434  -0.52493  -0.52150
 Alpha  occ. eigenvalues --   -0.51371  -0.51169  -0.50503  -0.50362  -0.50203
 Alpha  occ. eigenvalues --   -0.50052  -0.49975  -0.49641  -0.49319  -0.49037
 Alpha  occ. eigenvalues --   -0.48193  -0.47931  -0.47606  -0.46536  -0.46041
 Alpha  occ. eigenvalues --   -0.45766  -0.44746  -0.44691  -0.44421  -0.44374
 Alpha  occ. eigenvalues --   -0.43739  -0.43474  -0.43132  -0.42962  -0.42367
 Alpha  occ. eigenvalues --   -0.42042  -0.41877  -0.41360  -0.41194  -0.40899
 Alpha  occ. eigenvalues --   -0.40217  -0.39438  -0.39114  -0.38912  -0.37941
 Alpha  occ. eigenvalues --   -0.36861  -0.36800  -0.36130  -0.35045  -0.35004
 Alpha  occ. eigenvalues --   -0.34841  -0.33766  -0.33681  -0.33154  -0.33007
 Alpha  occ. eigenvalues --   -0.31273  -0.30272  -0.29574  -0.28708  -0.22694
 Alpha  occ. eigenvalues --   -0.22410  -0.20756
 Alpha virt. eigenvalues --   -0.11894  -0.11305  -0.10374  -0.09927  -0.09020
 Alpha virt. eigenvalues --   -0.07276  -0.07016  -0.05259  -0.04636  -0.03610
 Alpha virt. eigenvalues --   -0.03484  -0.02242  -0.02179  -0.01766  -0.01537

 Mulliken charges:
               1
     1  N   -0.760157
     2  H    0.415014
     3  H    0.436316
     4  H    0.411290
     5  C   -0.109459
     6  H    0.216305
     7  C    0.670244
     8  C   -0.394311
     9  H    0.171900
    10  H    0.210231
    11  O   -0.561802
    12  C    0.123685
    13  C   -0.200910
    14  H    0.191197
    15  C   -0.188107
    16  H    0.124486
    17  C   -0.131949
    18  H    0.160997
    19  C   -0.122254
    20  H    0.155670
    21  C   -0.117656
    22  H    0.158022
    23  N   -0.583259
    24  H    0.377761
    25  C   -0.108302
    26  H    0.215672
    27  C    0.668399
    28  C   -0.055663
    29  H    0.160122
    30  H    0.175913
    31  O   -0.547302
    32  O   -0.638776
    33  H    0.425284
    34  N   -0.593180
    35  H    0.363049
    36  C   -0.084310
    37  H    0.189494
    38  C    0.636385
    39  C   -0.047000
    40  H    0.155225
    41  H    0.162316
    42  O   -0.537730
    43  O   -0.627344
    44  H    0.406313
    45  N   -0.616131
    46  H    0.361843
    47  C   -0.062844
    48  H    0.191020
    49  C    0.605945
    50  C   -0.364566
    51  H    0.226412
    52  H    0.197401
    53  O   -0.567822
    54  C    0.581056
    55  O   -0.507257
    56  O   -0.525622
    57  N   -0.606014
    58  H    0.358433
    59  C   -0.086025
    60  H    0.151421
    61  C    0.589341
    62  C   -0.290652
    63  H    0.175293
    64  H    0.117347
    65  O   -0.610713
    66  C   -0.290756
    67  H    0.166898
    68  H    0.189200
    69  C   -0.165715
    70  H    0.185434
    71  H    0.169959
    72  N   -0.592240
    73  H    0.375700
    74  N   -0.757225
    75  H    0.382114
    76  H    0.392841
    77  N   -0.758850
    78  H    0.386267
    79  H    0.379908
    80  C    0.821081
    81  O   -0.583784
    82  H    0.409480
 Sum of Mulliken charges =   1.00000

 Dipole moment (field-independent basis, Debye):
    X=             -7.8573    Y=             -7.6807    Z=              5.3572  Tot=             12.2242
 Quadrupole moment (field-independent basis, Debye-Ang):
   XX=            -44.2675   YY=           -190.9475   ZZ=            -49.6396
   XY=           -101.7702   XZ=            281.8568   YZ=            -77.8490

 Normal termination of Gaussian 16 at Thu May 26 21:35:33 2022.
