 Gaussian 16, Revision C.01,
 Gaussian 16:  ES64L-G16RevC.01  3-Jul-2019

 -------------------------------------------------------------------
 # B3LYP/6-31G* guess=read geom=check nosymm integral(ultrafinegrid)
 -------------------------------------------------------------------

 ------------------------------------------------------
 Candidate Structure: Conf:446 Charge calc in gas phase
 ------------------------------------------------------
 Structure from the checkpoint file:  "conf-446.chk"
 Charge =  1 Multiplicity = 1

                          Input orientation:
 ---------------------------------------------------------------------
 Center     Atomic      Atomic             Coordinates (Angstroms)
 Number     Number       Type             X           Y           Z
 ---------------------------------------------------------------------
      1          7           0       -1.682004   -0.017464   -2.170528
      2          1           0       -1.187370   -0.431152   -2.978937
      3          1           0       -2.081762    0.889372   -2.424370
      4          1           0       -0.986447    0.079154   -1.397117
      5          6           0       -2.722033   -1.025880   -1.747177
      6          1           0       -3.002093   -0.792884   -0.717242
      7          6           0       -1.947752   -2.355883   -1.808012
      8          6           0       -3.968983   -0.977561   -2.660789
      9          1           0       -4.659017   -1.737028   -2.276364
     10          1           0       -4.461954   -0.010072   -2.498670
     11          8           0       -1.027007   -2.468005   -2.628321
     12          6           0       -3.700256   -1.192115   -4.136209
     13          6           0       -3.522700   -0.095791   -4.991465
     14          1           0       -3.630816    0.917675   -4.605819
     15          6           0       -3.622147   -2.486717   -4.671229
     16          1           0       -3.772592   -3.350365   -4.026769
     17          6           0       -3.256173   -0.285108   -6.349400
     18          1           0       -3.130980    0.574985   -7.000741
     19          6           0       -3.360292   -2.677022   -6.027542
     20          1           0       -3.312101   -3.684728   -6.429856
     21          6           0       -3.171882   -1.577138   -6.868318
     22          1           0       -2.973434   -1.727481   -7.925307
     23          7           0       -2.351722   -3.302069   -0.948315
     24          1           0       -2.969747   -2.992093   -0.196495
     25          6           0       -1.565058   -4.511214   -0.618967
     26          1           0       -2.264879   -5.185929   -0.122766
     27          6           0       -0.585462   -4.019086    0.469197
     28          6           0       -0.944789   -5.239987   -1.840931
     29          1           0       -0.791465   -6.282378   -1.544351
     30          1           0        0.036578   -4.826444   -2.092950
     31          8           0       -0.881083   -4.109876    1.663817
     32          8           0       -1.799578   -5.238025   -2.961738
     33          1           0       -1.608345   -4.415103   -3.442255
     34          7           0        0.511070   -3.344168    0.036670
     35          1           0        0.662039   -3.195289   -0.957623
     36          6           0        1.191470   -2.365458    0.883608
     37          1           0        1.333862   -2.795597    1.877970
     38          6           0        0.297000   -1.115030    0.952357
     39          6           0        2.557171   -2.014235    0.256453
     40          1           0        3.213660   -2.884714    0.337254
     41          1           0        3.008345   -1.178428    0.809013
     42          8           0        0.078336   -0.441517   -0.075632
     43          8           0        2.423822   -1.737745   -1.127888
     44          1           0        1.911440   -0.914262   -1.194479
     45          7           0       -0.239970   -0.820305    2.149883
     46          1           0       -0.059504   -1.458845    2.916391
     47          6           0       -1.196442    0.266780    2.369103
     48          1           0       -1.494250    0.597789    1.371656
     49          6           0       -0.591580    1.512925    3.066668
     50          6           0       -2.456660   -0.251223    3.108809
     51          1           0       -2.259706   -0.378215    4.175986
     52          1           0       -3.254024    0.483442    2.985512
     53          8           0       -1.337355    2.428493    3.401952
     54          6           0       -2.816022   -1.582202    2.485504
     55          8           0       -3.267434   -1.710536    1.352685
     56          8           0       -2.450168   -2.603314    3.258709
     57          7           0        0.743386    1.471747    3.200681
     58          1           0        1.294564    0.713773    2.796792
     59          6           0        1.618169    2.587806    3.532699
     60          1           0        1.259624    3.490100    3.021767
     61          6           0        3.009909    2.181682    2.923700
     62          6           0        1.607137    2.855709    5.069284
     63          1           0        2.255636    2.125962    5.572539
     64          1           0        0.586223    2.630710    5.389820
     65          8           0        3.904531    3.089535    2.923154
     66          6           0        1.930607    4.298125    5.544623
     67          1           0        1.186822    4.603550    6.288742
     68          1           0        1.824800    5.005516    4.712146
     69          6           0        3.306633    4.506490    6.194603
     70          1           0        3.380674    5.538481    6.563343
     71          1           0        3.429716    3.834593    7.054770
     72          7           0        4.352574    4.241224    5.207693
     73          1           0        4.020868    4.009964    4.237310
     74          7           0        6.152073    3.918353    6.659572
     75          1           0        7.049854    3.502079    6.855681
     76          1           0        5.825985    4.634329    7.290968
     77          7           0        6.189892    3.082786    4.476782
     78          1           0        5.632012    2.869444    3.635055
     79          1           0        7.192245    2.968991    4.470602
     80          6           0        5.566304    3.762491    5.450662
     81          8           0        3.127486    1.020656    2.489175
     82          1           0       -2.347129   -3.416498    2.710721
 ---------------------------------------------------------------------

 SCF Done:  E(RB3LYP) =  -2166.29606502     A.U. after    1 cycles

 Alpha  occ. eigenvalues --  -19.29053 -19.25288 -19.25061 -19.25007 -19.23371
 Alpha  occ. eigenvalues --  -19.23200 -19.22890 -19.18638 -19.16636 -19.16111
 Alpha  occ. eigenvalues --  -14.57229 -14.48816 -14.48668 -14.47886 -14.46795
 Alpha  occ. eigenvalues --  -14.45520 -14.44553 -14.42096 -10.42921 -10.42638
 Alpha  occ. eigenvalues --  -10.42206 -10.41568 -10.40180 -10.38169 -10.36369
 Alpha  occ. eigenvalues --  -10.34293 -10.34288 -10.34227 -10.34068 -10.32972
 Alpha  occ. eigenvalues --  -10.32508 -10.32190 -10.31575 -10.30108 -10.29860
 Alpha  occ. eigenvalues --  -10.29150 -10.28809 -10.28263 -10.28107 -10.27898
 Alpha  occ. eigenvalues --  -10.27777 -10.27057 -10.26147  -1.20616  -1.17619
 Alpha  occ. eigenvalues --   -1.16317  -1.14717  -1.11819  -1.11739  -1.11380
 Alpha  occ. eigenvalues --   -1.10898  -1.10641  -1.10488  -1.09420  -1.05119
 Alpha  occ. eigenvalues --   -1.05089  -1.02976  -1.01667  -1.00290  -0.99350
 Alpha  occ. eigenvalues --   -0.98645  -0.95395  -0.91299  -0.89957  -0.87649
 Alpha  occ. eigenvalues --   -0.87070  -0.85136  -0.83660  -0.83457  -0.82121
 Alpha  occ. eigenvalues --   -0.79158  -0.78044  -0.75395  -0.75267  -0.74193
 Alpha  occ. eigenvalues --   -0.73178  -0.72237  -0.71862  -0.70702  -0.70196
 Alpha  occ. eigenvalues --   -0.69828  -0.69603  -0.68839  -0.68430  -0.67754
 Alpha  occ. eigenvalues --   -0.67683  -0.65609  -0.65146  -0.64886  -0.64298
 Alpha  occ. eigenvalues --   -0.62974  -0.61672  -0.61323  -0.60671  -0.60385
 Alpha  occ. eigenvalues --   -0.60138  -0.59905  -0.59580  -0.59069  -0.58613
 Alpha  occ. eigenvalues --   -0.58114  -0.57624  -0.57217  -0.56288  -0.55876
 Alpha  occ. eigenvalues --   -0.55596  -0.55521  -0.55101  -0.54939  -0.54580
 Alpha  occ. eigenvalues --   -0.54419  -0.53534  -0.53128  -0.52905  -0.52246
 Alpha  occ. eigenvalues --   -0.51382  -0.51263  -0.50927  -0.50754  -0.50604
 Alpha  occ. eigenvalues --   -0.50151  -0.50056  -0.49582  -0.49451  -0.49391
 Alpha  occ. eigenvalues --   -0.49068  -0.48705  -0.48413  -0.48010  -0.47582
 Alpha  occ. eigenvalues --   -0.47469  -0.46915  -0.46773  -0.45169  -0.44985
 Alpha  occ. eigenvalues --   -0.43540  -0.43447  -0.43332  -0.43001  -0.42557
 Alpha  occ. eigenvalues --   -0.42203  -0.41959  -0.41901  -0.41059  -0.40247
 Alpha  occ. eigenvalues --   -0.39676  -0.39352  -0.39124  -0.38442  -0.38366
 Alpha  occ. eigenvalues --   -0.37377  -0.36626  -0.35403  -0.35330  -0.34858
 Alpha  occ. eigenvalues --   -0.34278  -0.33873  -0.33294  -0.32347  -0.31578
 Alpha  occ. eigenvalues --   -0.30919  -0.30352
 Alpha virt. eigenvalues --   -0.12610  -0.11209  -0.10396  -0.09780  -0.09552
 Alpha virt. eigenvalues --   -0.08472  -0.07436  -0.07251  -0.05027  -0.03791
 Alpha virt. eigenvalues --   -0.02766  -0.01938  -0.01628  -0.01011  -0.00139

 Mulliken charges:
               1
     1  N   -0.760104
     2  H    0.421286
     3  H    0.399667
     4  H    0.452415
     5  C   -0.141196
     6  H    0.236285
     7  C    0.659075
     8  C   -0.383807
     9  H    0.205056
    10  H    0.180194
    11  O   -0.565272
    12  C    0.159977
    13  C   -0.214951
    14  H    0.122203
    15  C   -0.189882
    16  H    0.156554
    17  C   -0.121008
    18  H    0.156103
    19  C   -0.129118
    20  H    0.162446
    21  C   -0.122700
    22  H    0.160384
    23  N   -0.609449
    24  H    0.385530
    25  C   -0.074787
    26  H    0.195434
    27  C    0.613068
    28  C   -0.052504
    29  H    0.180091
    30  H    0.156648
    31  O   -0.549641
    32  O   -0.618689
    33  H    0.419766
    34  N   -0.585005
    35  H    0.374077
    36  C   -0.084905
    37  H    0.185172
    38  C    0.650257
    39  C   -0.079040
    40  H    0.179690
    41  H    0.203328
    42  O   -0.603291
    43  O   -0.615156
    44  H    0.407702
    45  N   -0.614069
    46  H    0.370450
    47  C   -0.059886
    48  H    0.183683
    49  C    0.626542
    50  C   -0.350614
    51  H    0.195856
    52  H    0.215853
    53  O   -0.534650
    54  C    0.594220
    55  O   -0.505025
    56  O   -0.548222
    57  N   -0.631237
    58  H    0.360708
    59  C   -0.055185
    60  H    0.168272
    61  C    0.601568
    62  C   -0.275643
    63  H    0.142317
    64  H    0.178374
    65  O   -0.625340
    66  C   -0.307181
    67  H    0.167029
    68  H    0.169469
    69  C   -0.145927
    70  H    0.164704
    71  H    0.163446
    72  N   -0.614502
    73  H    0.416620
    74  N   -0.758781
    75  H    0.366787
    76  H    0.374178
    77  N   -0.780495
    78  H    0.414225
    79  H    0.352325
    80  C    0.776693
    81  O   -0.562054
    82  H    0.443590
 Sum of Mulliken charges =   1.00000

 Dipole moment (field-independent basis, Debye):
    X=              4.0271    Y=              3.7174    Z=              7.0840  Tot=              8.9565
 Quadrupole moment (field-independent basis, Debye-Ang):
   XX=           -150.4343   YY=           -204.5297   ZZ=           -114.5306
   XY=             51.1379   XZ=            106.1256   YZ=             49.9271

 Normal termination of Gaussian 16 at Thu May 26 21:35:28 2022.
