 Gaussian 16, Revision C.01,
 Gaussian 16:  ES64L-G16RevC.01  3-Jul-2019

 -------------------------------------------------------------------
 # B3LYP/6-31G* guess=read geom=check nosymm integral(ultrafinegrid)
 -------------------------------------------------------------------

 ------------------------------------------------------
 Candidate Structure: Conf:771 Charge calc in gas phase
 ------------------------------------------------------
 Structure from the checkpoint file:  "conf-771.chk"
 Charge =  1 Multiplicity = 1

                          Input orientation:
 ---------------------------------------------------------------------
 Center     Atomic      Atomic             Coordinates (Angstroms)
 Number     Number       Type             X           Y           Z
 ---------------------------------------------------------------------
      1          7           0       -5.225222   -4.084126   -2.251834
      2          1           0       -5.464449   -4.864056   -2.869127
      3          1           0       -4.217426   -4.188294   -1.944659
      4          1           0       -5.883669   -4.076127   -1.457444
      5          6           0       -5.213664   -2.747777   -2.956902
      6          1           0       -5.764114   -2.854727   -3.894318
      7          6           0       -3.704481   -2.472760   -3.163632
      8          6           0       -5.850507   -1.654774   -2.053399
      9          1           0       -5.124268   -1.374355   -1.282941
     10          1           0       -5.984795   -0.767869   -2.681117
     11          8           0       -2.901661   -3.194352   -2.560625
     12          6           0       -7.163723   -2.096871   -1.444108
     13          6           0       -8.345700   -2.113537   -2.200843
     14          1           0       -8.336972   -1.750067   -3.226506
     15          6           0       -7.204719   -2.549531   -0.114781
     16          1           0       -6.308161   -2.496423    0.500861
     17          6           0       -9.538950   -2.567731   -1.641411
     18          1           0      -10.449173   -2.561110   -2.233902
     19          6           0       -8.401696   -3.010255    0.444287
     20          1           0       -8.420816   -3.342088    1.478173
     21          6           0       -9.568315   -3.021515   -0.319017
     22          1           0      -10.500284   -3.370544    0.115291
     23          7           0       -3.383346   -1.423964   -3.920501
     24          1           0       -4.079640   -0.950533   -4.483542
     25          6           0       -2.068814   -0.797661   -3.860405
     26          1           0       -1.319464   -1.476663   -4.281169
     27          6           0       -1.735729   -0.450758   -2.381270
     28          6           0       -2.125109    0.502886   -4.677197
     29          1           0       -1.101856    0.864664   -4.838589
     30          1           0       -2.672539    1.265193   -4.102411
     31          8           0       -2.625357   -0.350243   -1.540219
     32          8           0       -2.789787    0.207533   -5.899838
     33          1           0       -2.839119    1.020324   -6.426630
     34          7           0       -0.430459   -0.220369   -2.152399
     35          1           0        0.264236   -0.233570   -2.897197
     36          6           0        0.083565    0.319085   -0.905001
     37          1           0       -0.663174    0.986244   -0.463287
     38          6           0        1.368344    1.077614   -1.256533
     39          6           0        0.394079   -0.805219    0.130028
     40          1           0        1.102937   -1.512312   -0.325131
     41          1           0       -0.543562   -1.336392    0.323400
     42          8           0        1.935588    0.893735   -2.334238
     43          8           0        0.866687   -0.286506    1.349818
     44          1           0        1.844789   -0.174536    1.279798
     45          7           0        1.807168    1.908019   -0.278188
     46          1           0        1.336987    1.796796    0.615732
     47          6           0        3.192897    2.344082   -0.211376
     48          1           0        3.531703    2.523627   -1.234135
     49          6           0        4.077331    1.241393    0.429530
     50          6           0        3.291785    3.649508    0.609861
     51          1           0        2.878118    3.500387    1.611867
     52          1           0        4.344395    3.936011    0.725710
     53          8           0        3.581035    0.233742    0.965364
     54          6           0        2.531826    4.791753   -0.030634
     55          8           0        1.620507    5.406281    0.474443
     56          8           0        3.000751    5.065406   -1.274162
     57          7           0        5.388588    1.501318    0.374162
     58          1           0        5.705302    2.457201    0.119500
     59          6           0        6.367888    1.039985    1.353495
     60          1           0        5.853425    0.784672    2.287980
     61          6           0        7.339132    2.284333    1.607001
     62          6           0        7.218942   -0.151293    0.919682
     63          1           0        7.990130   -0.227613    1.696543
     64          1           0        7.729751    0.142007   -0.013902
     65          8           0        8.326848    2.032073    2.314440
     66          6           0        6.480040   -1.484326    0.726387
     67          1           0        5.949413   -1.501849   -0.232365
     68          1           0        5.714981   -1.607932    1.499692
     69          6           0        7.429374   -2.686559    0.824100
     70          1           0        7.770205   -2.802020    1.861970
     71          1           0        6.939492   -3.614132    0.504176
     72          7           0        8.613612   -2.465196   -0.034846
     73          1           0        8.773301   -1.498627   -0.299372
     74          7           0        9.581024   -4.541318    0.331076
     75          1           0       10.172922   -5.287913   -0.002573
     76          1           0        8.892388   -4.767850    1.033163
     77          7           0       10.588291   -3.040959   -1.116150
     78          1           0       10.605315   -2.141102   -1.576896
     79          1           0       11.479480   -3.509627   -1.028918
     80          6           0        9.586929   -3.334893   -0.258671
     81          8           0        6.979112    3.342711    1.019928
     82          1           0        2.473659    5.817430   -1.603451
 ---------------------------------------------------------------------

 SCF Done:  E(RB3LYP) =  -2166.21624106     A.U. after    1 cycles

 Alpha  occ. eigenvalues --  -19.25607 -19.25361 -19.23185 -19.19865 -19.18340
 Alpha  occ. eigenvalues --  -19.18157 -19.17444 -19.16681 -19.07953 -19.06914
 Alpha  occ. eigenvalues --  -14.58427 -14.51559 -14.51127 -14.50636 -14.48568
 Alpha  occ. eigenvalues --  -14.43855 -14.41431 -14.37647 -10.47442 -10.42417
 Alpha  occ. eigenvalues --  -10.39723 -10.37382 -10.35753 -10.34859 -10.34209
 Alpha  occ. eigenvalues --  -10.33869 -10.33579 -10.32794 -10.32566 -10.31390
 Alpha  occ. eigenvalues --  -10.30123 -10.29949 -10.29589 -10.29554 -10.29354
 Alpha  occ. eigenvalues --  -10.29282 -10.28943 -10.28568 -10.26037 -10.25860
 Alpha  occ. eigenvalues --  -10.24378 -10.23605 -10.23439  -1.18154  -1.15973
 Alpha  occ. eigenvalues --   -1.14006  -1.13028  -1.12459  -1.11664  -1.09918
 Alpha  occ. eigenvalues --   -1.07493  -1.05924  -1.05043  -1.04972  -1.04966
 Alpha  occ. eigenvalues --   -1.04321  -1.01001  -1.00240  -0.98359  -0.96798
 Alpha  occ. eigenvalues --   -0.95080  -0.92215  -0.92194  -0.87981  -0.87930
 Alpha  occ. eigenvalues --   -0.85393  -0.85089  -0.84166  -0.81196  -0.80432
 Alpha  occ. eigenvalues --   -0.78544  -0.78105  -0.74646  -0.74367  -0.73288
 Alpha  occ. eigenvalues --   -0.73015  -0.72596  -0.72034  -0.71877  -0.70894
 Alpha  occ. eigenvalues --   -0.70161  -0.69348  -0.69279  -0.66548  -0.65268
 Alpha  occ. eigenvalues --   -0.64729  -0.64593  -0.64191  -0.63897  -0.63393
 Alpha  occ. eigenvalues --   -0.62986  -0.61988  -0.61541  -0.60207  -0.59966
 Alpha  occ. eigenvalues --   -0.59799  -0.59443  -0.57423  -0.57071  -0.56848
 Alpha  occ. eigenvalues --   -0.56306  -0.56176  -0.55563  -0.54531  -0.54332
 Alpha  occ. eigenvalues --   -0.53726  -0.53218  -0.53107  -0.52954  -0.52572
 Alpha  occ. eigenvalues --   -0.51964  -0.51692  -0.51365  -0.51151  -0.50873
 Alpha  occ. eigenvalues --   -0.50131  -0.49960  -0.49633  -0.49465  -0.48802
 Alpha  occ. eigenvalues --   -0.48463  -0.47974  -0.47475  -0.46729  -0.46597
 Alpha  occ. eigenvalues --   -0.45994  -0.45529  -0.45048  -0.44861  -0.44661
 Alpha  occ. eigenvalues --   -0.44526  -0.44222  -0.43700  -0.42890  -0.42635
 Alpha  occ. eigenvalues --   -0.42513  -0.41860  -0.41374  -0.40506  -0.40213
 Alpha  occ. eigenvalues --   -0.39430  -0.39186  -0.38357  -0.38297  -0.37791
 Alpha  occ. eigenvalues --   -0.37702  -0.37197  -0.35972  -0.35514  -0.35450
 Alpha  occ. eigenvalues --   -0.35324  -0.34938  -0.34060  -0.32500  -0.32062
 Alpha  occ. eigenvalues --   -0.31677  -0.30646  -0.29617  -0.29211  -0.23064
 Alpha  occ. eigenvalues --   -0.22761  -0.21154
 Alpha virt. eigenvalues --   -0.12323  -0.11626  -0.11444  -0.10091  -0.09010
 Alpha virt. eigenvalues --   -0.07453  -0.06348  -0.04516  -0.04211  -0.03643
 Alpha virt. eigenvalues --   -0.03369  -0.02366  -0.02344  -0.01669  -0.01346

 Mulliken charges:
               1
     1  N   -0.753111
     2  H    0.411202
     3  H    0.428713
     4  H    0.404419
     5  C   -0.121836
     6  H    0.206256
     7  C    0.681176
     8  C   -0.384894
     9  H    0.232409
    10  H    0.193739
    11  O   -0.534614
    12  C    0.129189
    13  C   -0.181641
    14  H    0.140971
    15  C   -0.227881
    16  H    0.159766
    17  C   -0.122527
    18  H    0.164624
    19  C   -0.120176
    20  H    0.166545
    21  C   -0.124708
    22  H    0.166955
    23  N   -0.596385
    24  H    0.360722
    25  C   -0.048305
    26  H    0.193645
    27  C    0.635127
    28  C   -0.074397
    29  H    0.175178
    30  H    0.162183
    31  O   -0.543659
    32  O   -0.627188
    33  H    0.419371
    34  N   -0.615213
    35  H    0.355362
    36  C   -0.075975
    37  H    0.189581
    38  C    0.603242
    39  C   -0.026710
    40  H    0.133845
    41  H    0.158560
    42  O   -0.542413
    43  O   -0.653459
    44  H    0.443612
    45  N   -0.588292
    46  H    0.347554
    47  C   -0.092371
    48  H    0.213925
    49  C    0.619344
    50  C   -0.382068
    51  H    0.179288
    52  H    0.235122
    53  O   -0.582166
    54  C    0.580408
    55  O   -0.455990
    56  O   -0.559431
    57  N   -0.590389
    58  H    0.365265
    59  C   -0.089166
    60  H    0.153657
    61  C    0.589365
    62  C   -0.296044
    63  H    0.177607
    64  H    0.121369
    65  O   -0.579974
    66  C   -0.292030
    67  H    0.167128
    68  H    0.189852
    69  C   -0.166711
    70  H    0.185850
    71  H    0.170520
    72  N   -0.592002
    73  H    0.376603
    74  N   -0.757694
    75  H    0.382188
    76  H    0.393385
    77  N   -0.758603
    78  H    0.386563
    79  H    0.379849
    80  C    0.822319
    81  O   -0.606693
    82  H    0.411159
 Sum of Mulliken charges =   1.00000

 Dipole moment (field-independent basis, Debye):
    X=             -5.1458    Y=            -30.6295    Z=            -18.3443  Tot=             36.0716
 Quadrupole moment (field-independent basis, Debye-Ang):
   XX=            120.8385   YY=           -163.2434   ZZ=           -206.0510
   XY=           -108.1838   XZ=              8.5449   YZ=             -4.4094

 Normal termination of Gaussian 16 at Thu May 26 21:35:10 2022.
