 Gaussian 16, Revision C.01,
 Gaussian 16:  ES64L-G16RevC.01  3-Jul-2019

 ----------------------------------------------------------------------
 # B3LYP/6-31G* empiricaldispersion=gd3 guess=read geom=check nosymm in
 tegral(ultrafinegrid)
 ----------------------------------------------------------------------

 ------------------------------------------------------
 Candidate Structure: Conf:549 Charge calc in gas phase
 ------------------------------------------------------
 Structure from the checkpoint file:  "conf-549.chk"
 Charge =  1 Multiplicity = 1

                          Input orientation:
 ---------------------------------------------------------------------
 Center     Atomic      Atomic             Coordinates (Angstroms)
 Number     Number       Type             X           Y           Z
 ---------------------------------------------------------------------
      1          7           0       -3.962684   -0.756237    2.385113
      2          1           0       -4.095545   -1.470843    1.672188
      3          1           0       -3.195295   -1.083566    2.969672
      4          6           0       -3.593164    0.499178    1.759003
      5          1           0       -4.447647    0.831252    1.151297
      6          6           0       -2.407988    0.361124    0.775672
      7          6           0       -3.352726    1.585859    2.842109
      8          1           0       -4.275101    1.639550    3.428038
      9          1           0       -3.229458    2.567806    2.368207
     10          8           0       -1.908877   -0.743353    0.515830
     11          6           0       -2.173701    1.298636    3.746955
     12          6           0       -2.339701    0.518268    4.899964
     13          1           0       -3.329299    0.145803    5.152390
     14          6           0       -0.892174    1.785488    3.445712
     15          1           0       -0.744170    2.394505    2.556990
     16          6           0       -1.251265    0.230834    5.730588
     17          1           0       -1.399370   -0.370180    6.623526
     18          6           0        0.193418    1.500757    4.271478
     19          1           0        1.182830    1.865199    4.015748
     20          6           0        0.018367    0.719533    5.416578
     21          1           0        0.870685    0.480928    6.043948
     22          7           0       -1.978402    1.498586    0.169997
     23          1           0       -2.402164    2.376057    0.437226
     24          6           0       -1.023342    1.528185   -0.941654
     25          1           0       -1.240805    0.658986   -1.571757
     26          6           0        0.429807    1.348270   -0.439901
     27          6           0       -1.179552    2.812656   -1.757422
     28          1           0       -0.896406    3.666150   -1.125778
     29          1           0       -0.443957    2.770472   -2.571399
     30          8           0        1.271503    2.266190   -0.487402
     31          6           0       -2.577782    3.050247   -2.361648
     32          1           0       -3.300952    3.156247   -1.539390
     33          6           0       -2.575152    4.368936   -3.148352
     34          1           0       -1.889040    4.309587   -4.003479
     35          1           0       -3.572308    4.593644   -3.540548
     36          1           0       -2.263321    5.212801   -2.520995
     37          6           0       -3.037876    1.883063   -3.246071
     38          1           0       -2.313964    1.691447   -4.048647
     39          1           0       -3.164676    0.955951   -2.676167
     40          1           0       -4.000556    2.111509   -3.715071
     41          7           0        0.684808    0.128690    0.037517
     42          1           0       -0.113167   -0.509460    0.062007
     43          6           0        1.979159   -0.356575    0.472476
     44          1           0        2.430295    0.366169    1.164444
     45          6           0        2.928297   -0.504958   -0.738509
     46          6           0        1.761275   -1.678785    1.237647
     47          1           0        1.090745   -2.333640    0.668324
     48          1           0        2.707657   -2.210404    1.362358
     49          8           0        2.569745   -0.273060   -1.887147
     50          6           0        1.256993   -1.350601    2.647496
     51          7           0       -0.044850   -1.635847    2.910047
     52          1           0       -0.418268   -1.274612    3.781068
     53          1           0       -0.708212   -1.793876    2.161430
     54          8           0        2.029578   -0.842358    3.450602
     55          7           0        4.207358   -0.846486   -0.406581
     56          1           0        4.403981   -1.167307    0.536708
     57          6           0        5.162137   -1.303533   -1.410559
     58          1           0        4.593281   -1.630900   -2.288107
     59          6           0        5.887564   -2.513476   -0.826513
     60          6           0        6.173592   -0.226754   -1.873715
     61          1           0        6.788583   -0.679562   -2.656865
     62          1           0        6.852897    0.023771   -1.047776
     63          8           0        5.758715   -2.898231    0.315551
     64          6           0        5.487507    1.044303   -2.410588
     65          1           0        6.145391    1.520616   -3.147899
     66          1           0        4.567218    0.764200   -2.931322
     67          6           0        5.134281    2.054390   -1.289808
     68          1           0        5.082296    1.543030   -0.328172
     69          1           0        5.903401    2.829290   -1.185335
     70          7           0        3.829308    2.694596   -1.456785
     71          1           0        3.016838    2.264591   -1.000458
     72          7           0        4.469011    4.254143   -3.073260
     73          1           0        4.343192    5.186564   -3.439581
     74          1           0        5.401132    3.871526   -3.116810
     75          7           0        2.308771    4.251765   -2.211411
     76          1           0        1.977408    4.796131   -2.994579
     77          1           0        1.614765    3.771765   -1.632655
     78          6           0        3.545126    3.719176   -2.247946
     79          8           0        6.700826   -3.081930   -1.731020
     80          1           0        7.145199   -3.836008   -1.297131
 ---------------------------------------------------------------------

 SCF Done:  E(RB3LYP) =  -1866.74662291     A.U. after    2 cycles

 Alpha  occ. eigenvalues --  -19.29837 -19.24527 -19.24432 -19.23207 -19.22574
 Alpha  occ. eigenvalues --  -19.18825 -14.51104 -14.49494 -14.49301 -14.47466
 Alpha  occ. eigenvalues --  -14.46651 -14.46569 -14.42813 -14.39592 -10.46506
 Alpha  occ. eigenvalues --  -10.42405 -10.40541 -10.39521 -10.39330 -10.36812
 Alpha  occ. eigenvalues --  -10.34802 -10.34507 -10.34481 -10.34402 -10.31777
 Alpha  occ. eigenvalues --  -10.29969 -10.29940 -10.29571 -10.29461 -10.28874
 Alpha  occ. eigenvalues --  -10.28049 -10.27492 -10.26539 -10.26373 -10.26330
 Alpha  occ. eigenvalues --  -10.26265 -10.26172 -10.26162 -10.25929  -1.20892
 Alpha  occ. eigenvalues --   -1.15929  -1.15036  -1.14535  -1.14196  -1.12074
 Alpha  occ. eigenvalues --   -1.10730  -1.04561  -1.04183  -1.03452  -1.03292
 Alpha  occ. eigenvalues --   -1.03184  -0.97855  -0.97638  -0.92876  -0.91631
 Alpha  occ. eigenvalues --   -0.91187  -0.89072  -0.86471  -0.85820  -0.84624
 Alpha  occ. eigenvalues --   -0.81768  -0.80681  -0.79780  -0.78516  -0.77286
 Alpha  occ. eigenvalues --   -0.76716  -0.75480  -0.73877  -0.72754  -0.71923
 Alpha  occ. eigenvalues --   -0.71165  -0.69290  -0.69160  -0.68979  -0.68649
 Alpha  occ. eigenvalues --   -0.67894  -0.66766  -0.66211  -0.65448  -0.64387
 Alpha  occ. eigenvalues --   -0.63562  -0.63049  -0.62258  -0.61162  -0.61010
 Alpha  occ. eigenvalues --   -0.60223  -0.59864  -0.59764  -0.58589  -0.58514
 Alpha  occ. eigenvalues --   -0.58088  -0.57859  -0.57309  -0.56657  -0.55901
 Alpha  occ. eigenvalues --   -0.55716  -0.54987  -0.54617  -0.54121  -0.53597
 Alpha  occ. eigenvalues --   -0.53227  -0.52597  -0.52364  -0.52321  -0.52178
 Alpha  occ. eigenvalues --   -0.51633  -0.51366  -0.50825  -0.50210  -0.49584
 Alpha  occ. eigenvalues --   -0.49313  -0.49165  -0.48926  -0.48599  -0.48242
 Alpha  occ. eigenvalues --   -0.47677  -0.47340  -0.47281  -0.47028  -0.46646
 Alpha  occ. eigenvalues --   -0.46212  -0.45903  -0.45702  -0.45429  -0.45384
 Alpha  occ. eigenvalues --   -0.44833  -0.42732  -0.42337  -0.42209  -0.42133
 Alpha  occ. eigenvalues --   -0.41991  -0.41718  -0.41330  -0.40944  -0.40042
 Alpha  occ. eigenvalues --   -0.38886  -0.38437  -0.37706  -0.36831  -0.36341
 Alpha  occ. eigenvalues --   -0.36042  -0.35735  -0.34264  -0.33200  -0.32610
 Alpha  occ. eigenvalues --   -0.32505  -0.31225
 Alpha virt. eigenvalues --   -0.10820  -0.10190  -0.09425  -0.09085  -0.08932
 Alpha virt. eigenvalues --   -0.07900  -0.07490  -0.07041  -0.05100  -0.03916
 Alpha virt. eigenvalues --   -0.03537  -0.01795  -0.01638  -0.01397  -0.00392

 Mulliken charges:
               1
     1  N   -0.690328
     2  H    0.318380
     3  H    0.305201
     4  C   -0.083530
     5  H    0.173985
     6  C    0.616988
     7  C   -0.364134
     8  H    0.191218
     9  H    0.137290
    10  O   -0.560556
    11  C    0.153683
    12  C   -0.202931
    13  H    0.158005
    14  C   -0.187109
    15  H    0.112172
    16  C   -0.155376
    17  H    0.153347
    18  C   -0.110036
    19  H    0.143962
    20  C   -0.126303
    21  H    0.158961
    22  N   -0.598997
    23  H    0.347898
    24  C   -0.070193
    25  H    0.200132
    26  C    0.675858
    27  C   -0.304239
    28  H    0.147060
    29  H    0.145620
    30  O   -0.595663
    31  C   -0.077056
    32  H    0.125456
    33  C   -0.446248
    34  H    0.140349
    35  H    0.167688
    36  H    0.143395
    37  C   -0.455495
    38  H    0.149531
    39  H    0.153033
    40  H    0.166640
    41  N   -0.608413
    42  H    0.393954
    43  C   -0.062853
    44  H    0.203723
    45  C    0.602942
    46  C   -0.405428
    47  H    0.173603
    48  H    0.200425
    49  O   -0.519902
    50  C    0.604316
    51  N   -0.765191
    52  H    0.365504
    53  H    0.357082
    54  O   -0.513584
    55  N   -0.614422
    56  H    0.366175
    57  C   -0.045489
    58  H    0.210274
    59  C    0.588469
    60  C   -0.283057
    61  H    0.188020
    62  H    0.157680
    63  O   -0.456460
    64  C   -0.292916
    65  H    0.146274
    66  H    0.201163
    67  C   -0.181459
    68  H    0.195988
    69  H    0.172313
    70  N   -0.611572
    71  H    0.423739
    72  N   -0.760746
    73  H    0.376424
    74  H    0.381146
    75  N   -0.791268
    76  H    0.361011
    77  H    0.421546
    78  C    0.785734
    79  O   -0.555623
    80  H    0.433221
 Sum of Mulliken charges =   1.00000

 Dipole moment (field-independent basis, Debye):
    X=             11.0404    Y=             11.0903    Z=             -8.4151  Tot=             17.7679
 Quadrupole moment (field-independent basis, Debye-Ang):
   XX=           -125.7048   YY=           -162.1453   ZZ=           -200.3772
   XY=             18.6915   XZ=            -43.0132   YZ=            -34.9655

 Normal termination of Gaussian 16 at Fri Jun 17 19:11:21 2022.
