 Gaussian 16, Revision C.01,
 Gaussian 16:  ES64L-G16RevC.01  3-Jul-2019

 ----------------------------------------------------------------------
 # B3LYP/6-31G* empiricaldispersion=gd3 guess=read geom=check nosymm in
 tegral(ultrafinegrid)
 ----------------------------------------------------------------------

 ------------------------------------------------------
 Candidate Structure: Conf:746 Charge calc in gas phase
 ------------------------------------------------------
 Structure from the checkpoint file:  "conf-746.chk"
 Charge =  1 Multiplicity = 1

                          Input orientation:
 ---------------------------------------------------------------------
 Center     Atomic      Atomic             Coordinates (Angstroms)
 Number     Number       Type             X           Y           Z
 ---------------------------------------------------------------------
      1          7           0       -4.685033   -0.202394    3.748203
      2          1           0       -5.570050   -0.198409    3.243582
      3          1           0       -4.447948   -1.187002    3.868344
      4          6           0       -3.657869    0.419209    2.933043
      5          1           0       -3.958291    1.459577    2.740698
      6          6           0       -3.460492   -0.271249    1.566677
      7          6           0       -2.312806    0.466697    3.716907
      8          1           0       -2.472389    1.124066    4.576993
      9          1           0       -1.545427    0.933072    3.085438
     10          8           0       -3.875927   -1.395505    1.324929
     11          6           0       -1.847397   -0.894459    4.186359
     12          6           0       -2.129242   -1.330285    5.487529
     13          1           0       -2.659760   -0.668356    6.166846
     14          6           0       -1.181184   -1.768875    3.316798
     15          1           0       -0.969263   -1.453856    2.300134
     16          6           0       -1.746153   -2.604459    5.911306
     17          1           0       -1.969952   -2.924681    6.925234
     18          6           0       -0.806468   -3.046573    3.731069
     19          1           0       -0.320577   -3.712756    3.025608
     20          6           0       -1.084912   -3.465608    5.034103
     21          1           0       -0.795110   -4.460359    5.361435
     22          7           0       -2.760769    0.468391    0.638905
     23          1           0       -2.468126    1.406786    0.878342
     24          6           0       -2.418682   -0.037276   -0.683423
     25          1           0       -2.667222   -1.101749   -0.664722
     26          6           0       -0.901609    0.127667   -0.873858
     27          6           0       -3.202279    0.667584   -1.796397
     28          1           0       -2.918822    1.730658   -1.760037
     29          1           0       -2.857311    0.260684   -2.760777
     30          8           0       -0.415137    1.089427   -1.497961
     31          6           0       -4.733134    0.538776   -1.708440
     32          1           0       -5.040918    0.919031   -0.725122
     33          6           0       -5.387480    1.421397   -2.782272
     34          1           0       -5.100638    1.091978   -3.791305
     35          1           0       -6.479482    1.369847   -2.725136
     36          1           0       -5.105826    2.477782   -2.664621
     37          6           0       -5.202908   -0.918116   -1.828271
     38          1           0       -4.843079   -1.370616   -2.762069
     39          1           0       -4.853311   -1.522684   -0.986660
     40          1           0       -6.297174   -0.967483   -1.836819
     41          7           0       -0.151293   -0.782872   -0.230489
     42          1           0       -0.568281   -1.656578    0.097697
     43          6           0        1.299802   -0.767122   -0.252093
     44          1           0        1.633047    0.243279    0.011496
     45          6           0        1.818582   -1.112534   -1.665908
     46          6           0        1.863820   -1.762593    0.787782
     47          1           0        2.957128   -1.718112    0.759947
     48          1           0        1.537240   -1.455328    1.787420
     49          8           0        1.178538   -1.816691   -2.431797
     50          6           0        1.331435   -3.178026    0.562984
     51          7           0        2.246401   -4.151239    0.358589
     52          1           0        1.915725   -5.093048    0.193089
     53          1           0        3.238010   -3.972993    0.311300
     54          8           0        0.119939   -3.400376    0.588189
     55          7           0        3.036820   -0.572849   -1.976043
     56          1           0        3.480110    0.059987   -1.323400
     57          6           0        3.525965   -0.576856   -3.346321
     58          1           0        3.090889   -1.462787   -3.821046
     59          6           0        5.040084   -0.715765   -3.446584
     60          6           0        3.069360    0.679934   -4.136456
     61          1           0        3.390723    0.559501   -5.175720
     62          1           0        3.592807    1.561532   -3.739403
     63          8           0        5.638291   -0.632515   -4.492723
     64          6           0        1.558685    0.870776   -4.006002
     65          1           0        1.024112    0.007219   -4.415261
     66          1           0        1.307623    0.910393   -2.945281
     67          6           0        1.012142    2.154765   -4.624268
     68          1           0        1.623773    3.019454   -4.332230
     69          1           0        0.997468    2.097237   -5.718723
     70          7           0       -0.368096    2.339746   -4.135846
     71          1           0       -0.582005    1.925608   -3.217362
     72          7           0       -1.019018    3.819590   -5.811257
     73          1           0       -1.739701    4.125255   -6.448856
     74          1           0       -0.064048    4.040810   -6.048669
     75          7           0       -2.597104    2.930480   -4.376012
     76          1           0       -3.268386    3.645854   -4.614980
     77          1           0       -2.871729    2.258806   -3.671665
     78          6           0       -1.312296    3.027655   -4.762615
     79          8           0        5.639355   -0.919446   -2.250856
     80          1           0        6.597585   -0.986810   -2.429785
 ---------------------------------------------------------------------

 SCF Done:  E(RB3LYP) =  -1866.72113526     A.U. after    3 cycles

 Alpha  occ. eigenvalues --  -19.29451 -19.23439 -19.23249 -19.21618 -19.21040
 Alpha  occ. eigenvalues --  -19.19409 -14.52402 -14.51549 -14.51167 -14.46584
 Alpha  occ. eigenvalues --  -14.45955 -14.45480 -14.44774 -14.37239 -10.48183
 Alpha  occ. eigenvalues --  -10.41692 -10.39615 -10.38987 -10.38855 -10.35987
 Alpha  occ. eigenvalues --  -10.35785 -10.34615 -10.34098 -10.32768 -10.30647
 Alpha  occ. eigenvalues --  -10.29748 -10.29445 -10.29307 -10.28864 -10.27865
 Alpha  occ. eigenvalues --  -10.26869 -10.25912 -10.25089 -10.24399 -10.24189
 Alpha  occ. eigenvalues --  -10.24042 -10.23978 -10.23949 -10.23923  -1.20139
 Alpha  occ. eigenvalues --   -1.16635  -1.14767  -1.13585  -1.12861  -1.11310
 Alpha  occ. eigenvalues --   -1.11145  -1.05734  -1.04959  -1.03166  -1.03096
 Alpha  occ. eigenvalues --   -1.01010  -1.00146  -0.95298  -0.91537  -0.90560
 Alpha  occ. eigenvalues --   -0.90310  -0.89284  -0.86387  -0.84505  -0.83053
 Alpha  occ. eigenvalues --   -0.81089  -0.79496  -0.78750  -0.77817  -0.77701
 Alpha  occ. eigenvalues --   -0.76563  -0.74772  -0.74497  -0.72179  -0.71352
 Alpha  occ. eigenvalues --   -0.70443  -0.69974  -0.69787  -0.68248  -0.68231
 Alpha  occ. eigenvalues --   -0.66943  -0.65957  -0.65677  -0.65473  -0.64553
 Alpha  occ. eigenvalues --   -0.63934  -0.63503  -0.63005  -0.61274  -0.60913
 Alpha  occ. eigenvalues --   -0.59994  -0.59173  -0.58800  -0.57685  -0.57478
 Alpha  occ. eigenvalues --   -0.57293  -0.57026  -0.56511  -0.56059  -0.55842
 Alpha  occ. eigenvalues --   -0.55667  -0.54981  -0.54449  -0.53634  -0.52521
 Alpha  occ. eigenvalues --   -0.52300  -0.51875  -0.51482  -0.51252  -0.50740
 Alpha  occ. eigenvalues --   -0.50311  -0.49939  -0.49676  -0.49522  -0.49379
 Alpha  occ. eigenvalues --   -0.49071  -0.48639  -0.47879  -0.47706  -0.47380
 Alpha  occ. eigenvalues --   -0.47125  -0.46921  -0.46718  -0.46510  -0.45747
 Alpha  occ. eigenvalues --   -0.45472  -0.45309  -0.44699  -0.44553  -0.44034
 Alpha  occ. eigenvalues --   -0.43281  -0.43192  -0.41646  -0.41207  -0.41183
 Alpha  occ. eigenvalues --   -0.41168  -0.40608  -0.40557  -0.39170  -0.38781
 Alpha  occ. eigenvalues --   -0.37898  -0.37855  -0.37209  -0.36258  -0.35751
 Alpha  occ. eigenvalues --   -0.34841  -0.34523  -0.33475  -0.33232  -0.30493
 Alpha  occ. eigenvalues --   -0.30054  -0.29322
 Alpha virt. eigenvalues --   -0.12297  -0.09697  -0.08706  -0.08127  -0.07807
 Alpha virt. eigenvalues --   -0.07417  -0.06076  -0.05418  -0.04787  -0.04440
 Alpha virt. eigenvalues --   -0.03038  -0.02734  -0.01676  -0.01154  -0.00808

 Mulliken charges:
               1
     1  N   -0.691841
     2  H    0.306396
     3  H    0.326780
     4  C   -0.079620
     5  H    0.139400
     6  C    0.599127
     7  C   -0.344322
     8  H    0.171714
     9  H    0.127616
    10  O   -0.505232
    11  C    0.143622
    12  C   -0.179958
    13  H    0.143666
    14  C   -0.176491
    15  H    0.103856
    16  C   -0.126881
    17  H    0.141093
    18  C   -0.142451
    19  H    0.146318
    20  C   -0.130203
    21  H    0.136463
    22  N   -0.607776
    23  H    0.330676
    24  C   -0.071269
    25  H    0.214626
    26  C    0.642862
    27  C   -0.283142
    28  H    0.120992
    29  H    0.135964
    30  O   -0.578219
    31  C   -0.063294
    32  H    0.142712
    33  C   -0.467417
    34  H    0.136901
    35  H    0.176440
    36  H    0.118607
    37  C   -0.473740
    38  H    0.137973
    39  H    0.197859
    40  H    0.157342
    41  N   -0.599080
    42  H    0.410024
    43  C   -0.073281
    44  H    0.167362
    45  C    0.637928
    46  C   -0.387060
    47  H    0.163037
    48  H    0.216266
    49  O   -0.511696
    50  C    0.632174
    51  N   -0.734256
    52  H    0.365821
    53  H    0.354258
    54  O   -0.516614
    55  N   -0.607384
    56  H    0.337928
    57  C   -0.067119
    58  H    0.226116
    59  C    0.595088
    60  C   -0.273721
    61  H    0.186678
    62  H    0.143530
    63  O   -0.444492
    64  C   -0.326142
    65  H    0.184472
    66  H    0.192647
    67  C   -0.148780
    68  H    0.175794
    69  H    0.174520
    70  N   -0.634292
    71  H    0.416718
    72  N   -0.761699
    73  H    0.381965
    74  H    0.387925
    75  N   -0.792480
    76  H    0.374902
    77  H    0.407105
    78  C    0.815193
    79  O   -0.573393
    80  H    0.426889
 Sum of Mulliken charges =   1.00000

 Dipole moment (field-independent basis, Debye):
    X=              1.4396    Y=              9.9627    Z=            -14.9039  Tot=             17.9848
 Quadrupole moment (field-independent basis, Debye-Ang):
   XX=           -175.3721   YY=           -173.2571   ZZ=           -142.6748
   XY=            -38.9337   XZ=             28.4612   YZ=            -66.1320

 Normal termination of Gaussian 16 at Fri Jun 17 19:11:10 2022.
