 Gaussian 16, Revision C.01,
 Gaussian 16:  ES64L-G16RevC.01  3-Jul-2019

 ----------------------------------------------------------------------
 # B3LYP/6-31G* empiricaldispersion=gd3 guess=read geom=check nosymm in
 tegral(ultrafinegrid)
 ----------------------------------------------------------------------

 ------------------------------------------------------
 Candidate Structure: Conf:535 Charge calc in gas phase
 ------------------------------------------------------
 Structure from the checkpoint file:  "conf-535.chk"
 Charge =  1 Multiplicity = 1

                          Input orientation:
 ---------------------------------------------------------------------
 Center     Atomic      Atomic             Coordinates (Angstroms)
 Number     Number       Type             X           Y           Z
 ---------------------------------------------------------------------
      1          7           0       -4.624956    1.411407    3.208983
      2          1           0       -5.059363    1.697252    4.085337
      3          1           0       -5.208927    1.772120    2.457278
      4          6           0       -3.273652    1.974946    3.135997
      5          1           0       -3.258203    3.072745    2.986682
      6          6           0       -2.586796    1.311140    1.936844
      7          6           0       -2.492804    1.661016    4.427040
      8          1           0       -1.462465    2.014485    4.297942
      9          1           0       -2.450590    0.573263    4.530922
     10          8           0       -1.945466    0.261384    2.023498
     11          6           0       -3.120419    2.305165    5.642699
     12          6           0       -2.891560    3.658029    5.931704
     13          1           0       -2.221678    4.234629    5.296350
     14          6           0       -3.978638    1.576718    6.478152
     15          1           0       -4.159066    0.524846    6.269132
     16          6           0       -3.502912    4.268577    7.026395
     17          1           0       -3.309211    5.316304    7.239856
     18          6           0       -4.594118    2.185481    7.574566
     19          1           0       -5.252677    1.604625    8.214383
     20          6           0       -4.357959    3.532739    7.850999
     21          1           0       -4.832167    4.006225    8.705959
     22          7           0       -2.759914    1.943893    0.739028
     23          1           0       -3.228937    2.839485    0.708918
     24          6           0       -2.351900    1.331746   -0.527043
     25          1           0       -2.511147    0.255342   -0.409674
     26          6           0       -0.835299    1.556532   -0.740514
     27          6           0       -3.181752    1.862711   -1.695381
     28          1           0       -4.236542    1.875538   -1.392387
     29          1           0       -2.884600    2.901388   -1.888037
     30          8           0       -0.394994    2.406349   -1.536870
     31          6           0       -3.040500    1.023260   -2.983617
     32          1           0       -1.970006    0.837382   -3.152934
     33          6           0       -3.738095   -0.340128   -2.863678
     34          1           0       -4.813874   -0.211286   -2.692436
     35          1           0       -3.614158   -0.921620   -3.783684
     36          1           0       -3.336805   -0.943216   -2.042305
     37          6           0       -3.593306    1.803915   -4.185363
     38          1           0       -4.667283    1.991137   -4.067245
     39          1           0       -3.109771    2.783313   -4.299211
     40          1           0       -3.463369    1.240566   -5.117308
     41          7           0       -0.066318    0.779349    0.033417
     42          1           0       -0.569698    0.219857    0.728313
     43          6           0        1.382934    0.782903    0.065988
     44          1           0        1.749387    1.808539    0.208484
     45          6           0        1.980627    0.210558   -1.242208
     46          6           0        1.810408   -0.102486    1.270958
     47          1           0        1.459106    0.372851    2.193824
     48          1           0        1.323462   -1.076481    1.173854
     49          8           0        1.358755   -0.556118   -1.956487
     50          6           0        3.314166   -0.362010    1.273489
     51          7           0        4.075999    0.585977    1.882742
     52          1           0        5.082280    0.491462    1.829214
     53          1           0        3.690426    1.267706    2.519494
     54          8           0        3.789192   -1.306003    0.653536
     55          7           0        3.264687    0.640686   -1.526707
     56          1           0        3.736172    1.175682   -0.798238
     57          6           0        4.206065   -0.267368   -2.204627
     58          1           0        3.777279   -1.272630   -2.207502
     59          6           0        5.493828   -0.283960   -1.383929
     60          6           0        4.533953    0.173887   -3.649024
     61          1           0        5.346113   -0.455693   -4.024711
     62          1           0        4.934884    1.195885   -3.600221
     63          8           0        5.813337    0.588652   -0.601507
     64          6           0        3.303429    0.103528   -4.586559
     65          1           0        3.393828   -0.762227   -5.249795
     66          1           0        2.407279   -0.084436   -3.987229
     67          6           0        3.076975    1.381649   -5.437932
     68          1           0        3.672971    2.222805   -5.065655
     69          1           0        3.374065    1.238339   -6.478660
     70          7           0        1.671525    1.814170   -5.461963
     71          1           0        1.102077    1.544250   -6.251673
     72          7           0        1.737381    2.615703   -3.274188
     73          1           0        1.159646    2.750277   -2.438592
     74          1           0        2.606847    2.133071   -3.076994
     75          7           0       -0.262215    2.602154   -4.412796
     76          1           0       -0.726425    2.725131   -3.514073
     77          1           0       -0.838811    2.330969   -5.195512
     78          6           0        1.050339    2.314082   -4.384343
     79          8           0        6.257089   -1.335691   -1.699696
     80          1           0        7.073182   -1.285084   -1.165991
 ---------------------------------------------------------------------

 SCF Done:  E(RB3LYP) =  -1866.72670043     A.U. after    1 cycles

 Alpha  occ. eigenvalues --  -19.29517 -19.24596 -19.24088 -19.23286 -19.21714
 Alpha  occ. eigenvalues --  -19.20982 -14.50888 -14.49419 -14.48089 -14.46913
 Alpha  occ. eigenvalues --  -14.46762 -14.46690 -14.45580 -14.39338 -10.46039
 Alpha  occ. eigenvalues --  -10.42257 -10.40547 -10.40071 -10.38967 -10.38328
 Alpha  occ. eigenvalues --  -10.35696 -10.35210 -10.34064 -10.33896 -10.30871
 Alpha  occ. eigenvalues --  -10.30700 -10.29995 -10.29680 -10.29035 -10.28858
 Alpha  occ. eigenvalues --  -10.27298 -10.26115 -10.26000 -10.25955 -10.25089
 Alpha  occ. eigenvalues --  -10.24980 -10.24896 -10.24842 -10.24729  -1.20662
 Alpha  occ. eigenvalues --   -1.15925  -1.14887  -1.14735  -1.13386  -1.12952
 Alpha  occ. eigenvalues --   -1.11761  -1.04706  -1.04178  -1.03309  -1.02686
 Alpha  occ. eigenvalues --   -1.02176  -1.00217  -0.96964  -0.91558  -0.91395
 Alpha  occ. eigenvalues --   -0.91058  -0.89526  -0.86142  -0.85053  -0.84158
 Alpha  occ. eigenvalues --   -0.80368  -0.80339  -0.79129  -0.78928  -0.77589
 Alpha  occ. eigenvalues --   -0.76424  -0.75340  -0.73279  -0.72430  -0.72151
 Alpha  occ. eigenvalues --   -0.70963  -0.69515  -0.68606  -0.68423  -0.68171
 Alpha  occ. eigenvalues --   -0.67513  -0.66510  -0.65725  -0.64398  -0.63866
 Alpha  occ. eigenvalues --   -0.63669  -0.63064  -0.62470  -0.61816  -0.60531
 Alpha  occ. eigenvalues --   -0.59940  -0.59476  -0.58972  -0.58906  -0.58134
 Alpha  occ. eigenvalues --   -0.57546  -0.56810  -0.56790  -0.56562  -0.56420
 Alpha  occ. eigenvalues --   -0.55913  -0.55695  -0.54829  -0.54781  -0.53931
 Alpha  occ. eigenvalues --   -0.53178  -0.52637  -0.52224  -0.51931  -0.51750
 Alpha  occ. eigenvalues --   -0.51290  -0.51052  -0.50723  -0.49994  -0.49778
 Alpha  occ. eigenvalues --   -0.49216  -0.48965  -0.48462  -0.47955  -0.47869
 Alpha  occ. eigenvalues --   -0.47716  -0.47484  -0.47207  -0.46806  -0.46201
 Alpha  occ. eigenvalues --   -0.46130  -0.45779  -0.45398  -0.45282  -0.45147
 Alpha  occ. eigenvalues --   -0.43778  -0.42785  -0.42476  -0.42267  -0.41595
 Alpha  occ. eigenvalues --   -0.41439  -0.40701  -0.39959  -0.39862  -0.39538
 Alpha  occ. eigenvalues --   -0.39307  -0.38591  -0.37849  -0.37271  -0.36577
 Alpha  occ. eigenvalues --   -0.36173  -0.35703  -0.35264  -0.34607  -0.31607
 Alpha  occ. eigenvalues --   -0.30940  -0.30366
 Alpha virt. eigenvalues --   -0.11051  -0.10170  -0.10061  -0.09095  -0.07814
 Alpha virt. eigenvalues --   -0.07347  -0.06415  -0.06305  -0.06112  -0.03256
 Alpha virt. eigenvalues --   -0.02498  -0.02090  -0.01888  -0.01001  -0.00414

 Mulliken charges:
               1
     1  N   -0.714051
     2  H    0.327225
     3  H    0.298185
     4  C   -0.069216
     5  H    0.118601
     6  C    0.663871
     7  C   -0.346230
     8  H    0.138937
     9  H    0.187218
    10  O   -0.542258
    11  C    0.143422
    12  C   -0.178397
    13  H    0.117409
    14  C   -0.194900
    15  H    0.145709
    16  C   -0.127775
    17  H    0.140076
    18  C   -0.127354
    19  H    0.145215
    20  C   -0.128667
    21  H    0.144513
    22  N   -0.621854
    23  H    0.340825
    24  C   -0.061871
    25  H    0.197672
    26  C    0.659343
    27  C   -0.291610
    28  H    0.155668
    29  H    0.149462
    30  O   -0.592656
    31  C   -0.093596
    32  H    0.125549
    33  C   -0.453404
    34  H    0.157614
    35  H    0.157817
    36  H    0.160495
    37  C   -0.464201
    38  H    0.170029
    39  H    0.130553
    40  H    0.148864
    41  N   -0.610366
    42  H    0.407153
    43  C   -0.040471
    44  H    0.168065
    45  C    0.607250
    46  C   -0.385715
    47  H    0.180825
    48  H    0.214189
    49  O   -0.490090
    50  C    0.570167
    51  N   -0.733183
    52  H    0.371147
    53  H    0.347892
    54  O   -0.498273
    55  N   -0.648057
    56  H    0.359693
    57  C   -0.034078
    58  H    0.221408
    59  C    0.613418
    60  C   -0.298286
    61  H    0.191445
    62  H    0.151494
    63  O   -0.488685
    64  C   -0.324676
    65  H    0.178962
    66  H    0.205924
    67  C   -0.182829
    68  H    0.190047
    69  H    0.195246
    70  N   -0.588149
    71  H    0.357377
    72  N   -0.776086
    73  H    0.399551
    74  H    0.390820
    75  N   -0.787182
    76  H    0.414773
    77  H    0.364431
    78  C    0.789497
    79  O   -0.550799
    80  H    0.429919
 Sum of Mulliken charges =   1.00000

 Dipole moment (field-independent basis, Debye):
    X=              3.2184    Y=             10.6009    Z=             -9.7555  Tot=             14.7617
 Quadrupole moment (field-independent basis, Debye-Ang):
   XX=           -150.7542   YY=           -212.2095   ZZ=           -120.1069
   XY=            -13.3183   XZ=            -24.7618   YZ=             -1.8289

 Normal termination of Gaussian 16 at Fri Jun 17 19:10:49 2022.
