 Gaussian 16, Revision C.01,
 Gaussian 16:  ES64L-G16RevC.01  3-Jul-2019

 ----------------------------------------------------------------------
 # B3LYP/6-31G* empiricaldispersion=gd3 guess=read geom=check nosymm in
 tegral(ultrafinegrid)
 ----------------------------------------------------------------------

 ------------------------------------------------------
 Candidate Structure: Conf:102 Charge calc in gas phase
 ------------------------------------------------------
 Structure from the checkpoint file:  "conf-102.chk"
 Charge =  1 Multiplicity = 1

                          Input orientation:
 ---------------------------------------------------------------------
 Center     Atomic      Atomic             Coordinates (Angstroms)
 Number     Number       Type             X           Y           Z
 ---------------------------------------------------------------------
      1          7           0       -5.785710    2.204579    2.184452
      2          1           0       -6.093983    2.627295    1.310148
      3          1           0       -6.180199    1.262583    2.182560
      4          6           0       -4.334589    2.069267    2.181571
      5          1           0       -3.896054    3.028704    1.876614
      6          6           0       -3.853461    0.964630    1.222617
      7          6           0       -3.822840    1.743466    3.613397
      8          1           0       -2.786173    1.391040    3.549654
      9          1           0       -4.418653    0.901981    3.989554
     10          8           0       -4.567041    0.016661    0.905188
     11          6           0       -3.898396    2.925992    4.551952
     12          6           0       -5.122072    3.353137    5.086419
     13          1           0       -6.028484    2.819540    4.821585
     14          6           0       -2.737434    3.637265    4.881478
     15          1           0       -1.778495    3.311783    4.481461
     16          6           0       -5.178703    4.463494    5.928687
     17          1           0       -6.134798    4.780749    6.336724
     18          6           0       -2.791042    4.748796    5.724638
     19          1           0       -1.878097    5.283203    5.974672
     20          6           0       -4.014418    5.165222    6.251119
     21          1           0       -4.060506    6.026892    6.911658
     22          7           0       -2.563248    1.073398    0.788280
     23          1           0       -2.010107    1.897788    0.984470
     24          6           0       -1.969198    0.068429   -0.076545
     25          1           0       -2.349375   -0.904319    0.247850
     26          6           0       -0.455107    0.162551    0.071843
     27          6           0       -2.350532    0.307237   -1.556320
     28          1           0       -3.444618    0.263670   -1.612585
     29          1           0       -2.047917    1.335609   -1.797014
     30          8           0        0.125066    1.249984   -0.024299
     31          6           0       -1.725559   -0.665970   -2.572975
     32          1           0       -0.632370   -0.632619   -2.473030
     33          6           0       -2.173077   -2.117814   -2.349821
     34          1           0       -3.265889   -2.202787   -2.386355
     35          1           0       -1.752716   -2.779240   -3.115677
     36          1           0       -1.846307   -2.502483   -1.377848
     37          6           0       -2.083144   -0.217747   -3.997958
     38          1           0       -3.158650   -0.313879   -4.190121
     39          1           0       -1.834638    0.843258   -4.151658
     40          1           0       -1.559698   -0.826395   -4.747709
     41          7           0        0.217464   -0.996727    0.240550
     42          1           0       -0.290612   -1.865636    0.327209
     43          6           0        1.674041   -1.020022    0.243696
     44          1           0        2.026853   -0.380073    1.058340
     45          6           0        2.181842   -0.523878   -1.120071
     46          6           0        2.175681   -2.444248    0.490152
     47          1           0        1.782463   -3.114586   -0.283046
     48          1           0        3.268662   -2.453100    0.398094
     49          8           0        1.804490   -1.040709   -2.170152
     50          6           0        1.823793   -2.896354    1.914131
     51          7           0        1.516456   -4.219016    2.046122
     52          1           0        1.407032   -4.580217    2.985208
     53          1           0        1.688878   -4.884754    1.306667
     54          8           0        1.805836   -2.107958    2.846158
     55          7           0        3.087392    0.487789   -1.071206
     56          1           0        3.257998    0.951949   -0.189632
     57          6           0        3.627911    1.072808   -2.281374
     58          1           0        3.597748    0.282425   -3.040205
     59          6           0        5.090788    1.490824   -2.148668
     60          6           0        2.810130    2.275064   -2.805379
     61          1           0        3.312782    2.616999   -3.717482
     62          1           0        2.868026    3.097687   -2.079356
     63          8           0        5.682088    2.081189   -3.024115
     64          6           0        1.339826    1.930153   -3.068180
     65          1           0        1.274110    0.996129   -3.639190
     66          1           0        0.826854    1.742901   -2.119198
     67          6           0        0.591572    3.058349   -3.781241
     68          1           0       -0.476469    2.837504   -3.877142
     69          1           0        0.668154    3.993386   -3.219423
     70          7           0        1.115522    3.353289   -5.133902
     71          1           0        1.873367    4.020824   -5.196453
     72          7           0        0.073806    1.564559   -6.202664
     73          1           0       -0.368290    1.208240   -7.038283
     74          1           0       -0.160863    1.105688   -5.332624
     75          7           0        1.262337    3.115915   -7.436017
     76          1           0        1.280794    2.509693   -8.243829
     77          1           0        1.664135    4.036734   -7.540669
     78          6           0        0.822023    2.674343   -6.242966
     79          8           0        5.639110    1.148775   -0.966358
     80          1           0        6.565705    1.458218   -0.980529
 ---------------------------------------------------------------------

 SCF Done:  E(RB3LYP) =  -1866.69660184     A.U. after    3 cycles

 Alpha  occ. eigenvalues --  -19.29738 -19.23681 -19.21287 -19.21071 -19.19285
 Alpha  occ. eigenvalues --  -19.17723 -14.54136 -14.54079 -14.53903 -14.46190
 Alpha  occ. eigenvalues --  -14.45909 -14.43912 -14.42802 -14.36494 -10.50503
 Alpha  occ. eigenvalues --  -10.42115 -10.38453 -10.37887 -10.37312 -10.36993
 Alpha  occ. eigenvalues --  -10.34383 -10.34363 -10.32990 -10.31268 -10.30398
 Alpha  occ. eigenvalues --  -10.30245 -10.29328 -10.27919 -10.27841 -10.27629
 Alpha  occ. eigenvalues --  -10.26694 -10.25567 -10.24012 -10.23249 -10.22597
 Alpha  occ. eigenvalues --  -10.22504 -10.22324 -10.22231 -10.21897  -1.20544
 Alpha  occ. eigenvalues --   -1.18841  -1.13724  -1.12582  -1.11529  -1.11297
 Alpha  occ. eigenvalues --   -1.09604  -1.08036  -1.06956  -1.02856  -1.02145
 Alpha  occ. eigenvalues --   -0.99264  -0.98537  -0.94121  -0.92354  -0.89912
 Alpha  occ. eigenvalues --   -0.88832  -0.88614  -0.86766  -0.83378  -0.82565
 Alpha  occ. eigenvalues --   -0.81575  -0.79905  -0.77695  -0.77586  -0.77155
 Alpha  occ. eigenvalues --   -0.76389  -0.76178  -0.74365  -0.73629  -0.71691
 Alpha  occ. eigenvalues --   -0.70596  -0.69782  -0.68313  -0.67628  -0.67409
 Alpha  occ. eigenvalues --   -0.67188  -0.66751  -0.65679  -0.64482  -0.63907
 Alpha  occ. eigenvalues --   -0.63250  -0.62364  -0.62145  -0.61736  -0.60775
 Alpha  occ. eigenvalues --   -0.60262  -0.59807  -0.58120  -0.57436  -0.57348
 Alpha  occ. eigenvalues --   -0.56974  -0.56399  -0.55922  -0.55507  -0.54837
 Alpha  occ. eigenvalues --   -0.54197  -0.54063  -0.53772  -0.53383  -0.52769
 Alpha  occ. eigenvalues --   -0.52134  -0.51453  -0.50809  -0.50628  -0.50369
 Alpha  occ. eigenvalues --   -0.49683  -0.49331  -0.49157  -0.49053  -0.48250
 Alpha  occ. eigenvalues --   -0.47905  -0.47664  -0.47426  -0.47144  -0.46845
 Alpha  occ. eigenvalues --   -0.46382  -0.46217  -0.45892  -0.45384  -0.45309
 Alpha  occ. eigenvalues --   -0.45193  -0.45001  -0.44920  -0.44288  -0.43412
 Alpha  occ. eigenvalues --   -0.42600  -0.42320  -0.41601  -0.41525  -0.41358
 Alpha  occ. eigenvalues --   -0.41036  -0.40620  -0.38591  -0.38164  -0.37700
 Alpha  occ. eigenvalues --   -0.37348  -0.36427  -0.35657  -0.34940  -0.34898
 Alpha  occ. eigenvalues --   -0.33984  -0.33173  -0.32024  -0.31848  -0.29334
 Alpha  occ. eigenvalues --   -0.28138  -0.27606
 Alpha virt. eigenvalues --   -0.14418  -0.10252  -0.09045  -0.08143  -0.07326
 Alpha virt. eigenvalues --   -0.06879  -0.05994  -0.05451  -0.04930  -0.04326
 Alpha virt. eigenvalues --   -0.03463  -0.02782  -0.02593  -0.02055  -0.01923

 Mulliken charges:
               1
     1  N   -0.688837
     2  H    0.300813
     3  H    0.315976
     4  C   -0.077484
     5  H    0.138851
     6  C    0.593770
     7  C   -0.349717
     8  H    0.143250
     9  H    0.161529
    10  O   -0.530772
    11  C    0.169033
    12  C   -0.153464
    13  H    0.144623
    14  C   -0.190528
    15  H    0.110016
    16  C   -0.134000
    17  H    0.133661
    18  C   -0.128986
    19  H    0.126925
    20  C   -0.129348
    21  H    0.132058
    22  N   -0.619354
    23  H    0.340598
    24  C   -0.023378
    25  H    0.174399
    26  C    0.626704
    27  C   -0.260511
    28  H    0.174046
    29  H    0.123972
    30  O   -0.567008
    31  C   -0.109506
    32  H    0.167564
    33  C   -0.443085
    34  H    0.164485
    35  H    0.151794
    36  H    0.130831
    37  C   -0.471696
    38  H    0.172525
    39  H    0.108985
    40  H    0.138116
    41  N   -0.594508
    42  H    0.350424
    43  C   -0.025338
    44  H    0.196110
    45  C    0.649030
    46  C   -0.417705
    47  H    0.174064
    48  H    0.201170
    49  O   -0.549393
    50  C    0.595697
    51  N   -0.746238
    52  H    0.358299
    53  H    0.345231
    54  O   -0.485992
    55  N   -0.590567
    56  H    0.353741
    57  C   -0.064346
    58  H    0.211502
    59  C    0.597533
    60  C   -0.269165
    61  H    0.151621
    62  H    0.158588
    63  O   -0.457566
    64  C   -0.318777
    65  H    0.163086
    66  H    0.232479
    67  C   -0.201915
    68  H    0.196584
    69  H    0.200397
    70  N   -0.583228
    71  H    0.369848
    72  N   -0.765791
    73  H    0.385187
    74  H    0.408422
    75  N   -0.762864
    76  H    0.387647
    77  H    0.387130
    78  C    0.825445
    79  O   -0.562042
    80  H    0.429351
 Sum of Mulliken charges =   1.00000

 Dipole moment (field-independent basis, Debye):
    X=              7.2634    Y=              6.9228    Z=            -24.5312  Tot=             26.5040
 Quadrupole moment (field-independent basis, Debye-Ang):
   XX=           -209.8574   YY=           -160.7442   ZZ=            -69.6148
   XY=              7.3144   XZ=             -9.7510   YZ=            -70.9447

 Normal termination of Gaussian 16 at Fri Jun 17 19:11:22 2022.
