 Gaussian 16, Revision C.01,
 Gaussian 16:  ES64L-G16RevC.01  3-Jul-2019

 ----------------------------------------------------------------------
 # B3LYP/6-31G* empiricaldispersion=gd3 guess=read geom=check nosymm in
 tegral(ultrafinegrid)
 ----------------------------------------------------------------------

 ------------------------------------------------------
 Candidate Structure: Conf:669 Charge calc in gas phase
 ------------------------------------------------------
 Structure from the checkpoint file:  "conf-669.chk"
 Charge =  1 Multiplicity = 1

                          Input orientation:
 ---------------------------------------------------------------------
 Center     Atomic      Atomic             Coordinates (Angstroms)
 Number     Number       Type             X           Y           Z
 ---------------------------------------------------------------------
      1          7           0       -5.751114    2.199863    2.836217
      2          1           0       -6.180416    2.972557    2.330230
      3          1           0       -6.132512    1.351202    2.416241
      4          6           0       -4.312674    2.198556    2.613631
      5          1           0       -3.934688    3.218205    2.761652
      6          6           0       -3.932291    1.723319    1.200479
      7          6           0       -3.609424    1.272407    3.648426
      8          1           0       -2.583371    1.072204    3.314396
      9          1           0       -4.137914    0.310567    3.637429
     10          8           0       -4.669473    1.005234    0.530173
     11          6           0       -3.578905    1.861464    5.039780
     12          6           0       -2.404097    2.446776    5.529012
     13          1           0       -1.506954    2.445319    4.911808
     14          6           0       -4.721614    1.865449    5.851348
     15          1           0       -5.640749    1.431904    5.471958
     16          6           0       -2.365625    3.023225    6.799918
     17          1           0       -1.443455    3.467731    7.165108
     18          6           0       -4.685824    2.440578    7.121600
     19          1           0       -5.579404    2.434676    7.740098
     20          6           0       -3.508695    3.020941    7.600481
     21          1           0       -3.482296    3.464912    8.591903
     22          7           0       -2.702303    2.127735    0.754223
     23          1           0       -2.068500    2.600811    1.388870
     24          6           0       -2.084643    1.531977   -0.412983
     25          1           0       -2.595665    0.585017   -0.613717
     26          6           0       -0.608544    1.273079   -0.097833
     27          6           0       -2.173563    2.442139   -1.659855
     28          1           0       -1.669253    3.385685   -1.411341
     29          1           0       -1.599464    1.973561   -2.472037
     30          8           0        0.003548    1.918661    0.756014
     31          6           0       -3.596536    2.728396   -2.168376
     32          1           0       -4.196208    3.075825   -1.318208
     33          6           0       -3.553029    3.855114   -3.210761
     34          1           0       -2.938913    3.560984   -4.076419
     35          1           0       -4.554553    4.089738   -3.585750
     36          1           0       -3.121824    4.775502   -2.798906
     37          6           0       -4.263063    1.469864   -2.738954
     38          1           0       -3.653831    1.036246   -3.546487
     39          1           0       -4.413412    0.716363   -1.961777
     40          1           0       -5.247512    1.708081   -3.156271
     41          7           0       -0.008354    0.325040   -0.862316
     42          1           0       -0.497845   -0.169758   -1.602358
     43          6           0        1.396397   -0.021656   -0.674522
     44          1           0        1.606413    0.054388    0.397120
     45          6           0        2.292876    0.985252   -1.424699
     46          6           0        1.680528   -1.463099   -1.123007
     47          1           0        2.732273   -1.691499   -0.927214
     48          1           0        1.078803   -2.135588   -0.499698
     49          8           0        2.708325    0.749139   -2.572509
     50          6           0        1.312624   -1.762019   -2.572412
     51          7           0        2.174868   -2.523455   -3.268822
     52          1           0        1.937390   -2.794185   -4.214080
     53          1           0        3.083733   -2.780534   -2.912975
     54          8           0        0.232623   -1.382694   -3.057357
     55          7           0        2.543552    2.132358   -0.771879
     56          1           0        2.145475    2.267048    0.156614
     57          6           0        3.521462    3.110372   -1.233940
     58          1           0        4.238386    2.584912   -1.872733
     59          6           0        4.252788    3.628023    0.005688
     60          6           0        2.945500    4.306801   -2.029981
     61          1           0        3.788056    4.970618   -2.244883
     62          1           0        2.259863    4.870919   -1.383205
     63          8           0        3.876112    3.454856    1.141833
     64          6           0        2.247789    3.931704   -3.352662
     65          1           0        2.320709    4.775162   -4.049189
     66          1           0        2.762886    3.085942   -3.820317
     67          6           0        0.765885    3.600060   -3.146191
     68          1           0        0.635112    2.779106   -2.440896
     69          1           0        0.245312    4.460894   -2.715375
     70          7           0        0.045398    3.252260   -4.380353
     71          1           0       -0.379602    4.003977   -4.906744
     72          7           0        0.576907    0.986686   -4.407891
     73          1           0        0.212628    0.034840   -4.350061
     74          1           0        1.424510    1.117095   -3.848822
     75          7           0       -1.164651    1.787678   -5.705488
     76          1           0       -1.249039    0.888324   -6.157845
     77          1           0       -1.969176    2.398431   -5.738054
     78          6           0       -0.171971    2.002693   -4.815957
     79          8           0        5.347818    4.327990   -0.338245
     80          1           0        5.757551    4.659380    0.484365
 ---------------------------------------------------------------------

 SCF Done:  E(RB3LYP) =  -1866.73981936     A.U. after    3 cycles

 Alpha  occ. eigenvalues --  -19.30219 -19.24731 -19.24543 -19.24508 -19.23040
 Alpha  occ. eigenvalues --  -19.19141 -14.52013 -14.51696 -14.49566 -14.48265
 Alpha  occ. eigenvalues --  -14.48096 -14.47297 -14.43765 -14.37195 -10.47640
 Alpha  occ. eigenvalues --  -10.42817 -10.42260 -10.41307 -10.39748 -10.35859
 Alpha  occ. eigenvalues --  -10.35788 -10.35586 -10.35377 -10.32774 -10.32333
 Alpha  occ. eigenvalues --  -10.30880 -10.30859 -10.28818 -10.28744 -10.27992
 Alpha  occ. eigenvalues --  -10.27397 -10.25351 -10.24929 -10.23853 -10.23149
 Alpha  occ. eigenvalues --  -10.23003 -10.22813 -10.22732 -10.22470  -1.21248
 Alpha  occ. eigenvalues --   -1.16595  -1.16045  -1.15739  -1.14767  -1.12484
 Alpha  occ. eigenvalues --   -1.10906  -1.05753  -1.04835  -1.03906  -1.03736
 Alpha  occ. eigenvalues --   -1.03003  -1.00552  -0.94903  -0.92566  -0.90929
 Alpha  occ. eigenvalues --   -0.89905  -0.89401  -0.87745  -0.84692  -0.82460
 Alpha  occ. eigenvalues --   -0.81889  -0.79784  -0.78229  -0.77663  -0.77195
 Alpha  occ. eigenvalues --   -0.77052  -0.74946  -0.73363  -0.73283  -0.72905
 Alpha  occ. eigenvalues --   -0.71079  -0.70688  -0.70509  -0.69907  -0.68615
 Alpha  occ. eigenvalues --   -0.66406  -0.66314  -0.65546  -0.65078  -0.64829
 Alpha  occ. eigenvalues --   -0.64451  -0.64119  -0.62329  -0.61820  -0.61584
 Alpha  occ. eigenvalues --   -0.60556  -0.59864  -0.59530  -0.58706  -0.58172
 Alpha  occ. eigenvalues --   -0.57797  -0.57079  -0.57025  -0.56350  -0.55985
 Alpha  occ. eigenvalues --   -0.55542  -0.55016  -0.54714  -0.54284  -0.53681
 Alpha  occ. eigenvalues --   -0.53398  -0.52875  -0.52556  -0.52073  -0.51533
 Alpha  occ. eigenvalues --   -0.50928  -0.50637  -0.50320  -0.49821  -0.49649
 Alpha  occ. eigenvalues --   -0.49536  -0.49202  -0.48840  -0.48639  -0.48030
 Alpha  occ. eigenvalues --   -0.47849  -0.47663  -0.47244  -0.46836  -0.46507
 Alpha  occ. eigenvalues --   -0.46323  -0.45826  -0.45165  -0.43999  -0.42750
 Alpha  occ. eigenvalues --   -0.42563  -0.42325  -0.42204  -0.42027  -0.41638
 Alpha  occ. eigenvalues --   -0.41328  -0.40767  -0.39880  -0.39400  -0.39240
 Alpha  occ. eigenvalues --   -0.38703  -0.38390  -0.38319  -0.37913  -0.37805
 Alpha  occ. eigenvalues --   -0.36847  -0.36051  -0.33500  -0.33106  -0.30062
 Alpha  occ. eigenvalues --   -0.28684  -0.28205
 Alpha virt. eigenvalues --   -0.12626  -0.11675  -0.09979  -0.09493  -0.08641
 Alpha virt. eigenvalues --   -0.08375  -0.05456  -0.04518  -0.04032  -0.03990
 Alpha virt. eigenvalues --   -0.03638  -0.02327  -0.02105  -0.01673  -0.00598

 Mulliken charges:
               1
     1  N   -0.688638
     2  H    0.304837
     3  H    0.315613
     4  C   -0.080269
     5  H    0.150288
     6  C    0.587011
     7  C   -0.353518
     8  H    0.136752
     9  H    0.160515
    10  O   -0.525196
    11  C    0.169811
    12  C   -0.191135
    13  H    0.111647
    14  C   -0.152949
    15  H    0.143852
    16  C   -0.128777
    17  H    0.129531
    18  C   -0.133755
    19  H    0.135821
    20  C   -0.128635
    21  H    0.134612
    22  N   -0.601839
    23  H    0.349942
    24  C   -0.054614
    25  H    0.187422
    26  C    0.621020
    27  C   -0.262519
    28  H    0.137952
    29  H    0.108343
    30  O   -0.543090
    31  C   -0.066402
    32  H    0.164625
    33  C   -0.445420
    34  H    0.077763
    35  H    0.171827
    36  H    0.149620
    37  C   -0.461884
    38  H    0.099249
    39  H    0.198152
    40  H    0.159002
    41  N   -0.630632
    42  H    0.373938
    43  C   -0.060430
    44  H    0.201519
    45  C    0.622766
    46  C   -0.385914
    47  H    0.178231
    48  H    0.214869
    49  O   -0.572077
    50  C    0.651182
    51  N   -0.723712
    52  H    0.360837
    53  H    0.366748
    54  O   -0.574956
    55  N   -0.593328
    56  H    0.391069
    57  C   -0.049208
    58  H    0.207304
    59  C    0.588122
    60  C   -0.287324
    61  H    0.194047
    62  H    0.161304
    63  O   -0.443986
    64  C   -0.274492
    65  H    0.163456
    66  H    0.174668
    67  C   -0.184798
    68  H    0.195200
    69  H    0.186488
    70  N   -0.587225
    71  H    0.362607
    72  N   -0.804075
    73  H    0.393657
    74  H    0.432713
    75  N   -0.765843
    76  H    0.381408
    77  H    0.387412
    78  C    0.786855
    79  O   -0.558446
    80  H    0.433477
 Sum of Mulliken charges =   1.00000

 Dipole moment (field-independent basis, Debye):
    X=              5.3490    Y=              8.2729    Z=            -17.4903  Tot=             20.0739
 Quadrupole moment (field-independent basis, Debye-Ang):
   XX=           -192.3024   YY=           -166.9469   ZZ=           -146.3944
   XY=             -2.7215   XZ=              5.2956   YZ=            -25.0502

 Normal termination of Gaussian 16 at Fri Jun 17 19:11:16 2022.
