 Gaussian 16, Revision C.01,
 Gaussian 16:  ES64L-G16RevC.01  3-Jul-2019

 ----------------------------------------------------------------------
 # B3LYP/6-31G* empiricaldispersion=gd3 guess=read geom=check nosymm in
 tegral(ultrafinegrid)
 ----------------------------------------------------------------------

 -----------------------------------------------------
 Candidate Structure: Conf:34 Charge calc in gas phase
 -----------------------------------------------------
 Structure from the checkpoint file:  "conf-34.chk"
 Charge =  1 Multiplicity = 1

                          Input orientation:
 ---------------------------------------------------------------------
 Center     Atomic      Atomic             Coordinates (Angstroms)
 Number     Number       Type             X           Y           Z
 ---------------------------------------------------------------------
      1          7           0       -4.388372    0.759161    3.468212
      2          1           0       -4.702709    1.138687    4.359985
      3          1           0       -5.185482    0.792073    2.835439
      4          6           0       -3.290551    1.582012    2.959233
      5          1           0       -3.599475    2.605956    2.671371
      6          6           0       -2.723604    0.874709    1.722552
      7          6           0       -2.176686    1.711440    4.020126
      8          1           0       -1.345191    2.260273    3.564078
      9          1           0       -1.831811    0.696044    4.240265
     10          8           0       -1.996302   -0.119651    1.795312
     11          6           0       -2.649750    2.411584    5.272897
     12          6           0       -3.134030    1.681835    6.368266
     13          1           0       -3.136476    0.595050    6.324059
     14          6           0       -2.646664    3.811773    5.348267
     15          1           0       -2.263442    4.389935    4.509788
     16          6           0       -3.606813    2.334922    7.508861
     17          1           0       -3.975388    1.753798    8.349779
     18          6           0       -3.116798    4.466930    6.486393
     19          1           0       -3.101427    5.552605    6.530650
     20          6           0       -3.599701    3.729271    7.570328
     21          1           0       -3.962940    4.238632    8.458448
     22          7           0       -3.101656    1.400563    0.521311
     23          1           0       -3.591979    2.285011    0.502517
     24          6           0       -2.723196    0.795122   -0.757820
     25          1           0       -2.742812   -0.287109   -0.598212
     26          6           0       -1.270008    1.198028   -1.088769
     27          6           0       -3.706124    1.188940   -1.859595
     28          1           0       -4.723455    1.015576   -1.486058
     29          1           0       -3.608270    2.268043   -2.039683
     30          8           0       -0.994241    2.069668   -1.937470
     31          6           0       -3.518025    0.421924   -3.185210
     32          1           0       -2.463946    0.508606   -3.482786
     33          6           0       -3.845426   -1.072321   -3.045909
     34          1           0       -4.881636   -1.214848   -2.714952
     35          1           0       -3.728984   -1.584625   -4.007095
     36          1           0       -3.189437   -1.577095   -2.328832
     37          6           0       -4.384072    1.059736   -4.281979
     38          1           0       -5.450172    0.961443   -4.044255
     39          1           0       -4.180964    2.133709   -4.392394
     40          1           0       -4.218478    0.572963   -5.250075
     41          7           0       -0.354103    0.572983   -0.344136
     42          1           0       -0.728722   -0.006294    0.412860
     43          6           0        1.046070    0.947668   -0.306370
     44          1           0        1.109895    2.043321   -0.310425
     45          6           0        1.778290    0.417072   -1.556571
     46          6           0        1.647563    0.446029    1.014103
     47          1           0        1.487010   -0.634863    1.114356
     48          1           0        2.732539    0.599245    1.035364
     49          8           0        1.206759   -0.227664   -2.426752
     50          6           0        1.038943    1.216499    2.198485
     51          7           0        1.156431    0.606766    3.404212
     52          1           0        0.710457    1.043019    4.200264
     53          1           0        1.407594   -0.367428    3.488206
     54          8           0        0.535786    2.323568    2.045923
     55          7           0        3.088580    0.796066   -1.652404
     56          1           0        3.554123    1.192425   -0.842899
     57          6           0        3.992163    0.182746   -2.619255
     58          1           0        3.560233   -0.778908   -2.918668
     59          6           0        5.310779   -0.082262   -1.897372
     60          6           0        4.228584    1.018117   -3.902040
     61          1           0        4.868390    0.422374   -4.559610
     62          1           0        4.794169    1.926452   -3.653771
     63          8           0        5.558791    0.295700   -0.771895
     64          6           0        2.919076    1.382970   -4.627759
     65          1           0        3.127373    1.505176   -5.698057
     66          1           0        2.208970    0.557250   -4.527745
     67          6           0        2.264348    2.671065   -4.068541
     68          1           0        2.618121    2.859271   -3.054362
     69          1           0        2.537455    3.552849   -4.660497
     70          7           0        0.807324    2.600922   -3.962762
     71          1           0        0.396853    2.285010   -3.074924
     72          7           0        0.320052    3.019023   -6.208504
     73          1           0       -0.300689    3.471016   -6.863962
     74          1           0        1.291180    2.946832   -6.470419
     75          7           0       -1.380915    2.876762   -4.631154
     76          1           0       -2.059821    2.649436   -5.344129
     77          1           0       -1.635931    2.658706   -3.664939
     78          6           0       -0.068171    2.821586   -4.931861
     79          8           0        6.167891   -0.764808   -2.672264
     80          1           0        6.993590   -0.888052   -2.164993
 ---------------------------------------------------------------------

 SCF Done:  E(RB3LYP) =  -1866.73726538     A.U. after    1 cycles

 Alpha  occ. eigenvalues --  -19.30017 -19.24644 -19.23843 -19.22273 -19.20910
 Alpha  occ. eigenvalues --  -19.20461 -14.50774 -14.49158 -14.48765 -14.46485
 Alpha  occ. eigenvalues --  -14.46096 -14.45896 -14.44447 -14.38589 -10.46088
 Alpha  occ. eigenvalues --  -10.42594 -10.39645 -10.39336 -10.38314 -10.37613
 Alpha  occ. eigenvalues --  -10.34551 -10.34403 -10.34024 -10.33294 -10.30560
 Alpha  occ. eigenvalues --  -10.30164 -10.29904 -10.29796 -10.28478 -10.28405
 Alpha  occ. eigenvalues --  -10.26835 -10.25721 -10.25530 -10.25175 -10.24630
 Alpha  occ. eigenvalues --  -10.24583 -10.24574 -10.24522 -10.24401  -1.21086
 Alpha  occ. eigenvalues --   -1.15290  -1.14590  -1.13984  -1.12592  -1.12255
 Alpha  occ. eigenvalues --   -1.12234  -1.04140  -1.03388  -1.03144  -1.02783
 Alpha  occ. eigenvalues --   -1.01974  -0.99333  -0.96253  -0.91422  -0.91020
 Alpha  occ. eigenvalues --   -0.90648  -0.88968  -0.86110  -0.84585  -0.83585
 Alpha  occ. eigenvalues --   -0.80548  -0.79964  -0.78766  -0.78386  -0.77156
 Alpha  occ. eigenvalues --   -0.76446  -0.75010  -0.72751  -0.72407  -0.71617
 Alpha  occ. eigenvalues --   -0.70459  -0.68908  -0.68525  -0.68325  -0.67944
 Alpha  occ. eigenvalues --   -0.67460  -0.66126  -0.65282  -0.64202  -0.63635
 Alpha  occ. eigenvalues --   -0.63509  -0.62674  -0.62161  -0.61453  -0.60559
 Alpha  occ. eigenvalues --   -0.59986  -0.59031  -0.58694  -0.58477  -0.57951
 Alpha  occ. eigenvalues --   -0.57421  -0.56556  -0.56341  -0.55785  -0.55670
 Alpha  occ. eigenvalues --   -0.55403  -0.55000  -0.54595  -0.53984  -0.53435
 Alpha  occ. eigenvalues --   -0.52896  -0.52487  -0.52143  -0.51864  -0.51583
 Alpha  occ. eigenvalues --   -0.51208  -0.50535  -0.49848  -0.49630  -0.49335
 Alpha  occ. eigenvalues --   -0.49088  -0.48524  -0.48077  -0.47632  -0.47484
 Alpha  occ. eigenvalues --   -0.47197  -0.47049  -0.46710  -0.46235  -0.46072
 Alpha  occ. eigenvalues --   -0.45725  -0.45452  -0.45226  -0.44784  -0.44521
 Alpha  occ. eigenvalues --   -0.43325  -0.42312  -0.42178  -0.42013  -0.41826
 Alpha  occ. eigenvalues --   -0.41154  -0.40965  -0.39570  -0.39477  -0.38803
 Alpha  occ. eigenvalues --   -0.38707  -0.38295  -0.37328  -0.36191  -0.35743
 Alpha  occ. eigenvalues --   -0.35372  -0.35063  -0.34381  -0.34278  -0.31059
 Alpha  occ. eigenvalues --   -0.30565  -0.29905
 Alpha virt. eigenvalues --   -0.10595  -0.09565  -0.09415  -0.08804  -0.07349
 Alpha virt. eigenvalues --   -0.06724  -0.06145  -0.05878  -0.05344  -0.03704
 Alpha virt. eigenvalues --   -0.02002  -0.01773  -0.01527  -0.01123  -0.00655

 Mulliken charges:
               1
     1  N   -0.713317
     2  H    0.323802
     3  H    0.300769
     4  C   -0.062499
     5  H    0.116084
     6  C    0.675123
     7  C   -0.385721
     8  H    0.180705
     9  H    0.166865
    10  O   -0.554730
    11  C    0.140232
    12  C   -0.196779
    13  H    0.143001
    14  C   -0.181012
    15  H    0.127994
    16  C   -0.128027
    17  H    0.142764
    18  C   -0.128147
    19  H    0.139777
    20  C   -0.129002
    21  H    0.142867
    22  N   -0.615866
    23  H    0.341379
    24  C   -0.065891
    25  H    0.196592
    26  C    0.671134
    27  C   -0.287220
    28  H    0.157411
    29  H    0.140944
    30  O   -0.597993
    31  C   -0.090813
    32  H    0.128084
    33  C   -0.453567
    34  H    0.155856
    35  H    0.158332
    36  H    0.157498
    37  C   -0.459401
    38  H    0.167346
    39  H    0.123184
    40  H    0.152840
    41  N   -0.592043
    42  H    0.397765
    43  C   -0.053241
    44  H    0.203817
    45  C    0.605390
    46  C   -0.430409
    47  H    0.181796
    48  H    0.200909
    49  O   -0.514143
    50  C    0.636852
    51  N   -0.742749
    52  H    0.365241
    53  H    0.350592
    54  O   -0.511288
    55  N   -0.617350
    56  H    0.357366
    57  C   -0.043406
    58  H    0.210956
    59  C    0.588059
    60  C   -0.282839
    61  H    0.187351
    62  H    0.155982
    63  O   -0.462399
    64  C   -0.293663
    65  H    0.145158
    66  H    0.203723
    67  C   -0.180007
    68  H    0.193343
    69  H    0.172092
    70  N   -0.610860
    71  H    0.425049
    72  N   -0.760759
    73  H    0.377278
    74  H    0.380481
    75  N   -0.793919
    76  H    0.363970
    77  H    0.424024
    78  C    0.782610
    79  O   -0.554149
    80  H    0.432826
 Sum of Mulliken charges =   1.00000

 Dipole moment (field-independent basis, Debye):
    X=              1.2027    Y=              9.2026    Z=            -13.3697  Tot=             16.2753
 Quadrupole moment (field-independent basis, Debye-Ang):
   XX=           -155.5620   YY=           -201.8310   ZZ=           -102.7358
   XY=            -16.4720   XZ=            -20.0181   YZ=            -40.2311

 Normal termination of Gaussian 16 at Fri Jun 17 19:10:48 2022.
