 Gaussian 16, Revision C.01,
 Gaussian 16:  ES64L-G16RevC.01  3-Jul-2019

 ----------------------------------------------------------------------
 # B3LYP/6-31G* empiricaldispersion=gd3 guess=read geom=check nosymm in
 tegral(ultrafinegrid)
 ----------------------------------------------------------------------

 ------------------------------------------------------
 Candidate Structure: Conf:879 Charge calc in gas phase
 ------------------------------------------------------
 Structure from the checkpoint file:  "conf-879.chk"
 Charge =  1 Multiplicity = 1

                          Input orientation:
 ---------------------------------------------------------------------
 Center     Atomic      Atomic             Coordinates (Angstroms)
 Number     Number       Type             X           Y           Z
 ---------------------------------------------------------------------
      1          7           0       -1.832112    2.091281    3.016821
      2          1           0       -1.093283    2.728342    2.710178
      3          1           0       -2.292422    2.510143    3.823336
      4          6           0       -2.815732    1.909891    1.944014
      5          1           0       -3.573296    1.212107    2.323637
      6          6           0       -2.151218    1.131865    0.790586
      7          6           0       -3.543745    3.215477    1.525279
      8          1           0       -4.244595    2.995193    0.709285
      9          1           0       -2.802771    3.934769    1.148144
     10          8           0       -1.679643    0.006130    0.974760
     11          6           0       -4.295864    3.828361    2.685732
     12          6           0       -5.571563    3.358874    3.027342
     13          1           0       -6.038444    2.585726    2.420299
     14          6           0       -3.712260    4.826648    3.477013
     15          1           0       -2.726131    5.206888    3.219287
     16          6           0       -6.249383    3.875590    4.131282
     17          1           0       -7.240078    3.504785    4.378975
     18          6           0       -4.388045    5.345973    4.583387
     19          1           0       -3.923631    6.123903    5.182941
     20          6           0       -5.658075    4.870825    4.913313
     21          1           0       -6.186451    5.275929    5.771512
     22          7           0       -2.142216    1.706655   -0.444493
     23          1           0       -2.411186    2.674143   -0.552974
     24          6           0       -1.656362    1.003116   -1.635243
     25          1           0       -1.876760   -0.054655   -1.460526
     26          6           0       -0.121456    1.171557   -1.728032
     27          6           0       -2.386956    1.515600   -2.878301
     28          1           0       -3.465584    1.456250   -2.682093
     29          1           0       -2.133172    2.573859   -3.017658
     30          8           0        0.430154    1.894391   -2.559117
     31          6           0       -2.061249    0.763990   -4.182245
     32          1           0       -0.988350    0.892164   -4.357726
     33          6           0       -2.380113   -0.736272   -4.089999
     34          1           0       -3.437265   -0.901414   -3.849889
     35          1           0       -2.194804   -1.241486   -5.047571
     36          1           0       -1.793829   -1.249526   -3.316994
     37          6           0       -2.814383    1.401512   -5.357873
     38          1           0       -3.899619    1.309350   -5.228730
     39          1           0       -2.576858    2.467008   -5.451762
     40          1           0       -2.556326    0.913264   -6.306392
     41          7           0        0.562744    0.485739   -0.775316
     42          1           0       -0.011985    0.020006   -0.070518
     43          6           0        1.891302    0.933880   -0.388149
     44          1           0        1.903484    2.029470   -0.424344
     45          6           0        2.970206    0.409339   -1.335499
     46          6           0        2.172096    0.521421    1.066723
     47          1           0        2.161747   -0.570215    1.165188
     48          1           0        3.167534    0.871687    1.361216
     49          8           0        2.837423   -0.612680   -2.022866
     50          6           0        1.121351    1.205247    1.957386
     51          7           0        0.562843    0.455182    2.930500
     52          1           0       -0.345298    0.801585    3.272640
     53          1           0        0.686141   -0.547427    2.914605
     54          8           0        0.818846    2.381127    1.738533
     55          7           0        4.091232    1.157893   -1.371992
     56          1           0        4.202902    1.935499   -0.728034
     57          6           0        5.307525    0.736667   -2.051274
     58          1           0        5.342656   -0.358288   -2.049423
     59          6           0        6.478866    1.261554   -1.222230
     60          6           0        5.424129    1.230197   -3.512939
     61          1           0        6.423101    0.950834   -3.861396
     62          1           0        5.381581    2.327552   -3.523077
     63          8           0        6.364708    2.043867   -0.304031
     64          6           0        4.380745    0.639484   -4.481269
     65          1           0        4.809515    0.639316   -5.491385
     66          1           0        4.182083   -0.404714   -4.219232
     67          6           0        3.056886    1.416878   -4.537288
     68          1           0        2.520034    1.457800   -3.590656
     69          1           0        3.237609    2.455394   -4.831184
     70          7           0        2.139619    0.860354   -5.545904
     71          1           0        2.306832    1.125809   -6.508028
     72          7           0        1.192395   -0.825887   -4.229678
     73          1           0        0.368667   -1.382184   -4.048176
     74          1           0        1.828146   -0.691385   -3.427036
     75          7           0        0.456794   -0.464041   -6.401226
     76          1           0       -0.204703   -1.219431   -6.291024
     77          1           0        0.189130    0.252204   -7.062233
     78          6           0        1.266070   -0.134883   -5.360875
     79          8           0        7.647960    0.764792   -1.655931
     80          1           0        8.356686    1.149778   -1.104720
 ---------------------------------------------------------------------

 SCF Done:  E(RB3LYP) =  -1866.74427275     A.U. after    1 cycles

 Alpha  occ. eigenvalues --  -19.30022 -19.24623 -19.23195 -19.21905 -19.20738
 Alpha  occ. eigenvalues --  -19.19286 -14.51107 -14.50972 -14.49557 -14.47213
 Alpha  occ. eigenvalues --  -14.45936 -14.44859 -14.41922 -14.39598 -10.47039
 Alpha  occ. eigenvalues --  -10.42629 -10.40039 -10.38285 -10.37902 -10.36912
 Alpha  occ. eigenvalues --  -10.34681 -10.34058 -10.33395 -10.32998 -10.30831
 Alpha  occ. eigenvalues --  -10.30020 -10.29825 -10.29554 -10.28977 -10.28304
 Alpha  occ. eigenvalues --  -10.28233 -10.27223 -10.26901 -10.26446 -10.25366
 Alpha  occ. eigenvalues --  -10.25341 -10.25182 -10.25168 -10.24968  -1.21099
 Alpha  occ. eigenvalues --   -1.15604  -1.14991  -1.13505  -1.12453  -1.12293
 Alpha  occ. eigenvalues --   -1.10857  -1.05026  -1.03932  -1.03267  -1.02382
 Alpha  occ. eigenvalues --   -1.01577  -0.97552  -0.96930  -0.91774  -0.91553
 Alpha  occ. eigenvalues --   -0.91129  -0.88532  -0.86325  -0.85147  -0.83854
 Alpha  occ. eigenvalues --   -0.81022  -0.80661  -0.78927  -0.78597  -0.77765
 Alpha  occ. eigenvalues --   -0.76787  -0.74905  -0.73066  -0.72725  -0.72259
 Alpha  occ. eigenvalues --   -0.71002  -0.69352  -0.69218  -0.68534  -0.67419
 Alpha  occ. eigenvalues --   -0.66842  -0.66004  -0.65428  -0.64603  -0.64383
 Alpha  occ. eigenvalues --   -0.63783  -0.63066  -0.62041  -0.60902  -0.60264
 Alpha  occ. eigenvalues --   -0.59609  -0.58877  -0.58752  -0.58360  -0.58047
 Alpha  occ. eigenvalues --   -0.57788  -0.57293  -0.56912  -0.56061  -0.55517
 Alpha  occ. eigenvalues --   -0.54894  -0.54649  -0.54119  -0.53608  -0.53230
 Alpha  occ. eigenvalues --   -0.52972  -0.52652  -0.52152  -0.51811  -0.51710
 Alpha  occ. eigenvalues --   -0.51221  -0.50912  -0.50369  -0.49878  -0.49524
 Alpha  occ. eigenvalues --   -0.49000  -0.48689  -0.48506  -0.48222  -0.47957
 Alpha  occ. eigenvalues --   -0.47566  -0.47352  -0.47135  -0.46667  -0.46493
 Alpha  occ. eigenvalues --   -0.45883  -0.45634  -0.45353  -0.44836  -0.44413
 Alpha  occ. eigenvalues --   -0.43888  -0.42920  -0.42496  -0.42314  -0.42135
 Alpha  occ. eigenvalues --   -0.42036  -0.41767  -0.40654  -0.40300  -0.39635
 Alpha  occ. eigenvalues --   -0.38448  -0.37318  -0.37116  -0.36962  -0.35569
 Alpha  occ. eigenvalues --   -0.34819  -0.34243  -0.33511  -0.33141  -0.32633
 Alpha  occ. eigenvalues --   -0.31227  -0.30580
 Alpha virt. eigenvalues --   -0.11585  -0.10031  -0.09328  -0.08814  -0.08060
 Alpha virt. eigenvalues --   -0.07106  -0.06650  -0.06434  -0.05157  -0.04356
 Alpha virt. eigenvalues --   -0.03651  -0.01956  -0.00943  -0.00540   0.00109

 Mulliken charges:
               1
     1  N   -0.754847
     2  H    0.341474
     3  H    0.330473
     4  C   -0.051346
     5  H    0.183153
     6  C    0.639536
     7  C   -0.395430
     8  H    0.149968
     9  H    0.149300
    10  O   -0.551883
    11  C    0.158936
    12  C   -0.176618
    13  H    0.127792
    14  C   -0.195367
    15  H    0.131069
    16  C   -0.127423
    17  H    0.145203
    18  C   -0.127519
    19  H    0.145385
    20  C   -0.127234
    21  H    0.146849
    22  N   -0.613000
    23  H    0.351031
    24  C   -0.069631
    25  H    0.183553
    26  C    0.625516
    27  C   -0.271978
    28  H    0.151699
    29  H    0.157956
    30  O   -0.543234
    31  C   -0.096214
    32  H    0.140534
    33  C   -0.475325
    34  H    0.176498
    35  H    0.123253
    36  H    0.142306
    37  C   -0.446795
    38  H    0.162367
    39  H    0.159648
    40  H    0.122229
    41  N   -0.618480
    42  H    0.383126
    43  C   -0.057598
    44  H    0.202938
    45  C    0.641073
    46  C   -0.396397
    47  H    0.168592
    48  H    0.195868
    49  O   -0.575151
    50  C    0.603052
    51  N   -0.737627
    52  H    0.398747
    53  H    0.334883
    54  O   -0.540715
    55  N   -0.595225
    56  H    0.367333
    57  C   -0.043271
    58  H    0.207066
    59  C    0.587470
    60  C   -0.279655
    61  H    0.189022
    62  H    0.158421
    63  O   -0.454378
    64  C   -0.270895
    65  H    0.151576
    66  H    0.173326
    67  C   -0.195758
    68  H    0.230247
    69  H    0.180860
    70  N   -0.593190
    71  H    0.358796
    72  N   -0.788355
    73  H    0.368256
    74  H    0.461903
    75  N   -0.759496
    76  H    0.375029
    77  H    0.373743
    78  C    0.795122
    79  O   -0.555978
    80  H    0.433834
 Sum of Mulliken charges =   1.00000

 Dipole moment (field-independent basis, Debye):
    X=              4.3125    Y=              3.4928    Z=            -16.2090  Tot=             17.1327
 Quadrupole moment (field-independent basis, Debye-Ang):
   XX=           -141.7228   YY=           -215.8911   ZZ=           -103.8763
   XY=             -4.3639   XZ=            -34.7318   YZ=              2.1855

 Normal termination of Gaussian 16 at Fri Jun 17 19:45:05 2022.
