 Gaussian 16, Revision C.01,
 Gaussian 16:  ES64L-G16RevC.01  3-Jul-2019

 ----------------------------------------------------------------------
 # B3LYP/6-31G* empiricaldispersion=gd3 guess=read geom=check nosymm in
 tegral(ultrafinegrid)
 ----------------------------------------------------------------------

 ------------------------------------------------------
 Candidate Structure: Conf:797 Charge calc in gas phase
 ------------------------------------------------------
 Structure from the checkpoint file:  "conf-797.chk"
 Charge =  1 Multiplicity = 1

                          Input orientation:
 ---------------------------------------------------------------------
 Center     Atomic      Atomic             Coordinates (Angstroms)
 Number     Number       Type             X           Y           Z
 ---------------------------------------------------------------------
      1          7           0       -4.679239    3.295120    2.694864
      2          1           0       -5.200473    4.003494    3.206334
      3          1           0       -5.288370    2.924171    1.967762
      4          6           0       -3.518807    3.910588    2.050328
      5          1           0       -3.768500    4.830449    1.485388
      6          6           0       -3.046864    2.916035    0.976166
      7          6           0       -2.464205    4.294618    3.110602
      8          1           0       -1.589447    4.729837    2.608610
      9          1           0       -2.145484    3.381718    3.626888
     10          8           0       -3.855604    2.418531    0.193342
     11          6           0       -3.001326    5.297735    4.108662
     12          6           0       -2.906216    6.673109    3.858438
     13          1           0       -2.405302    7.018918    2.956093
     14          6           0       -3.647263    4.871396    5.277541
     15          1           0       -3.736105    3.806469    5.474578
     16          6           0       -3.440174    7.601985    4.752485
     17          1           0       -3.352956    8.665123    4.544342
     18          6           0       -4.183125    5.797849    6.173618
     19          1           0       -4.678516    5.450199    7.076216
     20          6           0       -4.080576    7.166059    5.914271
     21          1           0       -4.494231    7.887474    6.613477
     22          7           0       -1.719811    2.629234    0.904724
     23          1           0       -1.043437    3.023180    1.543961
     24          6           0       -1.214747    1.690067   -0.081101
     25          1           0       -1.919418    0.855052   -0.141705
     26          6           0        0.153983    1.212710    0.404330
     27          6           0       -1.111877    2.366823   -1.471077
     28          1           0       -2.103393    2.790926   -1.666704
     29          1           0       -0.407198    3.205038   -1.377885
     30          8           0        0.901612    1.972759    1.036995
     31          6           0       -0.706091    1.470586   -2.655684
     32          1           0        0.309424    1.088621   -2.478764
     33          6           0       -1.645913    0.269055   -2.843741
     34          1           0       -2.689466    0.600540   -2.904364
     35          1           0       -1.406472   -0.272745   -3.766076
     36          1           0       -1.576314   -0.452195   -2.024009
     37          6           0       -0.685125    2.321682   -3.939198
     38          1           0       -1.698554    2.645173   -4.205175
     39          1           0       -0.080408    3.229036   -3.798281
     40          1           0       -0.287428    1.743552   -4.785776
     41          7           0        0.487454   -0.045767    0.047029
     42          1           0       -0.247234   -0.687007   -0.259134
     43          6           0        1.708592   -0.712941    0.512182
     44          1           0        1.858169   -0.466131    1.570504
     45          6           0        2.891803   -0.166927   -0.327098
     46          6           0        1.608571   -2.236754    0.310252
     47          1           0        1.770497   -2.441156   -0.753260
     48          1           0        2.432392   -2.707911    0.854757
     49          8           0        3.293258   -0.732465   -1.339189
     50          6           0        0.252943   -2.829104    0.676932
     51          7           0        0.246183   -3.814460    1.604469
     52          1           0       -0.634841   -4.260753    1.823675
     53          1           0        1.088868   -4.182142    2.019348
     54          8           0       -0.783349   -2.435195    0.133596
     55          7           0        3.382472    1.025823    0.111141
     56          1           0        2.801553    1.523556    0.786191
     57          6           0        4.154645    1.834334   -0.817329
     58          1           0        4.880899    1.171277   -1.302003
     59          6           0        4.950429    2.931568   -0.123000
     60          6           0        3.217900    2.414908   -1.903401
     61          1           0        2.550391    3.150674   -1.436659
     62          1           0        2.595437    1.575432   -2.230054
     63          8           0        5.520878    3.817310   -0.725678
     64          6           0        3.905624    3.015306   -3.133860
     65          1           0        4.466989    3.912522   -2.860387
     66          1           0        4.616663    2.286668   -3.546802
     67          6           0        2.839748    3.336049   -4.178522
     68          1           0        2.291071    2.421467   -4.436494
     69          1           0        2.124785    4.063060   -3.775577
     70          7           0        3.431898    3.902719   -5.403324
     71          1           0        4.441927    3.913995   -5.470930
     72          7           0        1.396241    4.130886   -6.487057
     73          1           0        0.821055    4.600646   -7.171589
     74          1           0        0.919123    3.568714   -5.793750
     75          7           0        3.324841    4.954031   -7.472870
     76          1           0        2.855939    5.088758   -8.357287
     77          1           0        4.291348    5.242023   -7.417245
     78          6           0        2.722565    4.322434   -6.449188
     79          8           0        4.957809    2.821561    1.216487
     80          1           0        5.494115    3.562046    1.560671
 ---------------------------------------------------------------------

 SCF Done:  E(RB3LYP) =  -1866.69827147     A.U. after    2 cycles

 Alpha  occ. eigenvalues --  -19.28761 -19.22972 -19.20872 -19.20301 -19.19965
 Alpha  occ. eigenvalues --  -19.16707 -14.54231 -14.54166 -14.54165 -14.44305
 Alpha  occ. eigenvalues --  -14.44305 -14.43771 -14.41991 -14.35451 -10.50611
 Alpha  occ. eigenvalues --  -10.41362 -10.37823 -10.37416 -10.37078 -10.37066
 Alpha  occ. eigenvalues --  -10.33997 -10.33249 -10.32722 -10.30878 -10.30559
 Alpha  occ. eigenvalues --  -10.29620 -10.28334 -10.27941 -10.27827 -10.27444
 Alpha  occ. eigenvalues --  -10.26322 -10.24796 -10.24305 -10.24168 -10.23365
 Alpha  occ. eigenvalues --  -10.23305 -10.23189 -10.23091 -10.22982  -1.19743
 Alpha  occ. eigenvalues --   -1.19016  -1.12838  -1.11850  -1.11679  -1.10632
 Alpha  occ. eigenvalues --   -1.08830  -1.08184  -1.07153  -1.01451  -1.00991
 Alpha  occ. eigenvalues --   -0.98921  -0.98488  -0.93360  -0.92554  -0.89577
 Alpha  occ. eigenvalues --   -0.89559  -0.87643  -0.86013  -0.82979  -0.82142
 Alpha  occ. eigenvalues --   -0.81682  -0.79735  -0.78598  -0.77305  -0.76785
 Alpha  occ. eigenvalues --   -0.76412  -0.76193  -0.73727  -0.73045  -0.72063
 Alpha  occ. eigenvalues --   -0.69854  -0.68926  -0.68136  -0.67493  -0.66882
 Alpha  occ. eigenvalues --   -0.66833  -0.65756  -0.65296  -0.64757  -0.63799
 Alpha  occ. eigenvalues --   -0.63342  -0.62309  -0.62169  -0.61984  -0.61385
 Alpha  occ. eigenvalues --   -0.59559  -0.58770  -0.58626  -0.57416  -0.56755
 Alpha  occ. eigenvalues --   -0.56306  -0.55949  -0.55295  -0.54936  -0.54620
 Alpha  occ. eigenvalues --   -0.54028  -0.53537  -0.53107  -0.52841  -0.52136
 Alpha  occ. eigenvalues --   -0.51322  -0.50968  -0.50407  -0.50074  -0.49917
 Alpha  occ. eigenvalues --   -0.49539  -0.49293  -0.49145  -0.48270  -0.48018
 Alpha  occ. eigenvalues --   -0.47712  -0.47352  -0.46900  -0.46782  -0.46346
 Alpha  occ. eigenvalues --   -0.46147  -0.46004  -0.45695  -0.45450  -0.45220
 Alpha  occ. eigenvalues --   -0.45089  -0.44180  -0.43834  -0.43571  -0.43488
 Alpha  occ. eigenvalues --   -0.42823  -0.42663  -0.42234  -0.41165  -0.40885
 Alpha  occ. eigenvalues --   -0.40707  -0.40107  -0.39603  -0.38479  -0.38155
 Alpha  occ. eigenvalues --   -0.36930  -0.36279  -0.35635  -0.34965  -0.33990
 Alpha  occ. eigenvalues --   -0.33880  -0.32400  -0.31218  -0.31073  -0.29261
 Alpha  occ. eigenvalues --   -0.28501  -0.27847
 Alpha virt. eigenvalues --   -0.14142  -0.10309  -0.08464  -0.07267  -0.06636
 Alpha virt. eigenvalues --   -0.06358  -0.05686  -0.05569  -0.05052  -0.04541
 Alpha virt. eigenvalues --   -0.04428  -0.03055  -0.02846  -0.01556  -0.00831

 Mulliken charges:
               1
     1  N   -0.732342
     2  H    0.311459
     3  H    0.323256
     4  C   -0.044012
     5  H    0.138837
     6  C    0.633552
     7  C   -0.362334
     8  H    0.130741
     9  H    0.159448
    10  O   -0.543784
    11  C    0.145559
    12  C   -0.178193
    13  H    0.115558
    14  C   -0.179709
    15  H    0.145390
    16  C   -0.128808
    17  H    0.133251
    18  C   -0.131096
    19  H    0.138432
    20  C   -0.129005
    21  H    0.137331
    22  N   -0.642190
    23  H    0.357323
    24  C   -0.027410
    25  H    0.192956
    26  C    0.607272
    27  C   -0.263943
    28  H    0.180852
    29  H    0.125904
    30  O   -0.568760
    31  C   -0.092467
    32  H    0.136384
    33  C   -0.465121
    34  H    0.169563
    35  H    0.145526
    36  H    0.171116
    37  C   -0.476365
    38  H    0.172322
    39  H    0.115787
    40  H    0.133177
    41  N   -0.639344
    42  H    0.407694
    43  C   -0.057160
    44  H    0.183642
    45  C    0.627439
    46  C   -0.397317
    47  H    0.220921
    48  H    0.165359
    49  O   -0.528481
    50  C    0.617421
    51  N   -0.739374
    52  H    0.361815
    53  H    0.353547
    54  O   -0.529791
    55  N   -0.602846
    56  H    0.378829
    57  C   -0.060836
    58  H    0.211052
    59  C    0.593851
    60  C   -0.297880
    61  H    0.163890
    62  H    0.186550
    63  O   -0.467306
    64  C   -0.321342
    65  H    0.203361
    66  H    0.165136
    67  C   -0.150483
    68  H    0.189332
    69  H    0.193324
    70  N   -0.614620
    71  H    0.371182
    72  N   -0.772210
    73  H    0.386063
    74  H    0.409183
    75  N   -0.767628
    76  H    0.387651
    77  H    0.387962
    78  C    0.846202
    79  O   -0.546421
    80  H    0.426178
 Sum of Mulliken charges =   1.00000

 Dipole moment (field-independent basis, Debye):
    X=             13.3120    Y=             16.0007    Z=            -21.8463  Tot=             30.1744
 Quadrupole moment (field-independent basis, Debye-Ang):
   XX=           -190.4760   YY=           -115.6163   ZZ=            -31.0993
   XY=             40.6389   XZ=            -66.8299   YZ=           -122.8659

 Normal termination of Gaussian 16 at Fri Jun 17 19:45:22 2022.
