 Gaussian 16, Revision C.01,
 Gaussian 16:  ES64L-G16RevC.01  3-Jul-2019

 ----------------------------------------------------------------------
 # B3LYP/6-31G* empiricaldispersion=gd3 guess=read geom=check nosymm in
 tegral(ultrafinegrid)
 ----------------------------------------------------------------------

 ------------------------------------------------------
 Candidate Structure: Conf:123 Charge calc in gas phase
 ------------------------------------------------------
 Structure from the checkpoint file:  "conf-123.chk"
 Charge =  1 Multiplicity = 1

                          Input orientation:
 ---------------------------------------------------------------------
 Center     Atomic      Atomic             Coordinates (Angstroms)
 Number     Number       Type             X           Y           Z
 ---------------------------------------------------------------------
      1          7           0       -3.638382   -0.051693    4.205118
      2          1           0       -4.052509    0.274766    5.073756
      3          1           0       -4.243021   -0.761752    3.801450
      4          6           0       -3.463308    1.064738    3.291787
      5          1           0       -4.345066    1.728847    3.206579
      6          6           0       -3.159050    0.525026    1.892079
      7          6           0       -2.269777    1.940454    3.774851
      8          1           0       -2.082269    2.739850    3.046971
      9          1           0       -1.382464    1.297812    3.797127
     10          8           0       -2.866724   -0.653490    1.677500
     11          6           0       -2.527671    2.540607    5.137826
     12          6           0       -3.181724    3.774008    5.259275
     13          1           0       -3.463645    4.321729    4.361765
     14          6           0       -2.165716    1.853350    6.304754
     15          1           0       -1.664979    0.892848    6.219756
     16          6           0       -3.467128    4.311464    6.514669
     17          1           0       -3.969031    5.272312    6.590490
     18          6           0       -2.451083    2.387955    7.562353
     19          1           0       -2.160668    1.844566    8.457437
     20          6           0       -3.102139    3.618306    7.670899
     21          1           0       -3.320067    4.036666    8.649553
     22          7           0       -3.211833    1.446348    0.888037
     23          1           0       -3.362833    2.419240    1.120211
     24          6           0       -2.846966    1.128230   -0.495111
     25          1           0       -3.185659    0.102251   -0.669219
     26          6           0       -1.307204    1.149710   -0.631926
     27          6           0       -3.517498    2.089297   -1.476353
     28          1           0       -3.089428    3.089776   -1.334255
     29          1           0       -3.221365    1.785534   -2.488983
     30          8           0       -0.707045    2.037785   -1.246934
     31          6           0       -5.053793    2.148290   -1.386161
     32          1           0       -5.326014    2.511664   -0.384632
     33          6           0       -5.593607    3.154664   -2.412256
     34          1           0       -5.369373    2.824844   -3.435422
     35          1           0       -6.680910    3.259200   -2.327873
     36          1           0       -5.147215    4.146828   -2.275586
     37          6           0       -5.704715    0.770676   -1.574959
     38          1           0       -5.408560    0.327684   -2.535453
     39          1           0       -5.426501    0.070803   -0.779547
     40          1           0       -6.797116    0.853823   -1.571304
     41          7           0       -0.686526    0.133008    0.012706
     42          1           0       -1.279384   -0.511113    0.536251
     43          6           0        0.741258    0.169683    0.325818
     44          1           0        1.033819    1.215440    0.474718
     45          6           0        1.618433   -0.355505   -0.825895
     46          6           0        1.040478   -0.600021    1.607788
     47          1           0        0.351141   -0.272222    2.396167
     48          1           0        0.889286   -1.673276    1.454789
     49          8           0        2.368922   -1.313757   -0.706215
     50          6           0        2.471026   -0.299728    2.068544
     51          7           0        3.060908   -1.281961    2.807400
     52          1           0        4.033463   -1.148260    3.050832
     53          1           0        2.720246   -2.231762    2.774090
     54          8           0        3.008827    0.777800    1.844958
     55          7           0        1.529223    0.380849   -1.981140
     56          1           0        0.994028    1.247135   -1.906496
     57          6           0        2.637946    0.326539   -2.907038
     58          1           0        2.905392   -0.725984   -3.047114
     59          6           0        3.914813    0.988778   -2.356820
     60          6           0        2.240495    0.942134   -4.262368
     61          1           0        2.120758    2.029146   -4.152247
     62          1           0        1.246383    0.545826   -4.506564
     63          8           0        4.977353    0.931552   -2.912674
     64          6           0        3.242025    0.640416   -5.385251
     65          1           0        4.234681    1.000139   -5.103014
     66          1           0        3.347081   -0.445608   -5.519461
     67          6           0        2.870820    1.284313   -6.719850
     68          1           0        2.740962    2.365801   -6.595062
     69          1           0        3.661690    1.106042   -7.459229
     70          7           0        1.597256    0.731445   -7.229872
     71          1           0        1.311535   -0.166717   -6.858970
     72          7           0        1.300970    2.302534   -8.910373
     73          1           0        0.679016    2.859848   -9.478769
     74          1           0        2.273767    2.572251   -8.885370
     75          7           0       -0.385714    0.789145   -8.435111
     76          1           0       -0.870067    1.001269   -9.295923
     77          1           0       -0.841855    0.157867   -7.791680
     78          6           0        0.846444    1.268506   -8.187934
     79          8           0        3.699823    1.638790   -1.208298
     80          1           0        4.556103    1.958643   -0.866593
 ---------------------------------------------------------------------

 SCF Done:  E(RB3LYP) =  -1866.69076420     A.U. after    1 cycles

 Alpha  occ. eigenvalues --  -19.26819 -19.21402 -19.19413 -19.19111 -19.18429
 Alpha  occ. eigenvalues --  -19.16416 -14.54938 -14.54737 -14.54702 -14.43846
 Alpha  occ. eigenvalues --  -14.42617 -14.41829 -14.40707 -14.36720 -10.51176
 Alpha  occ. eigenvalues --  -10.39371 -10.37686 -10.35894 -10.35891 -10.35017
 Alpha  occ. eigenvalues --  -10.34362 -10.32095 -10.31037 -10.30608 -10.30319
 Alpha  occ. eigenvalues --  -10.29612 -10.28887 -10.25846 -10.25740 -10.25628
 Alpha  occ. eigenvalues --  -10.25150 -10.24568 -10.23875 -10.23803 -10.23762
 Alpha  occ. eigenvalues --  -10.23638 -10.23522 -10.23423 -10.23373  -1.19572
 Alpha  occ. eigenvalues --   -1.18331  -1.11388  -1.10625  -1.10107  -1.09477
 Alpha  occ. eigenvalues --   -1.08702  -1.08197  -1.07767  -1.00227  -0.99751
 Alpha  occ. eigenvalues --   -0.98969  -0.95455  -0.94670  -0.92685  -0.90010
 Alpha  occ. eigenvalues --   -0.88047  -0.86734  -0.84796  -0.83102  -0.82091
 Alpha  occ. eigenvalues --   -0.81538  -0.79246  -0.78961  -0.77004  -0.76858
 Alpha  occ. eigenvalues --   -0.74808  -0.74594  -0.74235  -0.72159  -0.71750
 Alpha  occ. eigenvalues --   -0.70120  -0.68482  -0.68192  -0.67802  -0.66065
 Alpha  occ. eigenvalues --   -0.65635  -0.65114  -0.64312  -0.63336  -0.63119
 Alpha  occ. eigenvalues --   -0.62617  -0.62535  -0.61572  -0.60605  -0.59541
 Alpha  occ. eigenvalues --   -0.58532  -0.57913  -0.57601  -0.56784  -0.56240
 Alpha  occ. eigenvalues --   -0.55892  -0.55699  -0.55489  -0.54665  -0.54311
 Alpha  occ. eigenvalues --   -0.53587  -0.52840  -0.51845  -0.51094  -0.50896
 Alpha  occ. eigenvalues --   -0.50485  -0.50297  -0.49741  -0.49432  -0.49280
 Alpha  occ. eigenvalues --   -0.48636  -0.48536  -0.47841  -0.47671  -0.47059
 Alpha  occ. eigenvalues --   -0.46609  -0.46298  -0.46080  -0.45989  -0.45706
 Alpha  occ. eigenvalues --   -0.45423  -0.45294  -0.44920  -0.44860  -0.44633
 Alpha  occ. eigenvalues --   -0.44403  -0.43982  -0.43602  -0.43250  -0.42927
 Alpha  occ. eigenvalues --   -0.42605  -0.41813  -0.41533  -0.40048  -0.39410
 Alpha  occ. eigenvalues --   -0.39290  -0.39159  -0.39123  -0.38772  -0.38541
 Alpha  occ. eigenvalues --   -0.36506  -0.35383  -0.34536  -0.32696  -0.32125
 Alpha  occ. eigenvalues --   -0.31928  -0.31645  -0.30569  -0.30128  -0.29647
 Alpha  occ. eigenvalues --   -0.29534  -0.28491
 Alpha virt. eigenvalues --   -0.14974  -0.10836  -0.07287  -0.06857  -0.06687
 Alpha virt. eigenvalues --   -0.05821  -0.05426  -0.05294  -0.04772  -0.04561
 Alpha virt. eigenvalues --   -0.03825  -0.02563  -0.02153  -0.00642  -0.00079

 Mulliken charges:
               1
     1  N   -0.720333
     2  H    0.316216
     3  H    0.315609
     4  C   -0.050104
     5  H    0.131180
     6  C    0.616363
     7  C   -0.349438
     8  H    0.134191
     9  H    0.169655
    10  O   -0.538860
    11  C    0.154662
    12  C   -0.179780
    13  H    0.113994
    14  C   -0.181173
    15  H    0.145944
    16  C   -0.127766
    17  H    0.136962
    18  C   -0.130314
    19  H    0.140195
    20  C   -0.128585
    21  H    0.139957
    22  N   -0.601490
    23  H    0.337002
    24  C   -0.069777
    25  H    0.184861
    26  C    0.628828
    27  C   -0.275378
    28  H    0.154622
    29  H    0.135012
    30  O   -0.555965
    31  C   -0.069907
    32  H    0.125247
    33  C   -0.441649
    34  H    0.132545
    35  H    0.153983
    36  H    0.144745
    37  C   -0.454053
    38  H    0.133005
    39  H    0.158536
    40  H    0.154977
    41  N   -0.633678
    42  H    0.386374
    43  C   -0.060220
    44  H    0.211689
    45  C    0.651096
    46  C   -0.402163
    47  H    0.193078
    48  H    0.168599
    49  O   -0.525418
    50  C    0.623645
    51  N   -0.743280
    52  H    0.344945
    53  H    0.342647
    54  O   -0.518512
    55  N   -0.638709
    56  H    0.370373
    57  C   -0.034954
    58  H    0.202457
    59  C    0.596522
    60  C   -0.293229
    61  H    0.161537
    62  H    0.141043
    63  O   -0.461638
    64  C   -0.325280
    65  H    0.226978
    66  H    0.162636
    67  C   -0.160002
    68  H    0.187991
    69  H    0.192793
    70  N   -0.596705
    71  H    0.370161
    72  N   -0.754263
    73  H    0.389650
    74  H    0.398091
    75  N   -0.762412
    76  H    0.388634
    77  H    0.388726
    78  C    0.837366
    79  O   -0.539853
    80  H    0.429568
 Sum of Mulliken charges =   1.00000

 Dipole moment (field-independent basis, Debye):
    X=             -1.6016    Y=              7.1222    Z=            -31.3761  Tot=             32.2142
 Quadrupole moment (field-independent basis, Debye-Ang):
   XX=           -195.9380   YY=           -205.6826   ZZ=             95.0352
   XY=             -8.3066   XZ=            -30.1155   YZ=            -49.3346

 Normal termination of Gaussian 16 at Fri Jun 17 19:10:46 2022.
