 Gaussian 16, Revision C.01,
 Gaussian 16:  ES64L-G16RevC.01  3-Jul-2019

 ----------------------------------------------------------------------
 # B3LYP/6-31G* empiricaldispersion=gd3 guess=read geom=check nosymm in
 tegral(ultrafinegrid)
 ----------------------------------------------------------------------

 -----------------------------------------------------
 Candidate Structure: Conf:95 Charge calc in gas phase
 -----------------------------------------------------
 Structure from the checkpoint file:  "conf-95.chk"
 Charge =  1 Multiplicity = 1

                          Input orientation:
 ---------------------------------------------------------------------
 Center     Atomic      Atomic             Coordinates (Angstroms)
 Number     Number       Type             X           Y           Z
 ---------------------------------------------------------------------
      1          7           0       -2.369740    1.398566    3.259602
      2          1           0       -2.527287    1.684811    4.224367
      3          1           0       -2.360731    0.379502    3.230465
      4          6           0       -3.492750    1.867558    2.429863
      5          1           0       -4.467150    1.620830    2.885853
      6          6           0       -3.430152    1.071112    1.112122
      7          6           0       -3.415251    3.401158    2.262683
      8          1           0       -4.307196    3.748091    1.723903
      9          1           0       -2.537205    3.646304    1.653897
     10          8           0       -3.007777   -0.088544    1.115607
     11          6           0       -3.337140    4.116162    3.595071
     12          6           0       -4.447659    4.149242    4.450323
     13          1           0       -5.383514    3.692842    4.133869
     14          6           0       -2.146197    4.718791    4.016829
     15          1           0       -1.283191    4.708029    3.355561
     16          6           0       -4.368006    4.767496    5.698117
     17          1           0       -5.239068    4.788352    6.347092
     18          6           0       -2.063322    5.341519    5.263931
     19          1           0       -1.133257    5.810711    5.573131
     20          6           0       -3.173666    5.364963    6.108993
     21          1           0       -3.111799    5.849454    7.079194
     22          7           0       -3.867318    1.685369   -0.017924
     23          1           0       -4.030624    2.683030    0.007945
     24          6           0       -3.597892    1.131053   -1.358138
     25          1           0       -3.704504    0.047633   -1.276922
     26          6           0       -2.128817    1.515712   -1.637991
     27          6           0       -4.559337    1.702806   -2.396766
     28          1           0       -4.327637    2.766988   -2.530223
     29          1           0       -4.326721    1.222691   -3.356972
     30          8           0       -1.824440    2.596232   -2.131524
     31          6           0       -6.053861    1.514688   -2.077458
     32          1           0       -6.270395    2.044321   -1.137963
     33          6           0       -6.904005    2.152013   -3.185516
     34          1           0       -6.737895    1.644114   -4.144258
     35          1           0       -7.972237    2.081084   -2.952226
     36          1           0       -6.657135    3.211628   -3.321874
     37          6           0       -6.427611    0.038603   -1.879940
     38          1           0       -6.168039   -0.551470   -2.768742
     39          1           0       -5.916232   -0.404607   -1.018123
     40          1           0       -7.505111   -0.069843   -1.713328
     41          7           0       -1.223534    0.626262   -1.136710
     42          1           0       -1.599082   -0.182647   -0.656631
     43          6           0        0.103665    1.058473   -0.755077
     44          1           0        0.137705    2.136117   -0.949005
     45          6           0        1.205547    0.427015   -1.622565
     46          6           0        0.347671    0.797026    0.764836
     47          1           0       -0.596794    0.530721    1.242662
     48          1           0        1.035777   -0.045030    0.903196
     49          8           0        0.988928   -0.395209   -2.505724
     50          6           0        0.980545    2.008617    1.434909
     51          7           0        0.332125    2.479432    2.517653
     52          1           0        0.735099    3.273818    2.996986
     53          1           0       -0.577657    2.104601    2.827357
     54          8           0        2.019015    2.514417    0.986771
     55          7           0        2.450743    0.895390   -1.315423
     56          1           0        2.544556    1.528012   -0.509799
     57          6           0        3.620345    0.314776   -1.934043
     58          1           0        3.314172   -0.673895   -2.306067
     59          6           0        4.747990    0.063646   -0.936256
     60          6           0        4.141353    1.136517   -3.126409
     61          1           0        5.032049    0.631223   -3.517447
     62          1           0        4.475089    2.119946   -2.770213
     63          8           0        5.922829    0.054963   -1.234623
     64          6           0        3.069270    1.313177   -4.207577
     65          1           0        2.632909    0.346224   -4.488619
     66          1           0        2.234986    1.898778   -3.809660
     67          6           0        3.586382    2.037630   -5.449330
     68          1           0        2.769003    2.220034   -6.157736
     69          1           0        4.035007    2.998325   -5.170530
     70          7           0        4.631858    1.227586   -6.112247
     71          1           0        4.625083    0.234018   -5.914590
     72          7           0        5.462869    2.914968   -7.469298
     73          1           0        6.257034    3.363548   -7.903253
     74          1           0        4.609685    3.449673   -7.393115
     75          7           0        6.604258    0.907751   -7.291184
     76          1           0        7.170960    1.114525   -8.101378
     77          1           0        6.840380    0.082710   -6.757881
     78          6           0        5.556497    1.680501   -6.952662
     79          8           0        4.289758   -0.187922    0.305161
     80          1           0        5.070870   -0.350833    0.867817
 ---------------------------------------------------------------------

 SCF Done:  E(RB3LYP) =  -1866.71238971     A.U. after    1 cycles

 Alpha  occ. eigenvalues --  -19.27506 -19.21830 -19.19557 -19.18208 -19.18115
 Alpha  occ. eigenvalues --  -19.17819 -14.54046 -14.53800 -14.53720 -14.44032
 Alpha  occ. eigenvalues --  -14.41901 -14.41865 -14.41203 -14.40198 -10.50215
 Alpha  occ. eigenvalues --  -10.40034 -10.36591 -10.36587 -10.35569 -10.35059
 Alpha  occ. eigenvalues --  -10.34784 -10.31872 -10.30533 -10.30097 -10.29808
 Alpha  occ. eigenvalues --  -10.29755 -10.28550 -10.26820 -10.26317 -10.26207
 Alpha  occ. eigenvalues --  -10.25168 -10.25147 -10.25060 -10.25031 -10.24835
 Alpha  occ. eigenvalues --  -10.24573 -10.24344 -10.22497 -10.22400  -1.18626
 Alpha  occ. eigenvalues --   -1.18448  -1.11541  -1.10279  -1.09482  -1.09439
 Alpha  occ. eigenvalues --   -1.09394  -1.07736  -1.06841  -1.00225  -0.99425
 Alpha  occ. eigenvalues --   -0.98789  -0.97209  -0.96160  -0.91622  -0.91535
 Alpha  occ. eigenvalues --   -0.87176  -0.86451  -0.84715  -0.83939  -0.81447
 Alpha  occ. eigenvalues --   -0.81120  -0.80502  -0.78943  -0.78122  -0.76043
 Alpha  occ. eigenvalues --   -0.74905  -0.73475  -0.73401  -0.72363  -0.70880
 Alpha  occ. eigenvalues --   -0.70363  -0.67776  -0.67405  -0.66887  -0.66802
 Alpha  occ. eigenvalues --   -0.66198  -0.65854  -0.64585  -0.64296  -0.63837
 Alpha  occ. eigenvalues --   -0.62224  -0.62128  -0.60601  -0.60263  -0.59571
 Alpha  occ. eigenvalues --   -0.59477  -0.57578  -0.57176  -0.56878  -0.56601
 Alpha  occ. eigenvalues --   -0.56222  -0.55975  -0.55264  -0.54834  -0.54242
 Alpha  occ. eigenvalues --   -0.53465  -0.52898  -0.52013  -0.51846  -0.51348
 Alpha  occ. eigenvalues --   -0.51261  -0.50990  -0.49964  -0.49208  -0.49106
 Alpha  occ. eigenvalues --   -0.48710  -0.48223  -0.48077  -0.47807  -0.47426
 Alpha  occ. eigenvalues --   -0.46886  -0.46692  -0.46483  -0.46271  -0.45767
 Alpha  occ. eigenvalues --   -0.45462  -0.45247  -0.45018  -0.44912  -0.44600
 Alpha  occ. eigenvalues --   -0.43898  -0.43645  -0.43349  -0.43063  -0.42677
 Alpha  occ. eigenvalues --   -0.42180  -0.41741  -0.41672  -0.41443  -0.40410
 Alpha  occ. eigenvalues --   -0.40116  -0.39556  -0.38093  -0.37994  -0.37892
 Alpha  occ. eigenvalues --   -0.35990  -0.34885  -0.34430  -0.33195  -0.32880
 Alpha  occ. eigenvalues --   -0.32660  -0.32186  -0.32028  -0.31145  -0.30846
 Alpha  occ. eigenvalues --   -0.30480  -0.30426
 Alpha virt. eigenvalues --   -0.14111  -0.09898  -0.07200  -0.07086  -0.06268
 Alpha virt. eigenvalues --   -0.06218  -0.06048  -0.05343  -0.04495  -0.04366
 Alpha virt. eigenvalues --   -0.03914  -0.03108  -0.01148   0.00003   0.00578

 Mulliken charges:
               1
     1  N   -0.762112
     2  H    0.331376
     3  H    0.341149
     4  C   -0.060004
     5  H    0.167415
     6  C    0.641487
     7  C   -0.379877
     8  H    0.153550
     9  H    0.164716
    10  O   -0.551852
    11  C    0.152564
    12  C   -0.184605
    13  H    0.131500
    14  C   -0.187498
    15  H    0.126372
    16  C   -0.128019
    17  H    0.146008
    18  C   -0.129206
    19  H    0.140418
    20  C   -0.128110
    21  H    0.145860
    22  N   -0.601653
    23  H    0.349953
    24  C   -0.073305
    25  H    0.182243
    26  C    0.603198
    27  C   -0.282701
    28  H    0.159240
    29  H    0.150289
    30  O   -0.527771
    31  C   -0.069777
    32  H    0.120433
    33  C   -0.443041
    34  H    0.144776
    35  H    0.150428
    36  H    0.143531
    37  C   -0.454970
    38  H    0.143622
    39  H    0.152193
    40  H    0.152428
    41  N   -0.578835
    42  H    0.359063
    43  C   -0.068392
    44  H    0.207384
    45  C    0.597641
    46  C   -0.426585
    47  H    0.192356
    48  H    0.194163
    49  O   -0.530310
    50  C    0.613861
    51  N   -0.790192
    52  H    0.337107
    53  H    0.424250
    54  O   -0.544062
    55  N   -0.634365
    56  H    0.392132
    57  C   -0.044575
    58  H    0.201582
    59  C    0.587212
    60  C   -0.256389
    61  H    0.139785
    62  H    0.157755
    63  O   -0.469585
    64  C   -0.321358
    65  H    0.184356
    66  H    0.201288
    67  C   -0.158261
    68  H    0.192630
    69  H    0.183127
    70  N   -0.592451
    71  H    0.370224
    72  N   -0.753435
    73  H    0.388059
    74  H    0.396520
    75  N   -0.761882
    76  H    0.387073
    77  H    0.389904
    78  C    0.832218
    79  O   -0.552753
    80  H    0.423494
 Sum of Mulliken charges =   1.00000

 Dipole moment (field-independent basis, Debye):
    X=             16.3000    Y=              9.8636    Z=            -21.2625  Tot=             28.5495
 Quadrupole moment (field-independent basis, Debye-Ang):
   XX=            -68.6068   YY=           -200.1807   ZZ=              4.7083
   XY=             19.6836   XZ=           -175.3091   YZ=            -35.1445

 Normal termination of Gaussian 16 at Fri Jun 17 19:10:44 2022.
