 Gaussian 16, Revision C.01,
 Gaussian 16:  ES64L-G16RevC.01  3-Jul-2019

 ----------------------------------------------------------------------
 # B3LYP/6-31G* empiricaldispersion=gd3 guess=read geom=check nosymm in
 tegral(ultrafinegrid)
 ----------------------------------------------------------------------

 ------------------------------------------------------
 Candidate Structure: Conf:605 Charge calc in gas phase
 ------------------------------------------------------
 Structure from the checkpoint file:  "conf-605.chk"
 Charge =  1 Multiplicity = 1

                          Input orientation:
 ---------------------------------------------------------------------
 Center     Atomic      Atomic             Coordinates (Angstroms)
 Number     Number       Type             X           Y           Z
 ---------------------------------------------------------------------
      1          7           0       -2.091795   -1.630021    3.852596
      2          1           0       -2.150658   -2.541239    3.400148
      3          1           0       -1.105368   -1.378751    3.793192
      4          6           0       -2.846274   -0.665409    3.064552
      5          1           0       -3.877144   -1.034882    2.979531
      6          6           0       -2.290227   -0.516694    1.629969
      7          6           0       -2.910817    0.694816    3.811385
      8          1           0       -3.338298    0.484396    4.796212
      9          1           0       -3.611882    1.368245    3.303875
     10          8           0       -1.341961   -1.198603    1.235715
     11          6           0       -1.569994    1.380862    3.965069
     12          6           0       -0.729906    1.063573    5.043792
     13          1           0       -1.057034    0.323039    5.768706
     14          6           0       -1.137714    2.341066    3.039129
     15          1           0       -1.760583    2.601961    2.189023
     16          6           0        0.505289    1.699396    5.200422
     17          1           0        1.134378    1.454486    6.052042
     18          6           0        0.091968    2.983124    3.195228
     19          1           0        0.392829    3.736499    2.472150
     20          6           0        0.919439    2.665904    4.276868
     21          1           0        1.869829    3.175731    4.408942
     22          7           0       -2.904402    0.390940    0.822245
     23          1           0       -3.619667    0.996124    1.200323
     24          6           0       -2.418329    0.672852   -0.528042
     25          1           0       -2.223969   -0.295208   -0.999414
     26          6           0       -1.094034    1.464739   -0.442256
     27          6           0       -3.475282    1.447705   -1.319581
     28          1           0       -4.379945    0.826631   -1.366358
     29          1           0       -3.725507    2.359081   -0.762084
     30          8           0       -1.064515    2.688241   -0.374415
     31          6           0       -3.055873    1.862168   -2.744462
     32          1           0       -2.252146    2.601840   -2.643948
     33          6           0       -2.523332    0.681915   -3.573293
     34          1           0       -3.247161   -0.141940   -3.609719
     35          1           0       -2.346875    1.000790   -4.609895
     36          1           0       -1.582496    0.284638   -3.171876
     37          6           0       -4.239566    2.534259   -3.453789
     38          1           0       -5.065290    1.826054   -3.598944
     39          1           0       -4.621532    3.380964   -2.872698
     40          1           0       -3.946231    2.912200   -4.439947
     41          7           0        0.019417    0.671068   -0.468018
     42          1           0       -0.114024   -0.308297   -0.221500
     43          6           0        1.362494    1.228725   -0.399819
     44          1           0        1.244054    2.307815   -0.513999
     45          6           0        2.081719    0.776019   -1.679639
     46          6           0        2.066418    0.964862    0.950345
     47          1           0        3.144816    1.136827    0.841593
     48          1           0        1.691431    1.694840    1.670204
     49          8           0        1.990715    1.499685   -2.698519
     50          6           0        1.871821   -0.450882    1.483078
     51          7           0        1.558715   -0.559695    2.787133
     52          1           0        1.384854   -1.487874    3.149609
     53          1           0        1.317111    0.236437    3.364998
     54          8           0        2.018712   -1.442270    0.755931
     55          7           0        2.706210   -0.407510   -1.678248
     56          1           0        2.640416   -0.984414   -0.820789
     57          6           0        3.182963   -0.978145   -2.931137
     58          1           0        2.443114   -0.758191   -3.701875
     59          6           0        3.266804   -2.496258   -2.884926
     60          6           0        4.566049   -0.414032   -3.373432
     61          1           0        5.352693   -0.955041   -2.837801
     62          1           0        4.629219    0.626614   -3.034957
     63          8           0        3.125634   -3.190360   -3.866661
     64          6           0        4.783401   -0.504923   -4.899212
     65          1           0        5.848805   -0.632675   -5.121024
     66          1           0        4.273459   -1.393150   -5.289846
     67          6           0        4.315392    0.754510   -5.650487
     68          1           0        4.961268    1.602290   -5.402249
     69          1           0        4.397077    0.615992   -6.732610
     70          7           0        2.951780    1.171309   -5.293736
     71          1           0        2.827105    1.488073   -4.323297
     72          7           0        1.762582    0.299668   -7.114941
     73          1           0        0.939091   -0.170821   -7.459579
     74          1           0        2.582494    0.284461   -7.701094
     75          7           0        0.679169    0.850784   -5.137474
     76          1           0       -0.227317    0.851503   -5.581970
     77          1           0        0.744024    1.170919   -4.169961
     78          6           0        1.811220    0.772093   -5.856510
     79          8           0        3.584716   -2.956539   -1.662684
     80          1           0        3.632883   -3.930766   -1.708949
 ---------------------------------------------------------------------

 SCF Done:  E(RB3LYP) =  -1866.74667430     A.U. after    2 cycles

 Alpha  occ. eigenvalues --  -19.29898 -19.24088 -19.23598 -19.21353 -19.20615
 Alpha  occ. eigenvalues --  -19.20602 -14.51404 -14.49891 -14.49738 -14.46454
 Alpha  occ. eigenvalues --  -14.45193 -14.44878 -14.44794 -14.38880 -10.47039
 Alpha  occ. eigenvalues --  -10.42415 -10.40092 -10.38819 -10.37438 -10.37042
 Alpha  occ. eigenvalues --  -10.35445 -10.34734 -10.33353 -10.32048 -10.30602
 Alpha  occ. eigenvalues --  -10.30459 -10.30214 -10.29447 -10.27809 -10.27347
 Alpha  occ. eigenvalues --  -10.27318 -10.27215 -10.27205 -10.27160 -10.27030
 Alpha  occ. eigenvalues --  -10.26909 -10.26860 -10.26737 -10.24948  -1.20823
 Alpha  occ. eigenvalues --   -1.15665  -1.14705  -1.13001  -1.12726  -1.11893
 Alpha  occ. eigenvalues --   -1.11873  -1.04865  -1.03741  -1.03360  -1.01690
 Alpha  occ. eigenvalues --   -1.01284  -0.99786  -0.96775  -0.93410  -0.91646
 Alpha  occ. eigenvalues --   -0.89852  -0.88294  -0.86208  -0.85836  -0.83391
 Alpha  occ. eigenvalues --   -0.82395  -0.80972  -0.79404  -0.78304  -0.77632
 Alpha  occ. eigenvalues --   -0.76950  -0.73919  -0.73543  -0.72620  -0.72219
 Alpha  occ. eigenvalues --   -0.70995  -0.69636  -0.68528  -0.68446  -0.68334
 Alpha  occ. eigenvalues --   -0.67157  -0.66964  -0.65712  -0.64934  -0.64358
 Alpha  occ. eigenvalues --   -0.63823  -0.63721  -0.62877  -0.61209  -0.60847
 Alpha  occ. eigenvalues --   -0.59707  -0.58826  -0.58540  -0.58458  -0.58010
 Alpha  occ. eigenvalues --   -0.57721  -0.57491  -0.57335  -0.55996  -0.55913
 Alpha  occ. eigenvalues --   -0.55523  -0.54784  -0.54330  -0.53813  -0.53482
 Alpha  occ. eigenvalues --   -0.53298  -0.52986  -0.51987  -0.51796  -0.51195
 Alpha  occ. eigenvalues --   -0.50960  -0.50480  -0.50145  -0.49971  -0.49579
 Alpha  occ. eigenvalues --   -0.49412  -0.49318  -0.48726  -0.48103  -0.47849
 Alpha  occ. eigenvalues --   -0.47324  -0.47020  -0.46920  -0.46708  -0.46238
 Alpha  occ. eigenvalues --   -0.45705  -0.45660  -0.45405  -0.45292  -0.44670
 Alpha  occ. eigenvalues --   -0.44261  -0.43222  -0.42002  -0.41893  -0.41759
 Alpha  occ. eigenvalues --   -0.41461  -0.41083  -0.40984  -0.40715  -0.39439
 Alpha  occ. eigenvalues --   -0.38816  -0.37782  -0.36916  -0.36414  -0.35996
 Alpha  occ. eigenvalues --   -0.35324  -0.34834  -0.34026  -0.33152  -0.32871
 Alpha  occ. eigenvalues --   -0.32635  -0.31631
 Alpha virt. eigenvalues --   -0.11247  -0.10589  -0.09038  -0.08771  -0.08631
 Alpha virt. eigenvalues --   -0.07389  -0.07269  -0.06923  -0.05785  -0.04594
 Alpha virt. eigenvalues --   -0.02219  -0.01839  -0.01564  -0.00713  -0.00379

 Mulliken charges:
               1
     1  N   -0.689178
     2  H    0.315787
     3  H    0.297459
     4  C   -0.092075
     5  H    0.171833
     6  C    0.601949
     7  C   -0.355231
     8  H    0.187131
     9  H    0.142443
    10  O   -0.542031
    11  C    0.157814
    12  C   -0.193427
    13  H    0.164074
    14  C   -0.185745
    15  H    0.148519
    16  C   -0.162029
    17  H    0.154067
    18  C   -0.148401
    19  H    0.156129
    20  C   -0.149450
    21  H    0.149506
    22  N   -0.606973
    23  H    0.340124
    24  C   -0.041613
    25  H    0.168644
    26  C    0.632950
    27  C   -0.286333
    28  H    0.150165
    29  H    0.158615
    30  O   -0.528731
    31  C   -0.083616
    32  H    0.158727
    33  C   -0.469474
    34  H    0.162061
    35  H    0.120605
    36  H    0.137618
    37  C   -0.448029
    38  H    0.148723
    39  H    0.159214
    40  H    0.144091
    41  N   -0.628831
    42  H    0.384432
    43  C   -0.053063
    44  H    0.213391
    45  C    0.609723
    46  C   -0.401248
    47  H    0.189438
    48  H    0.188004
    49  O   -0.598290
    50  C    0.630243
    51  N   -0.750884
    52  H    0.355857
    53  H    0.380262
    54  O   -0.542263
    55  N   -0.628638
    56  H    0.434346
    57  C   -0.022159
    58  H    0.170857
    59  C    0.575220
    60  C   -0.300530
    61  H    0.184338
    62  H    0.167499
    63  O   -0.452075
    64  C   -0.279462
    65  H    0.176218
    66  H    0.183954
    67  C   -0.180560
    68  H    0.197810
    69  H    0.162786
    70  N   -0.604826
    71  H    0.413396
    72  N   -0.761104
    73  H    0.380458
    74  H    0.383452
    75  N   -0.789379
    76  H    0.368866
    77  H    0.419103
    78  C    0.794558
    79  O   -0.549852
    80  H    0.433042
 Sum of Mulliken charges =   1.00000

 Dipole moment (field-independent basis, Debye):
    X=              6.2037    Y=              1.4959    Z=            -14.5498  Tot=             15.8877
 Quadrupole moment (field-independent basis, Debye-Ang):
   XX=           -165.5093   YY=           -229.2379   ZZ=            -83.3971
   XY=             -0.4991   XZ=            -36.3750   YZ=             -5.0096

 Normal termination of Gaussian 16 at Fri Jun 17 19:11:03 2022.
