 Gaussian 16, Revision C.01,
 Gaussian 16:  ES64L-G16RevC.01  3-Jul-2019

 ----------------------------------------------------------------------
 # B3LYP/6-31G* empiricaldispersion=gd3 guess=read geom=check nosymm in
 tegral(ultrafinegrid)
 ----------------------------------------------------------------------

 ------------------------------------------------------
 Candidate Structure: Conf:684 Charge calc in gas phase
 ------------------------------------------------------
 Structure from the checkpoint file:  "conf-684.chk"
 Charge =  1 Multiplicity = 1

                          Input orientation:
 ---------------------------------------------------------------------
 Center     Atomic      Atomic             Coordinates (Angstroms)
 Number     Number       Type             X           Y           Z
 ---------------------------------------------------------------------
      1          7           0       -4.585266    2.604117    3.785185
      2          1           0       -5.270575    3.045538    3.173161
      3          1           0       -4.840242    1.615696    3.781841
      4          6           0       -3.265896    2.717444    3.178773
      5          1           0       -3.080143    3.775325    2.949451
      6          6           0       -3.135298    1.879070    1.891465
      7          6           0       -2.165346    2.256661    4.187029
      8          1           0       -2.372215    2.775328    5.128238
      9          1           0       -1.185877    2.599448    3.832043
     10          8           0       -3.963715    1.032552    1.578376
     11          6           0       -2.139238    0.756557    4.387364
     12          6           0       -1.248906   -0.045653    3.658965
     13          1           0       -0.517891    0.428892    3.009714
     14          6           0       -3.052984    0.128282    5.244119
     15          1           0       -3.740638    0.737459    5.825036
     16          6           0       -1.289701   -1.437615    3.748085
     17          1           0       -0.616747   -2.042963    3.145487
     18          6           0       -3.089522   -1.263517    5.348740
     19          1           0       -3.804549   -1.733827    6.018413
     20          6           0       -2.216686   -2.050074    4.594459
     21          1           0       -2.255106   -3.133342    4.668356
     22          7           0       -1.988684    2.059351    1.161392
     23          1           0       -1.301496    2.746961    1.442129
     24          6           0       -1.531373    0.996920    0.277526
     25          1           0       -1.950146    0.062743    0.662359
     26          6           0       -0.007462    0.971771    0.328403
     27          6           0       -1.996972    1.203089   -1.176898
     28          1           0       -3.091057    1.270312   -1.153036
     29          1           0       -1.608018    2.173091   -1.512566
     30          8           0        0.652417    2.007955    0.150835
     31          6           0       -1.558054    0.093610   -2.152120
     32          1           0       -0.461148    0.020384   -2.120897
     33          6           0       -2.136531   -1.284214   -1.795309
     34          1           0       -3.227450   -1.235765   -1.696090
     35          1           0       -1.897668   -2.022045   -2.570477
     36          1           0       -1.732916   -1.672058   -0.855426
     37          6           0       -1.949067    0.490370   -3.585512
     38          1           0       -3.040899    0.566944   -3.680217
     39          1           0       -1.514418    1.467487   -3.839752
     40          1           0       -1.605586   -0.270704   -4.303897
     41          7           0        0.550510   -0.237405    0.521172
     42          1           0       -0.024904   -1.062763    0.693725
     43          6           0        1.994376   -0.461545    0.588656
     44          1           0        2.440029    0.388054    1.120323
     45          6           0        2.623543   -0.512400   -0.825008
     46          6           0        2.286256   -1.759131    1.358442
     47          1           0        3.361850   -1.944855    1.342145
     48          1           0        1.974223   -1.623176    2.398889
     49          8           0        3.182688   -1.514013   -1.261303
     50          6           0        1.489991   -2.943276    0.810533
     51          7           0        2.202457   -3.959992    0.273181
     52          1           0        1.673147   -4.697109   -0.176021
     53          1           0        3.123209   -3.762289   -0.095629
     54          8           0        0.256584   -2.961721    0.898742
     55          7           0        2.489114    0.648351   -1.525215
     56          1           0        2.031944    1.433712   -1.057368
     57          6           0        3.033951    0.810927   -2.856815
     58          1           0        3.402761   -0.180780   -3.148389
     59          6           0        4.248149    1.751344   -2.850350
     60          6           0        1.973621    1.305566   -3.857095
     61          1           0        1.793297    2.373424   -3.683848
     62          1           0        1.041839    0.776549   -3.628420
     63          8           0        4.428386    2.643759   -3.652952
     64          6           0        2.387954    1.076104   -5.320128
     65          1           0        3.430772    1.374601   -5.452686
     66          1           0        2.321497    0.009685   -5.573426
     67          6           0        1.584734    1.898585   -6.326529
     68          1           0        1.715655    2.967241   -6.116359
     69          1           0        1.947048    1.690861   -7.341543
     70          7           0        0.144851    1.579655   -6.256219
     71          1           0       -0.143430    0.845750   -5.621752
     72          7           0       -0.487021    3.101069   -7.888093
     73          1           0       -1.186799    3.692283   -8.313003
     74          1           0        0.470233    3.240594   -8.175729
     75          7           0       -2.104868    1.943669   -6.700701
     76          1           0       -2.834081    2.279956   -7.312954
     77          1           0       -2.387097    1.403128   -5.893788
     78          6           0       -0.809969    2.204112   -6.944073
     79          8           0        5.099471    1.457792   -1.854651
     80          1           0        5.850076    2.078899   -1.921734
 ---------------------------------------------------------------------

 SCF Done:  E(RB3LYP) =  -1866.71311930     A.U. after    1 cycles

 Alpha  occ. eigenvalues --  -19.29104 -19.23834 -19.21242 -19.21098 -19.20168
 Alpha  occ. eigenvalues --  -19.17461 -14.54546 -14.54128 -14.54044 -14.45137
 Alpha  occ. eigenvalues --  -14.44997 -14.43516 -14.42272 -14.36018 -10.50723
 Alpha  occ. eigenvalues --  -10.41798 -10.38096 -10.37744 -10.37742 -10.37623
 Alpha  occ. eigenvalues --  -10.34064 -10.34010 -10.33165 -10.31754 -10.30819
 Alpha  occ. eigenvalues --  -10.30762 -10.29790 -10.28925 -10.28488 -10.27919
 Alpha  occ. eigenvalues --  -10.26767 -10.25673 -10.24464 -10.24283 -10.23583
 Alpha  occ. eigenvalues --  -10.23445 -10.23359 -10.23258 -10.23140  -1.20234
 Alpha  occ. eigenvalues --   -1.19132  -1.13391  -1.12482  -1.11637  -1.11291
 Alpha  occ. eigenvalues --   -1.09393  -1.08294  -1.07308  -1.02400  -1.01590
 Alpha  occ. eigenvalues --   -0.98840  -0.98561  -0.93881  -0.93112  -0.90719
 Alpha  occ. eigenvalues --   -0.89808  -0.88304  -0.86757  -0.83572  -0.82308
 Alpha  occ. eigenvalues --   -0.82060  -0.80469  -0.78834  -0.78483  -0.76874
 Alpha  occ. eigenvalues --   -0.76532  -0.76466  -0.74998  -0.73568  -0.72162
 Alpha  occ. eigenvalues --   -0.70277  -0.69064  -0.68356  -0.67689  -0.67416
 Alpha  occ. eigenvalues --   -0.67190  -0.66615  -0.65457  -0.65019  -0.64579
 Alpha  occ. eigenvalues --   -0.63372  -0.62872  -0.62723  -0.62001  -0.61306
 Alpha  occ. eigenvalues --   -0.60479  -0.58949  -0.58293  -0.57963  -0.57638
 Alpha  occ. eigenvalues --   -0.57252  -0.56809  -0.55917  -0.55280  -0.54823
 Alpha  occ. eigenvalues --   -0.54676  -0.54327  -0.53717  -0.53342  -0.52899
 Alpha  occ. eigenvalues --   -0.52045  -0.51876  -0.50929  -0.50697  -0.50212
 Alpha  occ. eigenvalues --   -0.49926  -0.49851  -0.49557  -0.48808  -0.48669
 Alpha  occ. eigenvalues --   -0.48550  -0.48168  -0.47516  -0.47253  -0.47111
 Alpha  occ. eigenvalues --   -0.46771  -0.46322  -0.46102  -0.45891  -0.45670
 Alpha  occ. eigenvalues --   -0.45557  -0.45253  -0.44963  -0.44703  -0.43615
 Alpha  occ. eigenvalues --   -0.42985  -0.42867  -0.42319  -0.41959  -0.41801
 Alpha  occ. eigenvalues --   -0.41326  -0.40820  -0.39658  -0.38434  -0.38400
 Alpha  occ. eigenvalues --   -0.37852  -0.37420  -0.35469  -0.35066  -0.34352
 Alpha  occ. eigenvalues --   -0.33670  -0.33342  -0.31706  -0.31394  -0.29499
 Alpha  occ. eigenvalues --   -0.29449  -0.28283
 Alpha virt. eigenvalues --   -0.14199  -0.10115  -0.09452  -0.08225  -0.06880
 Alpha virt. eigenvalues --   -0.06544  -0.06330  -0.06029  -0.04970  -0.04914
 Alpha virt. eigenvalues --   -0.04865  -0.02990  -0.02907  -0.01343  -0.01032

 Mulliken charges:
               1
     1  N   -0.694229
     2  H    0.303907
     3  H    0.319940
     4  C   -0.088580
     5  H    0.145802
     6  C    0.593559
     7  C   -0.343046
     8  H    0.178410
     9  H    0.131549
    10  O   -0.518516
    11  C    0.157885
    12  C   -0.193649
    13  H    0.104742
    14  C   -0.190282
    15  H    0.149768
    16  C   -0.146103
    17  H    0.144437
    18  C   -0.123901
    19  H    0.138956
    20  C   -0.131899
    21  H    0.136161
    22  N   -0.614602
    23  H    0.340741
    24  C   -0.015062
    25  H    0.189813
    26  C    0.593518
    27  C   -0.258299
    28  H    0.171638
    29  H    0.139098
    30  O   -0.576409
    31  C   -0.105076
    32  H    0.143787
    33  C   -0.460509
    34  H    0.166357
    35  H    0.141765
    36  H    0.178125
    37  C   -0.498821
    38  H    0.166855
    39  H    0.130885
    40  H    0.133056
    41  N   -0.624085
    42  H    0.407567
    43  C   -0.085944
    44  H    0.199733
    45  C    0.635862
    46  C   -0.376960
    47  H    0.180955
    48  H    0.202043
    49  O   -0.528257
    50  C    0.603081
    51  N   -0.717451
    52  H    0.348513
    53  H    0.364771
    54  O   -0.527170
    55  N   -0.634269
    56  H    0.383215
    57  C   -0.046456
    58  H    0.211499
    59  C    0.598461
    60  C   -0.287524
    61  H    0.167145
    62  H    0.154735
    63  O   -0.468796
    64  C   -0.323451
    65  H    0.209808
    66  H    0.166318
    67  C   -0.160812
    68  H    0.199436
    69  H    0.184727
    70  N   -0.614386
    71  H    0.373631
    72  N   -0.761311
    73  H    0.387867
    74  H    0.396956
    75  N   -0.786550
    76  H    0.384670
    77  H    0.412647
    78  C    0.846356
    79  O   -0.545624
    80  H    0.427277
 Sum of Mulliken charges =   1.00000

 Dipole moment (field-independent basis, Debye):
    X=              1.5190    Y=              7.8702    Z=            -28.6029  Tot=             29.7047
 Quadrupole moment (field-independent basis, Debye-Ang):
   XX=           -200.1024   YY=           -192.0184   ZZ=            -20.5652
   XY=            -13.4067   XZ=             27.6203   YZ=            -68.8388

 Normal termination of Gaussian 16 at Fri Jun 17 19:10:44 2022.
