 Gaussian 16, Revision C.01,
 Gaussian 16:  ES64L-G16RevC.01  3-Jul-2019

 ----------------------------------------------------------------------
 # B3LYP/6-31G* empiricaldispersion=gd3 guess=read geom=check nosymm in
 tegral(ultrafinegrid)
 ----------------------------------------------------------------------

 ------------------------------------------------------
 Candidate Structure: Conf:777 Charge calc in gas phase
 ------------------------------------------------------
 Structure from the checkpoint file:  "conf-777.chk"
 Charge =  1 Multiplicity = 1

                          Input orientation:
 ---------------------------------------------------------------------
 Center     Atomic      Atomic             Coordinates (Angstroms)
 Number     Number       Type             X           Y           Z
 ---------------------------------------------------------------------
      1          7           0       -0.011853    5.175238    1.284504
      2          1           0        0.780875    4.654189    1.656766
      3          1           0        0.152607    5.252424    0.282011
      4          6           0       -1.217401    4.394364    1.504195
      5          1           0       -1.255510    4.139921    2.570870
      6          6           0       -1.240745    3.075825    0.708816
      7          6           0       -2.490166    5.240234    1.205311
      8          1           0       -2.456839    6.089220    1.895453
      9          1           0       -3.377770    4.648978    1.457336
     10          8           0       -0.522187    2.901015   -0.289126
     11          6           0       -2.616031    5.756711   -0.214177
     12          6           0       -1.848053    6.848142   -0.654694
     13          1           0       -1.143866    7.307435    0.032582
     14          6           0       -3.535389    5.187884   -1.108361
     15          1           0       -4.153416    4.357020   -0.783545
     16          6           0       -1.995306    7.353993   -1.947580
     17          1           0       -1.402751    8.208964   -2.260957
     18          6           0       -3.695018    5.695402   -2.402372
     19          1           0       -4.434662    5.254603   -3.065210
     20          6           0       -2.923486    6.784165   -2.827062
     21          1           0       -3.075214    7.209465   -3.816742
     22          7           0       -2.105109    2.122356    1.108151
     23          1           0       -2.548184    2.217317    2.011287
     24          6           0       -2.210224    0.831840    0.410634
     25          1           0       -2.796402    0.184957    1.069859
     26          6           0       -0.809930    0.179440    0.392332
     27          6           0       -2.927084    0.973354   -0.941411
     28          1           0       -2.356169    1.673384   -1.562066
     29          1           0       -2.909702    0.001223   -1.450805
     30          8           0       -0.195464    0.044252    1.451466
     31          6           0       -4.389722    1.446832   -0.837629
     32          1           0       -4.410714    2.325893   -0.177330
     33          6           0       -4.899304    1.875447   -2.220835
     34          1           0       -4.886186    1.029873   -2.919675
     35          1           0       -5.929290    2.245542   -2.166824
     36          1           0       -4.273160    2.668741   -2.647604
     37          6           0       -5.307094    0.375875   -0.229565
     38          1           0       -5.315595   -0.526857   -0.853131
     39          1           0       -4.995975    0.081169    0.779344
     40          1           0       -6.337417    0.740617   -0.157876
     41          7           0       -0.334073   -0.249469   -0.797049
     42          1           0       -0.696399    0.109227   -1.675370
     43          6           0        0.948579   -0.936675   -0.915546
     44          1           0        1.048358   -1.574097   -0.029541
     45          6           0        2.177882    0.007745   -0.928390
     46          6           0        0.963191   -1.805832   -2.177814
     47          1           0        1.874167   -2.408146   -2.187050
     48          1           0        0.106052   -2.489103   -2.147891
     49          8           0        3.073584   -0.136247   -1.762147
     50          6           0        0.853350   -0.969163   -3.451215
     51          7           0        1.493577   -1.458504   -4.537880
     52          1           0        1.455287   -0.924019   -5.395146
     53          1           0        2.192358   -2.182788   -4.461839
     54          8           0        0.164176    0.056283   -3.505498
     55          7           0        2.187599    0.963869    0.028013
     56          1           0        1.460939    0.952153    0.742898
     57          6           0        3.333971    1.828652    0.244930
     58          1           0        4.215579    1.227861    0.506613
     59          6           0        3.027094    2.725107    1.435961
     60          6           0        3.735441    2.697129   -0.976420
     61          1           0        4.188087    2.029765   -1.712848
     62          1           0        4.518862    3.379442   -0.631952
     63          8           0        1.928941    2.886340    1.930997
     64          6           0        2.599357    3.507702   -1.629773
     65          1           0        1.915509    3.902902   -0.868831
     66          1           0        3.055099    4.372980   -2.127409
     67          6           0        1.790289    2.726276   -2.686488
     68          1           0        2.412875    1.983046   -3.187923
     69          1           0        0.959648    2.173038   -2.249836
     70          7           0        1.260522    3.607283   -3.744035
     71          1           0        1.920546    3.895777   -4.454474
     72          7           0       -0.679767    4.241312   -2.627461
     73          1           0       -1.584844    4.696203   -2.654753
     74          1           0       -0.454995    3.742363   -1.756206
     75          7           0       -0.183446    5.160906   -4.688450
     76          1           0       -1.038732    5.696552   -4.623532
     77          1           0        0.169274    4.984589   -5.618092
     78          6           0        0.129621    4.318605   -3.670931
     79          8           0        4.133384    3.355837    1.865007
     80          1           0        3.879407    3.918858    2.620968
 ---------------------------------------------------------------------

 SCF Done:  E(RB3LYP) =  -1866.76224605     A.U. after    1 cycles

 Alpha  occ. eigenvalues --  -19.29611 -19.24426 -19.23169 -19.21075 -19.20338
 Alpha  occ. eigenvalues --  -19.20197 -14.49856 -14.49824 -14.47768 -14.46988
 Alpha  occ. eigenvalues --  -14.44975 -14.44518 -14.44062 -14.40117 -10.45714
 Alpha  occ. eigenvalues --  -10.42247 -10.39295 -10.38714 -10.37689 -10.37288
 Alpha  occ. eigenvalues --  -10.33216 -10.33190 -10.32626 -10.32597 -10.32308
 Alpha  occ. eigenvalues --  -10.30152 -10.29748 -10.29695 -10.29479 -10.29283
 Alpha  occ. eigenvalues --  -10.28951 -10.28907 -10.28874 -10.28780 -10.28198
 Alpha  occ. eigenvalues --  -10.27942 -10.27702 -10.25908 -10.25577  -1.20769
 Alpha  occ. eigenvalues --   -1.14937  -1.14259  -1.12974  -1.12279  -1.11941
 Alpha  occ. eigenvalues --   -1.11641  -1.03817  -1.03069  -1.01971  -1.01649
 Alpha  occ. eigenvalues --   -1.00765  -0.99721  -0.98301  -0.95708  -0.90462
 Alpha  occ. eigenvalues --   -0.89694  -0.87787  -0.87381  -0.85253  -0.84754
 Alpha  occ. eigenvalues --   -0.84328  -0.81286  -0.79631  -0.76990  -0.76712
 Alpha  occ. eigenvalues --   -0.75833  -0.75612  -0.73135  -0.72080  -0.71808
 Alpha  occ. eigenvalues --   -0.70818  -0.70710  -0.69549  -0.68082  -0.68025
 Alpha  occ. eigenvalues --   -0.67889  -0.66964  -0.65160  -0.65071  -0.63578
 Alpha  occ. eigenvalues --   -0.63251  -0.62779  -0.62480  -0.62143  -0.60786
 Alpha  occ. eigenvalues --   -0.60151  -0.59744  -0.59084  -0.58115  -0.57919
 Alpha  occ. eigenvalues --   -0.57474  -0.57039  -0.56628  -0.56260  -0.55999
 Alpha  occ. eigenvalues --   -0.55350  -0.55114  -0.54830  -0.53743  -0.53209
 Alpha  occ. eigenvalues --   -0.52893  -0.52366  -0.52233  -0.51926  -0.51835
 Alpha  occ. eigenvalues --   -0.51555  -0.51436  -0.50527  -0.50037  -0.49870
 Alpha  occ. eigenvalues --   -0.49078  -0.49037  -0.48468  -0.48133  -0.47587
 Alpha  occ. eigenvalues --   -0.47350  -0.47177  -0.46821  -0.46596  -0.46360
 Alpha  occ. eigenvalues --   -0.46206  -0.45712  -0.45424  -0.45273  -0.44835
 Alpha  occ. eigenvalues --   -0.44051  -0.43892  -0.43360  -0.43121  -0.42084
 Alpha  occ. eigenvalues --   -0.41767  -0.41644  -0.41085  -0.40538  -0.38378
 Alpha  occ. eigenvalues --   -0.37784  -0.37339  -0.36930  -0.36715  -0.36062
 Alpha  occ. eigenvalues --   -0.35524  -0.35228  -0.35059  -0.34246  -0.33616
 Alpha  occ. eigenvalues --   -0.33060  -0.32363
 Alpha virt. eigenvalues --   -0.11460  -0.10921  -0.09993  -0.09495  -0.09110
 Alpha virt. eigenvalues --   -0.07499  -0.06687  -0.06161  -0.05866  -0.03204
 Alpha virt. eigenvalues --   -0.02525  -0.01984  -0.01232  -0.00805  -0.00528

 Mulliken charges:
               1
     1  N   -0.723129
     2  H    0.344112
     3  H    0.303060
     4  C   -0.099016
     5  H    0.168872
     6  C    0.642503
     7  C   -0.341402
     8  H    0.190787
     9  H    0.150457
    10  O   -0.586500
    11  C    0.145932
    12  C   -0.184393
    13  H    0.175794
    14  C   -0.200959
    15  H    0.159966
    16  C   -0.124774
    17  H    0.157510
    18  C   -0.164806
    19  H    0.159555
    20  C   -0.187046
    21  H    0.150703
    22  N   -0.571874
    23  H    0.351990
    24  C   -0.066493
    25  H    0.185791
    26  C    0.637451
    27  C   -0.285256
    28  H    0.153533
    29  H    0.154076
    30  O   -0.545065
    31  C   -0.087120
    32  H    0.127528
    33  C   -0.451104
    34  H    0.155355
    35  H    0.156479
    36  H    0.129647
    37  C   -0.453933
    38  H    0.154759
    39  H    0.143430
    40  H    0.161370
    41  N   -0.624560
    42  H    0.386112
    43  C   -0.079309
    44  H    0.204860
    45  C    0.645547
    46  C   -0.374916
    47  H    0.180586
    48  H    0.192574
    49  O   -0.551703
    50  C    0.633869
    51  N   -0.733080
    52  H    0.347239
    53  H    0.358510
    54  O   -0.553443
    55  N   -0.655985
    56  H    0.405271
    57  C    0.009546
    58  H    0.197526
    59  C    0.574840
    60  C   -0.305659
    61  H    0.193732
    62  H    0.175275
    63  O   -0.471762
    64  C   -0.285992
    65  H    0.161355
    66  H    0.144506
    67  C   -0.181117
    68  H    0.197989
    69  H    0.217492
    70  N   -0.596310
    71  H    0.350917
    72  N   -0.825869
    73  H    0.379381
    74  H    0.457386
    75  N   -0.773317
    76  H    0.368723
    77  H    0.367935
    78  C    0.800381
    79  O   -0.553115
    80  H    0.426800
 Sum of Mulliken charges =   1.00000

 Dipole moment (field-independent basis, Debye):
    X=             -1.2466    Y=             15.2719    Z=            -12.4015  Tot=             19.7125
 Quadrupole moment (field-independent basis, Debye-Ang):
   XX=           -187.1551   YY=           -134.9231   ZZ=           -148.9831
   XY=             -7.4782   XZ=             -6.6846   YZ=            -39.0712

 Normal termination of Gaussian 16 at Fri Jun 17 19:10:51 2022.
