 Gaussian 16, Revision C.01,
 Gaussian 16:  ES64L-G16RevC.01  3-Jul-2019

 ----------------------------------------------------------------------
 # B3LYP/6-31G* empiricaldispersion=gd3 guess=read geom=check nosymm in
 tegral(ultrafinegrid)
 ----------------------------------------------------------------------

 ------------------------------------------------------
 Candidate Structure: Conf:883 Charge calc in gas phase
 ------------------------------------------------------
 Structure from the checkpoint file:  "conf-883.chk"
 Charge =  1 Multiplicity = 1

                          Input orientation:
 ---------------------------------------------------------------------
 Center     Atomic      Atomic             Coordinates (Angstroms)
 Number     Number       Type             X           Y           Z
 ---------------------------------------------------------------------
      1          7           0       -4.407606    1.679694    3.213907
      2          1           0       -3.997083    0.775199    3.440131
      3          1           0       -4.690130    2.122588    4.085538
      4          6           0       -3.418827    2.491572    2.523529
      5          1           0       -3.927552    3.370203    2.105817
      6          6           0       -2.840960    1.652825    1.384859
      7          6           0       -2.232434    2.985760    3.410566
      8          1           0       -1.789509    2.104462    3.887947
      9          1           0       -2.660462    3.606957    4.208239
     10          8           0       -2.470717    0.490639    1.571285
     11          6           0       -1.170993    3.757739    2.656699
     12          6           0        0.141084    3.274574    2.564687
     13          1           0        0.402101    2.346325    3.067160
     14          6           0       -1.479222    4.964801    2.009704
     15          1           0       -2.482673    5.377849    2.091461
     16          6           0        1.123718    3.974514    1.862221
     17          1           0        2.138920    3.587175    1.836205
     18          6           0       -0.505609    5.660840    1.289450
     19          1           0       -0.762766    6.606980    0.818112
     20          6           0        0.800334    5.168267    1.214437
     21          1           0        1.566625    5.721051    0.677373
     22          7           0       -2.715649    2.280396    0.184498
     23          1           0       -2.868581    3.279589    0.147899
     24          6           0       -2.022079    1.656966   -0.941666
     25          1           0       -2.344459    0.612702   -0.963513
     26          6           0       -0.513358    1.685935   -0.671617
     27          6           0       -2.395505    2.342355   -2.258491
     28          1           0       -3.477513    2.215782   -2.391260
     29          1           0       -2.209074    3.421808   -2.168723
     30          8           0        0.234441    2.574927   -1.129311
     31          6           0       -1.656341    1.815006   -3.507657
     32          1           0       -0.611791    2.140871   -3.433428
     33          6           0       -1.659051    0.281407   -3.597873
     34          1           0       -2.678789   -0.118795   -3.530503
     35          1           0       -1.239030   -0.045758   -4.555319
     36          1           0       -1.049394   -0.175855   -2.810280
     37          6           0       -2.261195    2.452848   -4.765580
     38          1           0       -3.300797    2.133269   -4.907942
     39          1           0       -2.255007    3.548551   -4.703062
     40          1           0       -1.700509    2.161419   -5.660983
     41          7           0       -0.042059    0.712166    0.111084
     42          1           0       -0.713238    0.086509    0.549012
     43          6           0        1.371831    0.665586    0.416976
     44          1           0        1.680235    1.673059    0.697967
     45          6           0        2.146802    0.279271   -0.865543
     46          6           0        1.662258   -0.267705    1.596001
     47          1           0        0.861522   -0.161801    2.340849
     48          1           0        1.670634   -1.318720    1.283230
     49          8           0        1.623403   -0.353214   -1.777933
     50          6           0        2.984326    0.107659    2.278284
     51          7           0        3.417050   -0.763782    3.216469
     52          1           0        4.269492   -0.551511    3.717140
     53          1           0        2.927566   -1.618818    3.436799
     54          8           0        3.590930    1.146651    2.013105
     55          7           0        3.418693    0.746651   -0.887993
     56          1           0        3.777704    1.164927   -0.032619
     57          6           0        4.333019    0.491000   -1.992536
     58          1           0        4.000097   -0.437022   -2.477043
     59          6           0        5.752676    0.219162   -1.491870
     60          6           0        4.316087    1.638360   -3.022671
     61          1           0        5.242793    1.608443   -3.601961
     62          1           0        4.322291    2.581115   -2.460225
     63          8           0        6.750047    0.403979   -2.148763
     64          6           0        3.094235    1.578312   -3.967251
     65          1           0        3.366991    1.050370   -4.887267
     66          1           0        2.279021    0.998775   -3.521080
     67          6           0        2.562730    2.958702   -4.356054
     68          1           0        3.400732    3.611589   -4.634549
     69          1           0        1.882514    2.886077   -5.214058
     70          7           0        1.840170    3.547674   -3.216672
     71          1           0        1.534449    2.921752   -2.466973
     72          7           0        1.641564    5.688809   -4.113202
     73          1           0        1.085466    6.522229   -4.233207
     74          1           0        2.320634    5.483669   -4.829723
     75          7           0        0.389446    5.072312   -2.256873
     76          1           0        0.220765    6.036119   -2.009527
     77          1           0        0.119943    4.337479   -1.593761
     78          6           0        1.295768    4.762442   -3.197100
     79          8           0        5.767213   -0.288965   -0.239164
     80          1           0        6.704270   -0.451349   -0.017433
 ---------------------------------------------------------------------

 SCF Done:  E(RB3LYP) =  -1866.74891097     A.U. after    1 cycles

 Alpha  occ. eigenvalues --  -19.28589 -19.23676 -19.22735 -19.22127 -19.21468
 Alpha  occ. eigenvalues --  -19.20878 -14.51163 -14.49675 -14.49154 -14.46555
 Alpha  occ. eigenvalues --  -14.46218 -14.46048 -14.45055 -14.39133 -10.46579
 Alpha  occ. eigenvalues --  -10.41028 -10.39921 -10.39697 -10.38130 -10.38017
 Alpha  occ. eigenvalues --  -10.34882 -10.33265 -10.33229 -10.33201 -10.31184
 Alpha  occ. eigenvalues --  -10.30918 -10.29009 -10.28854 -10.28542 -10.28371
 Alpha  occ. eigenvalues --  -10.28183 -10.28178 -10.28117 -10.27947 -10.27875
 Alpha  occ. eigenvalues --  -10.27779 -10.27646 -10.25628 -10.24958  -1.19456
 Alpha  occ. eigenvalues --   -1.15495  -1.14886  -1.13802  -1.13138  -1.12619
 Alpha  occ. eigenvalues --   -1.10460  -1.04463  -1.03580  -1.03082  -1.02432
 Alpha  occ. eigenvalues --   -1.02009  -1.00838  -0.97045  -0.94492  -0.90806
 Alpha  occ. eigenvalues --   -0.90226  -0.88950  -0.86765  -0.85547  -0.84258
 Alpha  occ. eigenvalues --   -0.83521  -0.79935  -0.79690  -0.78484  -0.77015
 Alpha  occ. eigenvalues --   -0.76314  -0.74935  -0.73175  -0.72937  -0.71566
 Alpha  occ. eigenvalues --   -0.70549  -0.69704  -0.68979  -0.68705  -0.68356
 Alpha  occ. eigenvalues --   -0.68144  -0.67386  -0.66941  -0.64986  -0.64206
 Alpha  occ. eigenvalues --   -0.63618  -0.63126  -0.62921  -0.61894  -0.60998
 Alpha  occ. eigenvalues --   -0.60467  -0.60203  -0.59777  -0.58920  -0.58370
 Alpha  occ. eigenvalues --   -0.57995  -0.57108  -0.56217  -0.55931  -0.55196
 Alpha  occ. eigenvalues --   -0.55122  -0.54519  -0.54437  -0.54356  -0.54049
 Alpha  occ. eigenvalues --   -0.53000  -0.52858  -0.52482  -0.52301  -0.51684
 Alpha  occ. eigenvalues --   -0.51507  -0.50872  -0.50730  -0.50183  -0.50095
 Alpha  occ. eigenvalues --   -0.49780  -0.49093  -0.48866  -0.48559  -0.48087
 Alpha  occ. eigenvalues --   -0.47751  -0.47144  -0.46565  -0.46284  -0.45965
 Alpha  occ. eigenvalues --   -0.45765  -0.45100  -0.45048  -0.44782  -0.44503
 Alpha  occ. eigenvalues --   -0.44351  -0.43952  -0.43279  -0.42754  -0.41902
 Alpha  occ. eigenvalues --   -0.41473  -0.41167  -0.41095  -0.40554  -0.39023
 Alpha  occ. eigenvalues --   -0.38676  -0.37409  -0.37313  -0.36916  -0.36069
 Alpha  occ. eigenvalues --   -0.35543  -0.34955  -0.34654  -0.34202  -0.34059
 Alpha  occ. eigenvalues --   -0.33425  -0.30895
 Alpha virt. eigenvalues --   -0.11077  -0.10015  -0.09716  -0.09338  -0.08121
 Alpha virt. eigenvalues --   -0.07987  -0.07215  -0.06977  -0.06712  -0.03852
 Alpha virt. eigenvalues --   -0.02144  -0.01972  -0.01471  -0.00992  -0.00651

 Mulliken charges:
               1
     1  N   -0.706895
     2  H    0.321844
     3  H    0.309425
     4  C   -0.056413
     5  H    0.142755
     6  C    0.651357
     7  C   -0.367011
     8  H    0.156727
     9  H    0.167345
    10  O   -0.558766
    11  C    0.168402
    12  C   -0.191169
    13  H    0.132709
    14  C   -0.207110
    15  H    0.140679
    16  C   -0.128166
    17  H    0.166847
    18  C   -0.146192
    19  H    0.130855
    20  C   -0.142898
    21  H    0.129194
    22  N   -0.597358
    23  H    0.336908
    24  C   -0.066922
    25  H    0.198163
    26  C    0.679533
    27  C   -0.279941
    28  H    0.164375
    29  H    0.124197
    30  O   -0.614788
    31  C   -0.080584
    32  H    0.118863
    33  C   -0.467955
    34  H    0.151386
    35  H    0.153894
    36  H    0.170328
    37  C   -0.448062
    38  H    0.159216
    39  H    0.131428
    40  H    0.147628
    41  N   -0.600985
    42  H    0.382543
    43  C   -0.032645
    44  H    0.202914
    45  C    0.612623
    46  C   -0.428892
    47  H    0.201331
    48  H    0.196848
    49  O   -0.525648
    50  C    0.634703
    51  N   -0.740425
    52  H    0.362998
    53  H    0.357564
    54  O   -0.526876
    55  N   -0.623788
    56  H    0.380959
    57  C   -0.054778
    58  H    0.216967
    59  C    0.576521
    60  C   -0.272252
    61  H    0.193758
    62  H    0.147500
    63  O   -0.444922
    64  C   -0.338118
    65  H    0.176212
    66  H    0.210292
    67  C   -0.156356
    68  H    0.165796
    69  H    0.183385
    70  N   -0.628199
    71  H    0.420290
    72  N   -0.763871
    73  H    0.376547
    74  H    0.383671
    75  N   -0.796084
    76  H    0.358299
    77  H    0.430045
    78  C    0.806250
    79  O   -0.563166
    80  H    0.425156
 Sum of Mulliken charges =   1.00000

 Dipole moment (field-independent basis, Debye):
    X=              5.2967    Y=             16.0653    Z=             -4.7007  Tot=             17.5569
 Quadrupole moment (field-independent basis, Debye-Ang):
   XX=           -201.8417   YY=           -126.4858   ZZ=           -154.4261
   XY=             -6.1670   XZ=             -5.6677   YZ=            -60.3711

 Normal termination of Gaussian 16 at Fri Jun 17 19:45:13 2022.
