 Gaussian 16, Revision C.01,
 Gaussian 16:  ES64L-G16RevC.01  3-Jul-2019

 ----------------------------------------------------------------------
 # B3LYP/6-31G* empiricaldispersion=gd3 guess=read geom=check nosymm in
 tegral(ultrafinegrid)
 ----------------------------------------------------------------------

 ------------------------------------------------------
 Candidate Structure: Conf:727 Charge calc in gas phase
 ------------------------------------------------------
 Structure from the checkpoint file:  "conf-727.chk"
 Charge =  1 Multiplicity = 1

                          Input orientation:
 ---------------------------------------------------------------------
 Center     Atomic      Atomic             Coordinates (Angstroms)
 Number     Number       Type             X           Y           Z
 ---------------------------------------------------------------------
      1          7           0       -5.097098   -1.338008    4.756972
      2          1           0       -5.995287   -1.745189    4.499680
      3          1           0       -4.410287   -2.060406    4.538220
      4          6           0       -4.828178   -0.196528    3.894485
      5          1           0       -5.689552    0.482630    3.944308
      6          6           0       -4.608206   -0.592037    2.419708
      7          6           0       -3.595303    0.596654    4.424996
      8          1           0       -3.868220    0.967332    5.417988
      9          1           0       -3.417691    1.465342    3.780369
     10          8           0       -4.329868   -1.739436    2.090927
     11          6           0       -2.334453   -0.234647    4.515254
     12          6           0       -2.059786   -0.999606    5.655755
     13          1           0       -2.760186   -0.979486    6.485762
     14          6           0       -1.433153   -0.286475    3.441136
     15          1           0       -1.654654    0.302272    2.556041
     16          6           0       -0.911614   -1.792419    5.725879
     17          1           0       -0.715262   -2.377604    6.620161
     18          6           0       -0.288043   -1.083074    3.506701
     19          1           0        0.393283   -1.134174    2.659405
     20          6           0       -0.020737   -1.836482    4.653067
     21          1           0        0.869683   -2.456924    4.705547
     22          7           0       -4.742536    0.431777    1.512012
     23          1           0       -4.746933    1.372833    1.887428
     24          6           0       -4.182881    0.320291    0.176791
     25          1           0       -3.977828   -0.742236    0.021544
     26          6           0       -2.844101    1.071248    0.144851
     27          6           0       -5.149655    0.829861   -0.910272
     28          1           0       -5.279227    1.914891   -0.790924
     29          1           0       -4.680730    0.681242   -1.893799
     30          8           0       -2.503866    1.850746    1.038625
     31          6           0       -6.527691    0.142333   -0.895755
     32          1           0       -6.998639    0.374128    0.068849
     33          6           0       -7.407399    0.720290   -2.013181
     34          1           0       -6.983784    0.495824   -3.000929
     35          1           0       -8.414960    0.291191   -1.979405
     36          1           0       -7.502775    1.809697   -1.929222
     37          6           0       -6.416210   -1.385054   -1.012379
     38          1           0       -5.871259   -1.668791   -1.923430
     39          1           0       -5.901799   -1.827734   -0.152759
     40          1           0       -7.411976   -1.838576   -1.070986
     41          7           0       -2.025726    0.808999   -0.906039
     42          1           0       -2.294636    0.213773   -1.680826
     43          6           0       -0.719201    1.421483   -0.962357
     44          1           0       -0.822880    2.484040   -0.716141
     45          6           0       -0.172671    1.286469   -2.389014
     46          6           0        0.258877    0.771415    0.073438
     47          1           0       -0.336213    0.260898    0.829022
     48          1           0        0.880993    0.016009   -0.421167
     49          8           0       -0.749376    0.646543   -3.260000
     50          6           0        1.188006    1.796936    0.705072
     51          7           0        1.216867    1.831961    2.050698
     52          1           0        1.790395    2.533822    2.499988
     53          1           0        0.571336    1.302368    2.624348
     54          8           0        1.889947    2.549983    0.010242
     55          7           0        1.016047    1.931736   -2.564424
     56          1           0        1.465798    2.299594   -1.713698
     57          6           0        1.816081    1.728938   -3.750172
     58          1           0        1.172880    1.199012   -4.465982
     59          6           0        2.979010    0.771001   -3.463324
     60          6           0        2.285251    3.053841   -4.366488
     61          1           0        1.391887    3.579766   -4.713719
     62          1           0        2.874631    2.827347   -5.262996
     63          8           0        4.138802    0.918507   -3.836647
     64          6           0        3.081443    3.961876   -3.389077
     65          1           0        2.462108    4.801135   -3.061159
     66          1           0        3.355785    3.420976   -2.474764
     67          6           0        4.364292    4.530553   -4.004490
     68          1           0        4.134595    5.086882   -4.923352
     69          1           0        4.856566    5.210982   -3.299163
     70          7           0        5.269472    3.414062   -4.312967
     71          1           0        4.862495    2.471949   -4.227969
     72          7           0        7.136782    4.678583   -4.889514
     73          1           0        8.142236    4.771666   -4.900170
     74          1           0        6.594277    5.528440   -4.930788
     75          7           0        7.301959    2.375351   -4.651638
     76          1           0        8.154060    2.341999   -5.193527
     77          1           0        6.865541    1.487762   -4.436620
     78          6           0        6.552232    3.497826   -4.622011
     79          8           0        2.594831   -0.297075   -2.765014
     80          1           0        3.368523   -0.880968   -2.644544
 ---------------------------------------------------------------------

 SCF Done:  E(RB3LYP) =  -1866.72614744     A.U. after    2 cycles

 Alpha  occ. eigenvalues --  -19.32520 -19.28116 -19.21239 -19.21220 -19.19098
 Alpha  occ. eigenvalues --  -19.16828 -14.53136 -14.52472 -14.51583 -14.44671
 Alpha  occ. eigenvalues --  -14.44608 -14.43615 -14.41017 -14.35573 -10.48916
 Alpha  occ. eigenvalues --  -10.45469 -10.38610 -10.38050 -10.36828 -10.35860
 Alpha  occ. eigenvalues --  -10.35054 -10.33278 -10.32451 -10.31582 -10.30834
 Alpha  occ. eigenvalues --  -10.29038 -10.28666 -10.27317 -10.24672 -10.24663
 Alpha  occ. eigenvalues --  -10.24647 -10.24179 -10.24081 -10.24010 -10.23999
 Alpha  occ. eigenvalues --  -10.23798 -10.23597 -10.21925 -10.21494  -1.23956
 Alpha  occ. eigenvalues --   -1.17465  -1.14814  -1.13244  -1.12481  -1.11070
 Alpha  occ. eigenvalues --   -1.08489  -1.06586  -1.05787  -1.02596  -1.00253
 Alpha  occ. eigenvalues --   -0.99489  -0.97794  -0.93444  -0.92499  -0.90367
 Alpha  occ. eigenvalues --   -0.88590  -0.86527  -0.85437  -0.82683  -0.81738
 Alpha  occ. eigenvalues --   -0.80674  -0.79701  -0.79557  -0.77224  -0.76108
 Alpha  occ. eigenvalues --   -0.75533  -0.74519  -0.72701  -0.71867  -0.71201
 Alpha  occ. eigenvalues --   -0.70488  -0.68759  -0.68428  -0.66851  -0.66534
 Alpha  occ. eigenvalues --   -0.66084  -0.65691  -0.65677  -0.65026  -0.63868
 Alpha  occ. eigenvalues --   -0.62886  -0.62818  -0.62326  -0.61769  -0.61194
 Alpha  occ. eigenvalues --   -0.59895  -0.59197  -0.58494  -0.57941  -0.57157
 Alpha  occ. eigenvalues --   -0.56557  -0.55649  -0.55215  -0.54926  -0.54370
 Alpha  occ. eigenvalues --   -0.54117  -0.53733  -0.53570  -0.52724  -0.52475
 Alpha  occ. eigenvalues --   -0.51800  -0.51328  -0.51010  -0.50864  -0.50147
 Alpha  occ. eigenvalues --   -0.49965  -0.49203  -0.48861  -0.48046  -0.47602
 Alpha  occ. eigenvalues --   -0.47371  -0.46800  -0.46536  -0.46486  -0.46112
 Alpha  occ. eigenvalues --   -0.45954  -0.45792  -0.45667  -0.45157  -0.44944
 Alpha  occ. eigenvalues --   -0.44011  -0.43598  -0.43432  -0.43082  -0.42568
 Alpha  occ. eigenvalues --   -0.42442  -0.42053  -0.41767  -0.41278  -0.40976
 Alpha  occ. eigenvalues --   -0.40081  -0.38896  -0.38126  -0.37903  -0.37310
 Alpha  occ. eigenvalues --   -0.37168  -0.36220  -0.35962  -0.35036  -0.34786
 Alpha  occ. eigenvalues --   -0.33086  -0.32792  -0.31387  -0.30580  -0.30155
 Alpha  occ. eigenvalues --   -0.29625  -0.28084
 Alpha virt. eigenvalues --   -0.12976  -0.12604  -0.08665  -0.07268  -0.06396
 Alpha virt. eigenvalues --   -0.05832  -0.05467  -0.05218  -0.04794  -0.03962
 Alpha virt. eigenvalues --   -0.03475  -0.02788  -0.01823  -0.00974   0.00406

 Mulliken charges:
               1
     1  N   -0.698790
     2  H    0.307316
     3  H    0.320415
     4  C   -0.085516
     5  H    0.148591
     6  C    0.593829
     7  C   -0.354202
     8  H    0.167692
     9  H    0.157025
    10  O   -0.520779
    11  C    0.143797
    12  C   -0.179046
    13  H    0.155060
    14  C   -0.208483
    15  H    0.161268
    16  C   -0.126914
    17  H    0.141528
    18  C   -0.156639
    19  H    0.113892
    20  C   -0.130474
    21  H    0.133089
    22  N   -0.577649
    23  H    0.334553
    24  C   -0.095041
    25  H    0.199521
    26  C    0.633613
    27  C   -0.265363
    28  H    0.138864
    29  H    0.133284
    30  O   -0.549052
    31  C   -0.060499
    32  H    0.138997
    33  C   -0.444959
    34  H    0.140200
    35  H    0.152060
    36  H    0.140941
    37  C   -0.471001
    38  H    0.131892
    39  H    0.177601
    40  H    0.150539
    41  N   -0.624783
    42  H    0.358587
    43  C   -0.022991
    44  H    0.204000
    45  C    0.595235
    46  C   -0.404497
    47  H    0.202146
    48  H    0.187932
    49  O   -0.515020
    50  C    0.631772
    51  N   -0.741825
    52  H    0.353813
    53  H    0.375044
    54  O   -0.558948
    55  N   -0.643520
    56  H    0.404253
    57  C   -0.076853
    58  H    0.231542
    59  C    0.623134
    60  C   -0.287851
    61  H    0.189750
    62  H    0.157528
    63  O   -0.525552
    64  C   -0.320242
    65  H    0.193706
    66  H    0.182900
    67  C   -0.162361
    68  H    0.183513
    69  H    0.183929
    70  N   -0.634607
    71  H    0.428834
    72  N   -0.760278
    73  H    0.384493
    74  H    0.390161
    75  N   -0.763943
    76  H    0.378454
    77  H    0.391156
    78  C    0.810964
    79  O   -0.522693
    80  H    0.431958
 Sum of Mulliken charges =   1.00000

 Dipole moment (field-independent basis, Debye):
    X=             24.4130    Y=             15.1232    Z=            -17.0012  Tot=             33.3728
 Quadrupole moment (field-independent basis, Debye-Ang):
   XX=            -35.5193   YY=           -163.2753   ZZ=           -136.4651
   XY=             78.2896   XZ=           -118.3503   YZ=            -64.3805

 Normal termination of Gaussian 16 at Fri Jun 17 19:10:50 2022.
