 Gaussian 16, Revision C.01,
 Gaussian 16:  ES64L-G16RevC.01  3-Jul-2019

 ----------------------------------------------------------------------
 # B3LYP/6-31G* empiricaldispersion=gd3 guess=read geom=check nosymm in
 tegral(ultrafinegrid)
 ----------------------------------------------------------------------

 ------------------------------------------------------
 Candidate Structure: Conf:962 Charge calc in gas phase
 ------------------------------------------------------
 Structure from the checkpoint file:  "conf-962.chk"
 Charge =  1 Multiplicity = 1

                          Input orientation:
 ---------------------------------------------------------------------
 Center     Atomic      Atomic             Coordinates (Angstroms)
 Number     Number       Type             X           Y           Z
 ---------------------------------------------------------------------
      1          7           0       -4.790726   -1.518267    3.218515
      2          1           0       -5.332065   -2.303256    2.859945
      3          1           0       -3.819308   -1.807999    3.109487
      4          6           0       -5.019216   -0.355734    2.372182
      5          1           0       -6.103845   -0.230735    2.257672
      6          6           0       -4.409354   -0.528287    0.964486
      7          6           0       -4.485333    0.932695    3.060037
      8          1           0       -4.914216    0.936866    4.066745
      9          1           0       -4.882302    1.818201    2.548554
     10          8           0       -3.815534   -1.563870    0.648730
     11          6           0       -2.976200    1.032774    3.139041
     12          6           0       -2.258662    0.286674    4.087404
     13          1           0       -2.801259   -0.367260    4.764459
     14          6           0       -2.263916    1.888819    2.286591
     15          1           0       -2.796327    2.474875    1.541813
     16          6           0       -0.870774    0.403482    4.188067
     17          1           0       -0.334539   -0.172000    4.937691
     18          6           0       -0.878849    2.019790    2.398476
     19          1           0       -0.350127    2.726830    1.765081
     20          6           0       -0.176563    1.281876    3.352727
     21          1           0        0.899216    1.393303    3.443494
     22          7           0       -4.534199    0.520755    0.108053
     23          1           0       -4.974956    1.371169    0.429501
     24          6           0       -3.945891    0.532101   -1.234160
     25          1           0       -4.101044   -0.465153   -1.656973
     26          6           0       -2.422073    0.755804   -1.115783
     27          6           0       -4.605090    1.593421   -2.115610
     28          1           0       -4.363021    2.584559   -1.710870
     29          1           0       -4.124274    1.548291   -3.101216
     30          8           0       -1.891123    1.857369   -1.368202
     31          6           0       -6.129310    1.445360   -2.288240
     32          1           0       -6.602701    1.545257   -1.300019
     33          6           0       -6.656776    2.582495   -3.175000
     34          1           0       -6.233285    2.516364   -4.185293
     35          1           0       -7.746911    2.533269   -3.267815
     36          1           0       -6.397023    3.566199   -2.766155
     37          6           0       -6.522265    0.075867   -2.860165
     38          1           0       -6.023132   -0.103445   -3.821256
     39          1           0       -6.261635   -0.746204   -2.184168
     40          1           0       -7.602502    0.025710   -3.033353
     41          7           0       -1.740983   -0.317220   -0.688085
     42          1           0       -2.285039   -1.144016   -0.441279
     43          6           0       -0.312404   -0.293983   -0.493559
     44          1           0       -0.038744    0.740260   -0.324903
     45          6           0        0.410063   -0.793101   -1.763634
     46          6           0        0.122579   -1.072170    0.760312
     47          1           0       -0.634084   -0.925277    1.540794
     48          1           0        0.194635   -2.147514    0.561295
     49          8           0       -0.156673   -1.433393   -2.633465
     50          6           0        1.449964   -0.553358    1.318222
     51          7           0        1.996123   -1.293635    2.298524
     52          1           0        2.905979   -1.027517    2.651328
     53          1           0        1.650653   -2.215241    2.525218
     54          8           0        1.976408    0.506595    0.938166
     55          7           0        1.730277   -0.425113   -1.817730
     56          1           0        2.119720   -0.045488   -0.958854
     57          6           0        2.665967   -1.118192   -2.677068
     58          1           0        2.083564   -1.616470   -3.459377
     59          6           0        3.369170   -2.213086   -1.868373
     60          6           0        3.659030   -0.135068   -3.327400
     61          1           0        4.376909   -0.707864   -3.919746
     62          1           0        4.236730    0.355164   -2.531357
     63          8           0        3.160279   -2.444042   -0.696593
     64          6           0        2.940555    0.917238   -4.204666
     65          1           0        3.325980    0.882063   -5.229774
     66          1           0        1.874092    0.674194   -4.269569
     67          6           0        3.107120    2.367050   -3.724093
     68          1           0        4.167141    2.629510   -3.678978
     69          1           0        2.651890    3.066322   -4.437324
     70          7           0        2.570751    2.631788   -2.380594
     71          1           0        3.222294    2.854006   -1.640795
     72          7           0        0.304786    2.600699   -2.958201
     73          1           0       -0.643231    2.371720   -2.641283
     74          1           0        0.507312    2.607999   -3.945536
     75          7           0        0.935788    2.796096   -0.743191
     76          1           0       -0.066277    2.760251   -0.565202
     77          1           0        1.485769    2.280553   -0.054484
     78          6           0        1.273990    2.655825   -2.045087
     79          8           0        4.249639   -2.892987   -2.624582
     80          1           0        4.650704   -3.584970   -2.064233
 ---------------------------------------------------------------------

 SCF Done:  E(RB3LYP) =  -1866.75734483     A.U. after    3 cycles

 Alpha  occ. eigenvalues --  -19.29760 -19.24326 -19.23909 -19.23368 -19.21655
 Alpha  occ. eigenvalues --  -19.21632 -14.51010 -14.49642 -14.48439 -14.47174
 Alpha  occ. eigenvalues --  -14.46216 -14.46197 -14.45426 -14.39179 -10.46259
 Alpha  occ. eigenvalues --  -10.42192 -10.41359 -10.39721 -10.38641 -10.38019
 Alpha  occ. eigenvalues --  -10.35854 -10.33971 -10.33738 -10.33046 -10.31206
 Alpha  occ. eigenvalues --  -10.31008 -10.30618 -10.30262 -10.28336 -10.27901
 Alpha  occ. eigenvalues --  -10.27819 -10.27662 -10.27547 -10.27482 -10.27420
 Alpha  occ. eigenvalues --  -10.27212 -10.27111 -10.24656 -10.24545  -1.20713
 Alpha  occ. eigenvalues --   -1.15362  -1.15017  -1.14549  -1.13542  -1.13120
 Alpha  occ. eigenvalues --   -1.11804  -1.04766  -1.03415  -1.02911  -1.02452
 Alpha  occ. eigenvalues --   -1.02313  -1.02044  -0.97133  -0.93929  -0.91621
 Alpha  occ. eigenvalues --   -0.90033  -0.89152  -0.86379  -0.86303  -0.84007
 Alpha  occ. eigenvalues --   -0.82978  -0.80620  -0.80033  -0.79085  -0.76658
 Alpha  occ. eigenvalues --   -0.75651  -0.74399  -0.73398  -0.72905  -0.72039
 Alpha  occ. eigenvalues --   -0.71043  -0.69905  -0.69136  -0.68796  -0.68355
 Alpha  occ. eigenvalues --   -0.68169  -0.67438  -0.66128  -0.65106  -0.64602
 Alpha  occ. eigenvalues --   -0.63964  -0.63577  -0.62759  -0.61418  -0.60919
 Alpha  occ. eigenvalues --   -0.60719  -0.59787  -0.59309  -0.59115  -0.58668
 Alpha  occ. eigenvalues --   -0.58306  -0.57757  -0.57116  -0.56881  -0.56464
 Alpha  occ. eigenvalues --   -0.55513  -0.54928  -0.54486  -0.54215  -0.53674
 Alpha  occ. eigenvalues --   -0.53623  -0.53122  -0.52727  -0.52459  -0.52360
 Alpha  occ. eigenvalues --   -0.51387  -0.51368  -0.50766  -0.50471  -0.50179
 Alpha  occ. eigenvalues --   -0.49900  -0.49823  -0.49083  -0.48908  -0.47856
 Alpha  occ. eigenvalues --   -0.47537  -0.47486  -0.46833  -0.46543  -0.45999
 Alpha  occ. eigenvalues --   -0.45848  -0.45742  -0.45719  -0.45446  -0.45289
 Alpha  occ. eigenvalues --   -0.44163  -0.43742  -0.42413  -0.41952  -0.41632
 Alpha  occ. eigenvalues --   -0.41138  -0.40627  -0.40499  -0.40348  -0.39836
 Alpha  occ. eigenvalues --   -0.38886  -0.38582  -0.37856  -0.37801  -0.37069
 Alpha  occ. eigenvalues --   -0.36174  -0.35375  -0.34795  -0.34586  -0.33634
 Alpha  occ. eigenvalues --   -0.33280  -0.31974
 Alpha virt. eigenvalues --   -0.11262  -0.10106  -0.09653  -0.09350  -0.09050
 Alpha virt. eigenvalues --   -0.08593  -0.07819  -0.07177  -0.05911  -0.04400
 Alpha virt. eigenvalues --   -0.03249  -0.02403  -0.01638  -0.01419   0.00297

 Mulliken charges:
               1
     1  N   -0.687373
     2  H    0.318157
     3  H    0.306806
     4  C   -0.093319
     5  H    0.172125
     6  C    0.611461
     7  C   -0.354344
     8  H    0.193202
     9  H    0.137718
    10  O   -0.548379
    11  C    0.157785
    12  C   -0.191904
    13  H    0.166697
    14  C   -0.184382
    15  H    0.125136
    16  C   -0.139173
    17  H    0.144266
    18  C   -0.144168
    19  H    0.123259
    20  C   -0.142390
    21  H    0.143958
    22  N   -0.598927
    23  H    0.342219
    24  C   -0.064660
    25  H    0.196143
    26  C    0.649529
    27  C   -0.287960
    28  H    0.152028
    29  H    0.150325
    30  O   -0.603395
    31  C   -0.076160
    32  H    0.120726
    33  C   -0.444209
    34  H    0.147490
    35  H    0.159412
    36  H    0.144574
    37  C   -0.455406
    38  H    0.148058
    39  H    0.151368
    40  H    0.161485
    41  N   -0.583515
    42  H    0.391898
    43  C   -0.066460
    44  H    0.163474
    45  C    0.604333
    46  C   -0.402740
    47  H    0.225761
    48  H    0.196617
    49  O   -0.499033
    50  C    0.661429
    51  N   -0.727166
    52  H    0.362926
    53  H    0.364100
    54  O   -0.576519
    55  N   -0.618868
    56  H    0.357726
    57  C   -0.080962
    58  H    0.221791
    59  C    0.592356
    60  C   -0.277368
    61  H    0.194633
    62  H    0.138911
    63  O   -0.472567
    64  C   -0.273162
    65  H    0.178376
    66  H    0.168945
    67  C   -0.184080
    68  H    0.192834
    69  H    0.179052
    70  N   -0.585311
    71  H    0.367850
    72  N   -0.767726
    73  H    0.424336
    74  H    0.370784
    75  N   -0.793452
    76  H    0.390809
    77  H    0.393846
    78  C    0.783989
    79  O   -0.553737
    80  H    0.428111
 Sum of Mulliken charges =   1.00000

 Dipole moment (field-independent basis, Debye):
    X=              3.5272    Y=              4.3865    Z=             -4.9023  Tot=              7.4643
 Quadrupole moment (field-independent basis, Debye-Ang):
   XX=           -148.2019   YY=           -203.4670   ZZ=           -186.1751
   XY=             -8.6266   XZ=            -15.1609   YZ=            -26.7897

 Normal termination of Gaussian 16 at Fri Jun 17 19:46:06 2022.
