 Gaussian 16, Revision C.01,
 Gaussian 16:  ES64L-G16RevC.01  3-Jul-2019

 ----------------------------------------------------------------------
 # B3LYP/6-31G* empiricaldispersion=gd3 guess=read geom=check nosymm in
 tegral(ultrafinegrid)
 ----------------------------------------------------------------------

 ------------------------------------------------------
 Candidate Structure: Conf:242 Charge calc in gas phase
 ------------------------------------------------------
 Structure from the checkpoint file:  "conf-242.chk"
 Charge =  1 Multiplicity = 1

                          Input orientation:
 ---------------------------------------------------------------------
 Center     Atomic      Atomic             Coordinates (Angstroms)
 Number     Number       Type             X           Y           Z
 ---------------------------------------------------------------------
      1          7           0       -2.667605    5.658188    1.343878
      2          1           0       -3.611177    5.346649    1.103145
      3          1           0       -2.768037    6.396565    2.039603
      4          6           0       -1.953154    4.504570    1.919927
      5          1           0       -0.911412    4.804671    2.085463
      6          6           0       -2.002354    3.385326    0.872600
      7          6           0       -2.522084    3.951783    3.262579
      8          1           0       -3.598355    3.787508    3.135468
      9          1           0       -2.389309    4.717783    4.036919
     10          8           0       -3.027408    3.183878    0.214887
     11          6           0       -1.821509    2.657786    3.623370
     12          6           0       -2.403471    1.425464    3.297599
     13          1           0       -3.426334    1.398707    2.929253
     14          6           0       -0.500000    2.672998    4.091706
     15          1           0       -0.037818    3.620255    4.364664
     16          6           0       -1.666559    0.242662    3.392823
     17          1           0       -2.131192   -0.703783    3.128382
     18          6           0        0.239952    1.491816    4.178061
     19          1           0        1.270961    1.524282    4.517966
     20          6           0       -0.333912    0.271006    3.811939
     21          1           0        0.252353   -0.642510    3.837353
     22          7           0       -0.862806    2.681926    0.738725
     23          1           0       -0.085714    2.859537    1.368136
     24          6           0       -0.767249    1.407099    0.045434
     25          1           0       -1.572471    0.746768    0.387973
     26          6           0        0.600221    0.840320    0.452860
     27          6           0       -0.872536    1.625175   -1.487556
     28          1           0       -1.844281    2.108777   -1.645847
     29          1           0       -0.091764    2.346631   -1.755506
     30          8           0        1.470995    1.583157    0.919455
     31          6           0       -0.778620    0.409990   -2.427474
     32          1           0        0.194117   -0.079376   -2.300182
     33          6           0       -1.893351   -0.613813   -2.163614
     34          1           0       -2.881517   -0.154257   -2.288703
     35          1           0       -1.821725   -1.454991   -2.860838
     36          1           0       -1.863696   -1.027852   -1.147008
     37          6           0       -0.837407    0.903914   -3.881314
     38          1           0       -1.787316    1.413747   -4.089380
     39          1           0       -0.017813    1.603862   -4.095549
     40          1           0       -0.745064    0.069994   -4.584368
     41          7           0        0.812225   -0.469547    0.209591
     42          1           0        0.087338   -1.002810   -0.252210
     43          6           0        2.176265   -1.018368    0.174320
     44          1           0        2.695837   -0.630884    1.052307
     45          6           0        2.773829   -0.488281   -1.147326
     46          6           0        2.140360   -2.537402    0.236667
     47          1           0        1.591226   -2.939539   -0.622716
     48          1           0        3.165865   -2.916588    0.145783
     49          8           0        2.555764   -1.041823   -2.218723
     50          6           0        1.561394   -3.013366    1.573792
     51          7           0        1.040415   -4.272406    1.560654
     52          1           0        0.776781   -4.679865    2.448350
     53          1           0        1.177071   -4.898429    0.779886
     54          8           0        1.563242   -2.304872    2.571973
     55          7           0        3.411740    0.712870   -1.018854
     56          1           0        3.348170    1.151324   -0.106258
     57          6           0        3.563565    1.618490   -2.152767
     58          1           0        3.105950    1.107237   -3.009745
     59          6           0        5.039636    1.832588   -2.504942
     60          6           0        2.858902    2.956875   -1.859758
     61          1           0        3.470123    3.520115   -1.143392
     62          1           0        1.913627    2.736401   -1.357636
     63          8           0        5.554507    2.918593   -2.670235
     64          6           0        2.615847    3.828874   -3.096607
     65          1           0        3.574160    4.078450   -3.560405
     66          1           0        2.031992    3.279420   -3.850185
     67          6           0        1.906650    5.147123   -2.761856
     68          1           0        2.420431    5.614681   -1.916363
     69          1           0        1.951078    5.837592   -3.612250
     70          7           0        0.495594    4.930759   -2.392379
     71          1           0       -0.015498    4.274138   -2.969520
     72          7           0        0.343936    6.551108   -0.715534
     73          1           0       -0.243126    7.064698   -0.072701
     74          1           0        1.205501    6.996277   -0.991875
     75          7           0       -1.522409    5.332992   -1.297424
     76          1           0       -1.986087    5.679405   -0.430981
     77          1           0       -1.902742    4.452813   -1.625475
     78          6           0       -0.225240    5.596352   -1.479980
     79          8           0        5.693406    0.666686   -2.629291
     80          1           0        6.616702    0.876768   -2.867701
 ---------------------------------------------------------------------

 SCF Done:  E(RB3LYP) =  -1866.73539170     A.U. after    2 cycles

 Alpha  occ. eigenvalues --  -19.28118 -19.22891 -19.22706 -19.21785 -19.20857
 Alpha  occ. eigenvalues --  -19.19731 -14.51941 -14.51656 -14.49157 -14.46921
 Alpha  occ. eigenvalues --  -14.45677 -14.45187 -14.44796 -14.44017 -10.47579
 Alpha  occ. eigenvalues --  -10.40841 -10.39534 -10.38705 -10.37890 -10.37621
 Alpha  occ. eigenvalues --  -10.36256 -10.33738 -10.33396 -10.33376 -10.33073
 Alpha  occ. eigenvalues --  -10.30475 -10.29358 -10.29106 -10.29017 -10.28765
 Alpha  occ. eigenvalues --  -10.28572 -10.27711 -10.26851 -10.26716 -10.26704
 Alpha  occ. eigenvalues --  -10.26551 -10.26479 -10.26433 -10.25838  -1.19274
 Alpha  occ. eigenvalues --   -1.16033  -1.14953  -1.13578  -1.12623  -1.11564
 Alpha  occ. eigenvalues --   -1.10337  -1.05821  -1.03556  -1.03405  -1.02689
 Alpha  occ. eigenvalues --   -1.02037  -1.00763  -0.98727  -0.93366  -0.91659
 Alpha  occ. eigenvalues --   -0.91191  -0.88348  -0.87165  -0.85944  -0.84506
 Alpha  occ. eigenvalues --   -0.81947  -0.80434  -0.80106  -0.78372  -0.77693
 Alpha  occ. eigenvalues --   -0.77106  -0.75956  -0.74080  -0.73394  -0.72754
 Alpha  occ. eigenvalues --   -0.70221  -0.69002  -0.68406  -0.68191  -0.68054
 Alpha  occ. eigenvalues --   -0.67515  -0.66996  -0.66018  -0.65606  -0.64621
 Alpha  occ. eigenvalues --   -0.63860  -0.63266  -0.62408  -0.62029  -0.60626
 Alpha  occ. eigenvalues --   -0.60425  -0.60224  -0.60036  -0.58946  -0.58510
 Alpha  occ. eigenvalues --   -0.58175  -0.57176  -0.56745  -0.56287  -0.55884
 Alpha  occ. eigenvalues --   -0.55281  -0.55097  -0.54494  -0.53997  -0.53539
 Alpha  occ. eigenvalues --   -0.53326  -0.53279  -0.52874  -0.52099  -0.51916
 Alpha  occ. eigenvalues --   -0.51564  -0.51099  -0.50719  -0.49800  -0.49563
 Alpha  occ. eigenvalues --   -0.49314  -0.49073  -0.48509  -0.48220  -0.47898
 Alpha  occ. eigenvalues --   -0.47876  -0.47720  -0.47141  -0.46703  -0.46424
 Alpha  occ. eigenvalues --   -0.46205  -0.46055  -0.45866  -0.45287  -0.45042
 Alpha  occ. eigenvalues --   -0.44683  -0.43788  -0.42858  -0.42624  -0.42227
 Alpha  occ. eigenvalues --   -0.41945  -0.41713  -0.41470  -0.40435  -0.40133
 Alpha  occ. eigenvalues --   -0.38001  -0.37843  -0.37444  -0.36721  -0.35672
 Alpha  occ. eigenvalues --   -0.35360  -0.35191  -0.34369  -0.33578  -0.33372
 Alpha  occ. eigenvalues --   -0.32625  -0.31704
 Alpha virt. eigenvalues --   -0.11618  -0.09950  -0.08537  -0.08415  -0.08035
 Alpha virt. eigenvalues --   -0.07685  -0.07320  -0.06559  -0.05960  -0.05673
 Alpha virt. eigenvalues --   -0.03350  -0.02699  -0.02260  -0.01145  -0.00385

 Mulliken charges:
               1
     1  N   -0.776194
     2  H    0.346227
     3  H    0.329627
     4  C   -0.058181
     5  H    0.145617
     6  C    0.612355
     7  C   -0.357123
     8  H    0.167760
     9  H    0.160675
    10  O   -0.568209
    11  C    0.149053
    12  C   -0.179976
    13  H    0.142619
    14  C   -0.205463
    15  H    0.126259
    16  C   -0.148611
    17  H    0.139980
    18  C   -0.120692
    19  H    0.148121
    20  C   -0.145485
    21  H    0.190479
    22  N   -0.610710
    23  H    0.370658
    24  C   -0.035888
    25  H    0.186171
    26  C    0.639981
    27  C   -0.292080
    28  H    0.170555
    29  H    0.119009
    30  O   -0.561059
    31  C   -0.112479
    32  H    0.160668
    33  C   -0.462276
    34  H    0.164443
    35  H    0.169496
    36  H    0.133932
    37  C   -0.453523
    38  H    0.145443
    39  H    0.124370
    40  H    0.175176
    41  N   -0.596164
    42  H    0.353747
    43  C   -0.056278
    44  H    0.204982
    45  C    0.621280
    46  C   -0.411601
    47  H    0.179395
    48  H    0.205878
    49  O   -0.521349
    50  C    0.609032
    51  N   -0.746309
    52  H    0.355266
    53  H    0.348356
    54  O   -0.497461
    55  N   -0.591234
    56  H    0.364803
    57  C   -0.057180
    58  H    0.205702
    59  C    0.600490
    60  C   -0.294865
    61  H    0.163549
    62  H    0.172849
    63  O   -0.464001
    64  C   -0.312337
    65  H    0.208761
    66  H    0.154006
    67  C   -0.156587
    68  H    0.172480
    69  H    0.195645
    70  N   -0.602891
    71  H    0.362864
    72  N   -0.759575
    73  H    0.383492
    74  H    0.380038
    75  N   -0.779480
    76  H    0.413947
    77  H    0.377535
    78  C    0.800540
    79  O   -0.543090
    80  H    0.425037
 Sum of Mulliken charges =   1.00000

 Dipole moment (field-independent basis, Debye):
    X=              1.0921    Y=             15.8653    Z=             -3.3417  Tot=             16.2502
 Quadrupole moment (field-independent basis, Debye-Ang):
   XX=           -205.2902   YY=            -75.0225   ZZ=           -210.3688
   XY=             -8.1312   XZ=            -11.5146   YZ=            -13.6839

 Normal termination of Gaussian 16 at Fri Jun 17 19:11:28 2022.
