 Gaussian 16, Revision C.01,
 Gaussian 16:  ES64L-G16RevC.01  3-Jul-2019

 ----------------------------------------------------------------------
 # B3LYP/6-31G* empiricaldispersion=gd3 guess=read geom=check nosymm in
 tegral(ultrafinegrid)
 ----------------------------------------------------------------------

 ------------------------------------------------------
 Candidate Structure: Conf:197 Charge calc in gas phase
 ------------------------------------------------------
 Structure from the checkpoint file:  "conf-197.chk"
 Charge =  1 Multiplicity = 1

                          Input orientation:
 ---------------------------------------------------------------------
 Center     Atomic      Atomic             Coordinates (Angstroms)
 Number     Number       Type             X           Y           Z
 ---------------------------------------------------------------------
      1          7           0       -4.867693    2.856665    2.344566
      2          1           0       -5.605648    2.261509    1.966723
      3          1           0       -5.310077    3.465943    3.032441
      4          6           0       -3.895423    1.988993    3.023405
      5          1           0       -3.095927    2.633594    3.411940
      6          6           0       -3.358880    1.076520    1.920664
      7          6           0       -4.454349    1.136116    4.192324
      8          1           0       -3.641598    0.519847    4.598952
      9          1           0       -5.198720    0.449343    3.774561
     10          8           0       -4.071638    0.211991    1.415736
     11          6           0       -5.052174    1.998172    5.277798
     12          6           0       -6.414801    2.328281    5.265566
     13          1           0       -7.059194    1.903091    4.499282
     14          6           0       -4.242778    2.542528    6.284988
     15          1           0       -3.184209    2.291301    6.312319
     16          6           0       -6.955212    3.177706    6.233613
     17          1           0       -8.015373    3.415402    6.212265
     18          6           0       -4.778370    3.389745    7.254972
     19          1           0       -4.136789    3.794705    8.033030
     20          6           0       -6.137674    3.711545    7.230807
     21          1           0       -6.557094    4.367863    7.988157
     22          7           0       -2.085671    1.322069    1.503169
     23          1           0       -1.546765    2.075381    1.910208
     24          6           0       -1.523697    0.690358    0.324450
     25          1           0       -2.026264   -0.271621    0.200985
     26          6           0       -0.017831    0.528923    0.531774
     27          6           0       -1.703679    1.566831   -0.942635
     28          1           0       -1.181605    2.510686   -0.720462
     29          1           0       -1.167747    1.085239   -1.773734
     30          8           0        0.654483    1.487128    0.909558
     31          6           0       -3.155526    1.866015   -1.355946
     32          1           0       -3.687577    2.271845   -0.486617
     33          6           0       -3.160807    2.953433   -2.445850
     34          1           0       -2.581531    2.623890   -3.323948
     35          1           0       -4.178351    3.169253   -2.788819
     36          1           0       -2.744892    3.897530   -2.059394
     37          6           0       -3.890982    0.608669   -1.836480
     38          1           0       -3.358248    0.135784   -2.672557
     39          1           0       -3.993805   -0.112990   -1.022539
     40          1           0       -4.901169    0.858091   -2.179986
     41          7           0        0.520012   -0.690441    0.217618
     42          1           0       -0.079030   -1.291333   -0.337303
     43          6           0        1.932593   -0.738386   -0.143522
     44          1           0        2.473898   -0.134028    0.585135
     45          6           0        2.067182   -0.075446   -1.537085
     46          6           0        2.474346   -2.170962   -0.099081
     47          1           0        2.088961   -2.664091    0.802180
     48          1           0        2.121586   -2.754869   -0.959452
     49          8           0        1.097904   -0.038243   -2.300963
     50          6           0        4.006535   -2.183728   -0.051027
     51          7           0        4.574586   -3.413228   -0.043024
     52          1           0        5.581538   -3.476789    0.023693
     53          1           0        4.034309   -4.265399   -0.019445
     54          8           0        4.672493   -1.151101   -0.010289
     55          7           0        3.245390    0.532968   -1.804966
     56          1           0        4.053524    0.318593   -1.220186
     57          6           0        3.375807    1.367058   -2.981217
     58          1           0        2.674898    0.982238   -3.728412
     59          6           0        4.783291    1.255242   -3.541549
     60          6           0        3.007620    2.863330   -2.708438
     61          1           0        2.695671    3.290578   -3.670068
     62          1           0        3.897692    3.419126   -2.386075
     63          8           0        5.692166    0.643417   -3.034814
     64          6           0        1.910353    3.001861   -1.642786
     65          1           0        1.150290    2.232409   -1.786783
     66          1           0        2.324625    2.817505   -0.648798
     67          6           0        1.186355    4.347391   -1.621413
     68          1           0        0.668813    4.472837   -0.665826
     69          1           0        1.853491    5.207267   -1.737031
     70          7           0        0.139682    4.408955   -2.663023
     71          1           0       -0.651453    3.792941   -2.505765
     72          7           0        1.243665    5.705229   -4.259667
     73          1           0        1.179028    6.433562   -4.956318
     74          1           0        2.149131    5.527159   -3.851236
     75          7           0       -0.993251    5.181526   -4.524515
     76          1           0       -0.958716    5.377016   -5.515206
     77          1           0       -1.861926    4.813485   -4.158435
     78          6           0        0.141628    5.086396   -3.804196
     79          8           0        4.896237    1.967066   -4.688068
     80          1           0        5.818100    1.864912   -4.993726
 ---------------------------------------------------------------------

 SCF Done:  E(RB3LYP) =  -1866.70547081     A.U. after    1 cycles

 Alpha  occ. eigenvalues --  -19.28939 -19.23244 -19.21078 -19.20710 -19.20512
 Alpha  occ. eigenvalues --  -19.18172 -14.53412 -14.53134 -14.53049 -14.44963
 Alpha  occ. eigenvalues --  -14.44486 -14.44441 -14.43417 -14.37847 -10.49695
 Alpha  occ. eigenvalues --  -10.41304 -10.38321 -10.37744 -10.37625 -10.36308
 Alpha  occ. eigenvalues --  -10.35259 -10.33494 -10.32285 -10.31581 -10.30397
 Alpha  occ. eigenvalues --  -10.29492 -10.29350 -10.28634 -10.28153 -10.27656
 Alpha  occ. eigenvalues --  -10.27414 -10.24748 -10.24307 -10.24081 -10.23937
 Alpha  occ. eigenvalues --  -10.23932 -10.23878 -10.23875 -10.23720  -1.19764
 Alpha  occ. eigenvalues --   -1.18031  -1.13383  -1.12362  -1.12077  -1.10950
 Alpha  occ. eigenvalues --   -1.10185  -1.07255  -1.06179  -1.01775  -1.01378
 Alpha  occ. eigenvalues --   -0.99908  -0.99252  -0.95142  -0.91611  -0.90292
 Alpha  occ. eigenvalues --   -0.89725  -0.88161  -0.86362  -0.83636  -0.82665
 Alpha  occ. eigenvalues --   -0.81757  -0.79284  -0.79052  -0.77484  -0.77276
 Alpha  occ. eigenvalues --   -0.76580  -0.75590  -0.73947  -0.72908  -0.71289
 Alpha  occ. eigenvalues --   -0.70779  -0.69468  -0.68081  -0.66910  -0.66791
 Alpha  occ. eigenvalues --   -0.66544  -0.66364  -0.66007  -0.65425  -0.64655
 Alpha  occ. eigenvalues --   -0.63023  -0.62665  -0.62289  -0.61334  -0.60360
 Alpha  occ. eigenvalues --   -0.59299  -0.58680  -0.58203  -0.57648  -0.57259
 Alpha  occ. eigenvalues --   -0.56681  -0.56354  -0.56155  -0.55832  -0.55335
 Alpha  occ. eigenvalues --   -0.54229  -0.53636  -0.53476  -0.52977  -0.52229
 Alpha  occ. eigenvalues --   -0.52139  -0.51697  -0.51162  -0.50912  -0.50554
 Alpha  occ. eigenvalues --   -0.50289  -0.49821  -0.49609  -0.49225  -0.48940
 Alpha  occ. eigenvalues --   -0.48177  -0.47748  -0.47389  -0.47232  -0.47050
 Alpha  occ. eigenvalues --   -0.46762  -0.46706  -0.46359  -0.45830  -0.45301
 Alpha  occ. eigenvalues --   -0.44912  -0.44739  -0.44255  -0.44167  -0.44001
 Alpha  occ. eigenvalues --   -0.43566  -0.41633  -0.41586  -0.41163  -0.41041
 Alpha  occ. eigenvalues --   -0.40904  -0.40757  -0.40399  -0.38815  -0.38771
 Alpha  occ. eigenvalues --   -0.36915  -0.36031  -0.35708  -0.35057  -0.34660
 Alpha  occ. eigenvalues --   -0.34505  -0.33818  -0.32489  -0.32051  -0.30759
 Alpha  occ. eigenvalues --   -0.29846  -0.28854
 Alpha virt. eigenvalues --   -0.13581  -0.09410  -0.08400  -0.08086  -0.06730
 Alpha virt. eigenvalues --   -0.06145  -0.05675  -0.05506  -0.05146  -0.05063
 Alpha virt. eigenvalues --   -0.04144  -0.03816  -0.01609  -0.01147  -0.00350

 Mulliken charges:
               1
     1  N   -0.726933
     2  H    0.312466
     3  H    0.317108
     4  C   -0.067913
     5  H    0.133057
     6  C    0.652011
     7  C   -0.363185
     8  H    0.147996
     9  H    0.170915
    10  O   -0.537033
    11  C    0.165087
    12  C   -0.197801
    13  H    0.127294
    14  C   -0.180033
    15  H    0.122810
    16  C   -0.127565
    17  H    0.138952
    18  C   -0.127504
    19  H    0.137475
    20  C   -0.130067
    21  H    0.139716
    22  N   -0.608542
    23  H    0.341001
    24  C   -0.061921
    25  H    0.183355
    26  C    0.630953
    27  C   -0.287463
    28  H    0.111127
    29  H    0.169961
    30  O   -0.546600
    31  C   -0.076374
    32  H    0.174958
    33  C   -0.487222
    34  H    0.125293
    35  H    0.177103
    36  H    0.121482
    37  C   -0.466793
    38  H    0.133353
    39  H    0.197849
    40  H    0.151338
    41  N   -0.586129
    42  H    0.341240
    43  C   -0.057034
    44  H    0.213800
    45  C    0.598839
    46  C   -0.406842
    47  H    0.200400
    48  H    0.183705
    49  O   -0.549517
    50  C    0.627679
    51  N   -0.742611
    52  H    0.363183
    53  H    0.352657
    54  O   -0.516458
    55  N   -0.610560
    56  H    0.397475
    57  C   -0.027698
    58  H    0.207867
    59  C    0.573884
    60  C   -0.294290
    61  H    0.134677
    62  H    0.160391
    63  O   -0.435845
    64  C   -0.284752
    65  H    0.190540
    66  H    0.203818
    67  C   -0.193072
    68  H    0.213509
    69  H    0.169756
    70  N   -0.600246
    71  H    0.385808
    72  N   -0.755845
    73  H    0.386133
    74  H    0.390471
    75  N   -0.767795
    76  H    0.382338
    77  H    0.395235
    78  C    0.814590
    79  O   -0.574919
    80  H    0.425906
 Sum of Mulliken charges =   1.00000

 Dipole moment (field-independent basis, Debye):
    X=              3.3911    Y=             16.1949    Z=            -14.0101  Tot=             21.6808
 Quadrupole moment (field-independent basis, Debye-Ang):
   XX=           -191.0465   YY=            -96.2887   ZZ=           -139.6300
   XY=            -16.4718   XZ=            -22.0548   YZ=            -75.9872

 Normal termination of Gaussian 16 at Fri Jun 17 19:10:49 2022.
