 Gaussian 16, Revision C.01,
 Gaussian 16:  ES64L-G16RevC.01  3-Jul-2019

 ----------------------------------------------------------------------
 # B3LYP/6-31G* empiricaldispersion=gd3 guess=read geom=check nosymm in
 tegral(ultrafinegrid)
 ----------------------------------------------------------------------

 ------------------------------------------------------
 Candidate Structure: Conf:315 Charge calc in gas phase
 ------------------------------------------------------
 Structure from the checkpoint file:  "conf-315.chk"
 Charge =  1 Multiplicity = 1

                          Input orientation:
 ---------------------------------------------------------------------
 Center     Atomic      Atomic             Coordinates (Angstroms)
 Number     Number       Type             X           Y           Z
 ---------------------------------------------------------------------
      1          7           0      -10.647921   -2.133250    6.197952
      2          1           0      -10.953982   -2.677977    5.375881
      3          1           0      -11.488254   -1.801865    6.700585
      4          1           0      -10.078690   -2.786747    6.792802
      5          6           0       -9.671360   -1.007917    5.826331
      6          1           0      -10.083838   -0.429305    4.996002
      7          6           0       -8.424649   -1.831050    5.451527
      8          6           0       -9.400050   -0.052824    7.030197
      9          1           0       -8.984694   -0.628339    7.872921
     10          1           0      -10.345521    0.399374    7.379165
     11          8           0       -8.343425   -2.891671    6.111907
     12          6           0       -8.411059    1.001474    6.553343
     13          6           0       -7.048698    0.878190    6.891625
     14          1           0       -6.714814    0.045196    7.508665
     15          6           0       -8.830591    2.060999    5.722630
     16          1           0       -9.879104    2.169401    5.439319
     17          6           0       -6.117747    1.800391    6.415180
     18          1           0       -5.069521    1.691808    6.676235
     19          6           0       -7.894347    2.983097    5.245467
     20          1           0       -8.217622    3.801750    4.605318
     21          6           0       -6.540988    2.852453    5.591471
     22          1           0       -5.817178    3.573291    5.216109
     23          7           0       -7.627112   -1.301723    4.564582
     24          1           0       -7.789014   -0.345027    4.223020
     25          6           0       -6.252780   -1.750492    4.271216
     26          1           0       -5.839030   -2.225948    5.169040
     27          6           0       -5.500769   -0.444313    3.929036
     28          6           0       -6.191872   -2.734219    3.083865
     29          1           0       -5.150651   -2.999386    2.867153
     30          1           0       -6.618557   -2.271800    2.185583
     31          1           0       -6.751961   -3.645344    3.328680
     32          8           0       -6.127165    0.432021    3.320337
     33          7           0       -4.219156   -0.368100    4.349640
     34          1           0       -3.740106   -1.253496    4.539179
     35          6           0       -3.331200    0.659440    3.791171
     36          1           0       -3.927795    1.569541    3.665961
     37          6           0       -2.854147    0.137418    2.402933
     38          6           0       -2.141736    0.925619    4.733301
     39          1           0       -1.472684    1.680113    4.309455
     40          1           0       -1.552752    0.015203    4.884228
     41          1           0       -2.493281    1.280313    5.714250
     42          8           0       -2.781731   -1.092762    2.257729
     43          7           0       -2.580962    1.073723    1.471783
     44          1           0       -2.393066    2.023553    1.812361
     45          6           0       -1.918138    0.764818    0.177539
     46          1           0       -2.274942   -0.221611   -0.134716
     47          6           0       -0.398747    0.726005    0.474451
     48          6           0       -2.341332    1.797843   -0.886739
     49          1           0       -3.442112    1.857829   -0.831449
     50          1           0       -1.936699    2.782710   -0.593831
     51          8           0        0.226498    1.754277    0.654024
     52          6           0       -1.933402    1.420648   -2.304337
     53          6           0       -0.616520    1.585848   -2.781990
     54          1           0        0.134572    2.014609   -2.115443
     55          6           0       -2.880979    0.859576   -3.183760
     56          1           0       -3.915072    0.717482   -2.841518
     57          6           0       -0.245951    1.230770   -4.074274
     58          1           0        0.768057    1.364592   -4.447944
     59          6           0       -2.530786    0.478813   -4.477078
     60          1           0       -3.264567    0.041846   -5.152843
     61          8           0       -0.952956    0.310293   -6.217348
     62          1           0        0.038112    0.173006   -6.361872
     63          6           0       -1.204736    0.654938   -4.946426
     64          7           0        0.109543   -0.523982    0.620805
     65          1           0       -0.504159   -1.310085    0.416985
     66          6           0        1.505516   -0.875258    0.884383
     67          1           0        2.041272    0.060699    1.067765
     68          6           0        2.032748   -1.561638   -0.395847
     69          6           0        1.629697   -1.824158    2.106721
     70          1           0        1.214033   -2.803496    1.807445
     71          1           0        2.706636   -1.977876    2.304718
     72          8           0        1.364471   -2.460830   -0.915126
     73          6           0        0.936957   -1.340801    3.408514
     74          1           0       -0.149864   -1.308612    3.210241
     75          6           0        1.187129   -2.364623    4.540565
     76          1           0        2.259247   -2.428184    4.791315
     77          1           0        0.654422   -2.083397    5.463202
     78          1           0        0.852418   -3.373859    4.253738
     79          6           0        1.399751    0.074709    3.838306
     80          1           0        2.480345    0.083825    4.058943
     81          1           0        1.205782    0.830197    3.061652
     82          1           0        0.885985    0.396355    4.753787
     83          7           0        3.233388   -1.117196   -0.855106
     84          1           0        3.698950   -0.320846   -0.426020
     85          6           0        3.726089   -1.456582   -2.194082
     86          1           0        3.541324   -2.524328   -2.373570
     87          6           0        5.212103   -1.130352   -2.258211
     88          6           0        3.010652   -0.604468   -3.272522
     89          1           0        1.931099   -0.675795   -3.099229
     90          1           0        3.299492    0.443411   -3.131291
     91          8           0        5.727853   -0.128224   -1.754037
     92          6           0        3.324835   -1.015419   -4.716481
     93          1           0        3.078741   -2.081783   -4.880908
     94          1           0        4.391441   -0.855155   -4.936105
     95          6           0        2.491698   -0.074901   -5.672265
     96          8           0        2.721287    1.161484   -5.444032
     97          8           0        1.670410   -0.617065   -6.487608
     98          7           0        5.988414   -2.028517   -2.980102
     99          1           0        5.483435   -2.672648   -3.588442
    100          6           0        7.360507   -1.678427   -3.282645
    101          1           0        7.849008   -1.390995   -2.347858
    102          6           0        7.535977   -0.457735   -4.226502
    103          6           0        8.074784   -2.880372   -3.937992
    104          1           0        7.550476   -3.104901   -4.890882
    105          1           0        7.954883   -3.759488   -3.281196
    106          8           0        8.497411    0.288756   -4.162431
    107          6           0        9.575622   -2.612346   -4.200586
    108          1           0       10.082799   -2.342971   -3.266403
    109          1           0        9.678938   -1.736752   -4.863241
    110          6           0       10.304550   -3.835076   -4.802399
    111          1           0       10.281522   -4.693644   -4.123855
    112          1           0       11.368431   -3.639110   -4.995338
    113          7           0        9.683044   -4.313542   -6.069828
    114          1           0        8.895320   -4.942243   -5.924155
    115          7           0       10.350123   -2.521372   -7.424088
    116          1           0       10.463606   -2.155346   -8.366923
    117          1           0       11.092168   -2.254700   -6.783814
    118          7           0        8.793471   -4.029528   -8.195569
    119          1           0        8.888589   -3.661914   -9.138413
    120          1           0        8.427463   -4.975348   -8.178812
    121          6           0        9.632442   -3.632035   -7.224404
    122          8           0        6.560194   -0.412370   -5.142009
    123          1           0        6.692335    0.372625   -5.729111
 ---------------------------------------------------------------------

 SCF Done:  E(RB3LYP) =  -2974.08110886     A.U. after    1 cycles

 Alpha  occ. eigenvalues --  -19.25961 -19.24546 -19.20681 -19.19807 -19.17306
 Alpha  occ. eigenvalues --  -19.16297 -19.14052 -19.13496 -19.11968 -19.04141
 Alpha  occ. eigenvalues --  -19.03036 -14.60008 -14.53680 -14.53335 -14.53333
 Alpha  occ. eigenvalues --  -14.48391 -14.44564 -14.41802 -14.41261 -14.38677
 Alpha  occ. eigenvalues --  -14.38636 -10.49832 -10.41869 -10.39770 -10.37993
 Alpha  occ. eigenvalues --  -10.37658 -10.36610 -10.34492 -10.33417 -10.33364
 Alpha  occ. eigenvalues --  -10.33091 -10.31313 -10.30940 -10.30639 -10.30498
 Alpha  occ. eigenvalues --  -10.30315 -10.30101 -10.29492 -10.28873 -10.28579
 Alpha  occ. eigenvalues --  -10.28107 -10.28004 -10.27888 -10.26602 -10.26425
 Alpha  occ. eigenvalues --  -10.26117 -10.25603 -10.25584 -10.22745 -10.22443
 Alpha  occ. eigenvalues --  -10.22147 -10.21824 -10.21357 -10.20882 -10.20811
 Alpha  occ. eigenvalues --  -10.17901 -10.17662 -10.17553 -10.16876 -10.16041
 Alpha  occ. eigenvalues --  -10.15753 -10.15023  -1.18252  -1.17358  -1.16295
 Alpha  occ. eigenvalues --   -1.12722  -1.12043  -1.08609  -1.07754  -1.07354
 Alpha  occ. eigenvalues --   -1.07292  -1.06467  -1.06421  -1.05177  -1.04962
 Alpha  occ. eigenvalues --   -1.00709  -1.00396  -0.97678  -0.97532  -0.95659
 Alpha  occ. eigenvalues --   -0.95383  -0.94942  -0.94598  -0.91646  -0.90805
 Alpha  occ. eigenvalues --   -0.87484  -0.87244  -0.85281  -0.84478  -0.83898
 Alpha  occ. eigenvalues --   -0.83696  -0.83409  -0.82792  -0.81166  -0.80012
 Alpha  occ. eigenvalues --   -0.79262  -0.78381  -0.77200  -0.76386  -0.75407
 Alpha  occ. eigenvalues --   -0.75290  -0.73178  -0.72874  -0.72786  -0.72134
 Alpha  occ. eigenvalues --   -0.71960  -0.71613  -0.71376  -0.71321  -0.70073
 Alpha  occ. eigenvalues --   -0.69812  -0.69257  -0.68271  -0.67758  -0.67102
 Alpha  occ. eigenvalues --   -0.66944  -0.66133  -0.65420  -0.65167  -0.64742
 Alpha  occ. eigenvalues --   -0.63714  -0.63143  -0.62420  -0.61769  -0.61726
 Alpha  occ. eigenvalues --   -0.60967  -0.60253  -0.60107  -0.59949  -0.59454
 Alpha  occ. eigenvalues --   -0.59306  -0.58966  -0.58174  -0.57666  -0.57293
 Alpha  occ. eigenvalues --   -0.56409  -0.56231  -0.55984  -0.55591  -0.55565
 Alpha  occ. eigenvalues --   -0.55067  -0.54834  -0.54208  -0.53868  -0.53134
 Alpha  occ. eigenvalues --   -0.52943  -0.52416  -0.51784  -0.51299  -0.51156
 Alpha  occ. eigenvalues --   -0.50645  -0.50554  -0.50463  -0.50387  -0.50249
 Alpha  occ. eigenvalues --   -0.50019  -0.49854  -0.49484  -0.49132  -0.48831
 Alpha  occ. eigenvalues --   -0.48385  -0.48210  -0.47365  -0.46787  -0.46663
 Alpha  occ. eigenvalues --   -0.46407  -0.46255  -0.46016  -0.45782  -0.45722
 Alpha  occ. eigenvalues --   -0.45295  -0.45085  -0.44994  -0.44915  -0.44849
 Alpha  occ. eigenvalues --   -0.44596  -0.44218  -0.44094  -0.43947  -0.43870
 Alpha  occ. eigenvalues --   -0.43686  -0.43456  -0.43272  -0.43187  -0.42680
 Alpha  occ. eigenvalues --   -0.42061  -0.41956  -0.41860  -0.41523  -0.41421
 Alpha  occ. eigenvalues --   -0.41097  -0.40594  -0.40138  -0.39740  -0.39340
 Alpha  occ. eigenvalues --   -0.39224  -0.38913  -0.38565  -0.38214  -0.38100
 Alpha  occ. eigenvalues --   -0.37539  -0.36796  -0.36381  -0.35856  -0.35792
 Alpha  occ. eigenvalues --   -0.35635  -0.35459  -0.35226  -0.34774  -0.34608
 Alpha  occ. eigenvalues --   -0.34438  -0.34032  -0.33941  -0.33516  -0.33204
 Alpha  occ. eigenvalues --   -0.32094  -0.31971  -0.31001  -0.30757  -0.30522
 Alpha  occ. eigenvalues --   -0.29934  -0.29510  -0.28970  -0.28295  -0.27502
 Alpha  occ. eigenvalues --   -0.27267  -0.26308  -0.22749  -0.19407  -0.18404
 Alpha  occ. eigenvalues --   -0.18102  -0.17223
 Alpha virt. eigenvalues --   -0.14073  -0.11681  -0.10499  -0.09998  -0.09945
 Alpha virt. eigenvalues --   -0.09537  -0.06730  -0.06055  -0.05723  -0.05102
 Alpha virt. eigenvalues --   -0.05019  -0.04272  -0.03979  -0.02644  -0.02340

 Mulliken charges:
               1
     1  N   -0.740570
     2  H    0.419859
     3  H    0.407530
     4  H    0.431537
     5  C   -0.128249
     6  H    0.211805
     7  C    0.675926
     8  C   -0.363548
     9  H    0.188791
    10  H    0.179040
    11  O   -0.571918
    12  C    0.128548
    13  C   -0.181207
    14  H    0.144567
    15  C   -0.190944
    16  H    0.135390
    17  C   -0.125012
    18  H    0.157548
    19  C   -0.115519
    20  H    0.163097
    21  C   -0.107543
    22  H    0.157951
    23  N   -0.594420
    24  H    0.384713
    25  C   -0.061042
    26  H    0.179717
    27  C    0.636294
    28  C   -0.450860
    29  H    0.197835
    30  H    0.183049
    31  H    0.170506
    32  O   -0.534780
    33  N   -0.580500
    34  H    0.347500
    35  C   -0.088882
    36  H    0.181601
    37  C    0.643551
    38  C   -0.470901
    39  H    0.182425
    40  H    0.177903
    41  H    0.161268
    42  O   -0.553398
    43  N   -0.590612
    44  H    0.340207
    45  C   -0.059224
    46  H    0.175397
    47  C    0.642919
    48  C   -0.364943
    49  H    0.141681
    50  H    0.153747
    51  O   -0.541993
    52  C    0.147103
    53  C   -0.221109
    54  H    0.133448
    55  C   -0.194616
    56  H    0.092393
    57  C   -0.210275
    58  H    0.207948
    59  C   -0.166313
    60  H    0.114834
    61  O   -0.679579
    62  H    0.442503
    63  C    0.340727
    64  N   -0.583583
    65  H    0.351101
    66  C   -0.076438
    67  H    0.170631
    68  C    0.650676
    69  C   -0.268027
    70  H    0.152577
    71  H    0.134749
    72  O   -0.543598
    73  C   -0.077626
    74  H    0.139574
    75  C   -0.443865
    76  H    0.142724
    77  H    0.128326
    78  H    0.142273
    79  C   -0.471469
    80  H    0.139461
    81  H    0.176718
    82  H    0.128837
    83  N   -0.623413
    84  H    0.347253
    85  C   -0.043201
    86  H    0.158509
    87  C    0.619276
    88  C   -0.269844
    89  H    0.179926
    90  H    0.175386
    91  O   -0.529936
    92  C   -0.366074
    93  H    0.096872
    94  H    0.136188
    95  C    0.564852
    96  O   -0.597061
    97  O   -0.615061
    98  N   -0.618599
    99  H    0.335128
   100  C    0.006073
   101  H    0.202755
   102  C    0.597995
   103  C   -0.320613
   104  H    0.137409
   105  H    0.165560
   106  O   -0.472529
   107  C   -0.285947
   108  H    0.192366
   109  H    0.176609
   110  C   -0.197508
   111  H    0.204379
   112  H    0.185413
   113  N   -0.577450
   114  H    0.371013
   115  N   -0.728023
   116  H    0.385944
   117  H    0.395842
   118  N   -0.735400
   119  H    0.384882
   120  H    0.386088
   121  C    0.796793
   122  O   -0.539635
   123  H    0.431842
 Sum of Mulliken charges =   1.00000

 Dipole moment (field-independent basis, Debye):
    X=             -0.2043    Y=            -23.4670    Z=             12.7619  Tot=             26.7135
 Quadrupole moment (field-independent basis, Debye-Ang):
   XX=            449.3804   YY=           -287.6886   ZZ=            -84.4592
   XY=           -126.0592   XZ=           -528.9186   YZ=            105.9268

 Normal termination of Gaussian 16 at Tue Aug  2 21:47:13 2022.
