 Gaussian 16, Revision C.01,
 Gaussian 16:  ES64L-G16RevC.01  3-Jul-2019

 ----------------------------------------------------------------------
 # B3LYP/6-31G* empiricaldispersion=gd3 guess=read geom=check nosymm in
 tegral(ultrafinegrid)
 ----------------------------------------------------------------------

 ------------------------------------------------------
 Candidate Structure: Conf:234 Charge calc in gas phase
 ------------------------------------------------------
 Structure from the checkpoint file:  "conf-234.chk"
 Charge =  1 Multiplicity = 1

                          Input orientation:
 ---------------------------------------------------------------------
 Center     Atomic      Atomic             Coordinates (Angstroms)
 Number     Number       Type             X           Y           Z
 ---------------------------------------------------------------------
      1          7           0       -9.189602   -1.290217    7.975970
      2          1           0       -9.334120   -2.205920    7.550353
      3          1           0      -10.081211   -0.943591    8.322685
      4          1           0       -8.542636   -1.417633    8.762971
      5          6           0       -8.555454   -0.338546    7.030784
      6          1           0       -9.090586   -0.351486    6.077366
      7          6           0       -7.104962   -0.787317    6.835992
      8          6           0       -8.586436    1.092475    7.588379
      9          1           0       -8.025921    1.100310    8.527265
     10          1           0       -9.629160    1.338251    7.817656
     11          8           0       -6.498806   -1.338672    7.748147
     12          6           0       -8.004034    2.085884    6.614825
     13          6           0       -6.708148    2.574135    6.781801
     14          1           0       -6.108535    2.231949    7.620815
     15          6           0       -8.744499    2.492800    5.504163
     16          1           0       -9.745586    2.092820    5.364006
     17          6           0       -6.173727    3.475689    5.861452
     18          1           0       -5.163275    3.848309    5.999992
     19          6           0       -8.212440    3.394374    4.584775
     20          1           0       -8.804837    3.706460    3.732650
     21          6           0       -6.923522    3.890164    4.763994
     22          1           0       -6.505148    4.591001    4.051219
     23          7           0       -6.570576   -0.496572    5.636843
     24          1           0       -7.073640    0.086391    4.978222
     25          6           0       -5.142777   -0.613180    5.383970
     26          1           0       -4.609143   -0.465406    6.327464
     27          6           0       -4.801236    0.509528    4.410669
     28          6           0       -4.773204   -1.979190    4.805628
     29          1           0       -3.699967   -2.026850    4.602504
     30          1           0       -5.310106   -2.143973    3.868794
     31          1           0       -5.039588   -2.769140    5.510674
     32          8           0       -5.579060    0.839029    3.526603
     33          7           0       -3.590547    1.107066    4.600357
     34          1           0       -2.889936    0.555911    5.072568
     35          6           0       -3.065126    1.971634    3.555250
     36          1           0       -3.914680    2.533509    3.161733
     37          6           0       -2.484222    1.095866    2.437435
     38          6           0       -2.016501    2.916281    4.129634
     39          1           0       -1.641047    3.596034    3.361647
     40          1           0       -1.172719    2.346908    4.529664
     41          1           0       -2.453880    3.505169    4.939118
     42          8           0       -2.063608   -0.040909    2.653031
     43          7           0       -2.466449    1.673307    1.217482
     44          1           0       -2.778149    2.621935    1.111947
     45          6           0       -1.942906    0.990465    0.048221
     46          1           0       -2.382711   -0.008293    0.027549
     47          6           0       -0.424712    0.891388    0.161644
     48          6           0       -2.293104    1.756389   -1.235275
     49          1           0       -1.803494    2.730180   -1.213693
     50          1           0       -1.858314    1.219463   -2.085945
     51          8           0        0.263143    1.913952    0.234008
     52          6           0       -3.764019    1.967569   -1.453250
     53          6           0       -4.681593    0.917448   -1.427278
     54          1           0       -4.331673   -0.093487   -1.253421
     55          6           0       -4.238361    3.254688   -1.700552
     56          1           0       -3.534420    4.078529   -1.752027
     57          6           0       -6.040392    1.139295   -1.640452
     58          1           0       -6.751172    0.321301   -1.623595
     59          6           0       -5.595054    3.495375   -1.905861
     60          1           0       -5.944303    4.505731   -2.098052
     61          8           0       -7.845258    2.601257   -2.069886
     62          1           0       -8.022049    3.534951   -2.225588
     63          6           0       -6.498463    2.433548   -1.873389
     64          7           0        0.130039   -0.339451    0.151803
     65          1           0       -0.456014   -1.153719    0.099771
     66          6           0        1.574291   -0.520630    0.299703
     67          1           0        1.920867    0.304789    0.927570
     68          6           0        2.178076   -0.328910   -1.099414
     69          6           0        1.923531   -1.855112    0.933656
     70          1           0        1.656154   -2.660743    0.246641
     71          1           0        3.011213   -1.899577    1.050015
     72          8           0        2.523710   -1.265737   -1.830871
     73          6           0        1.259186   -2.098359    2.293377
     74          1           0        0.173691   -2.127240    2.142296
     75          6           0        1.706754   -3.452744    2.841750
     76          1           0        2.785948   -3.451903    3.022273
     77          1           0        1.208924   -3.682111    3.788195
     78          1           0        1.481633   -4.260393    2.139274
     79          6           0        1.563411   -0.980965    3.290038
     80          1           0        2.638790   -0.931356    3.493617
     81          1           0        1.235294   -0.004704    2.923687
     82          1           0        1.049738   -1.166012    4.238856
     83          7           0        2.221937    0.960879   -1.486219
     84          1           0        1.806605    1.641945   -0.858523
     85          6           0        2.352982    1.369531   -2.880860
     86          1           0        1.954064    0.552149   -3.498250
     87          6           0        3.819175    1.544973   -3.286929
     88          6           0        1.506427    2.628613   -3.084971
     89          1           0        1.852775    3.433578   -2.430474
     90          1           0        1.634010    2.998710   -4.104036
     91          8           0        4.268024    2.548728   -3.819915
     92          6           0        0.060520    2.288062   -2.754958
     93          1           0        0.034280    1.896087   -1.746210
     94          1           0       -0.342961    1.526735   -3.427495
     95          6           0       -0.944557    3.466219   -2.682867
     96          8           0       -0.479385    4.577468   -2.374276
     97          8           0       -2.140357    3.117218   -2.830791
     98          7           0        4.583104    0.457271   -2.981336
     99          1           0        4.081813   -0.389241   -2.733474
    100          6           0        5.932751    0.338990   -3.470695
    101          1           0        6.354186    1.345010   -3.535641
    102          6           0        5.949837   -0.242441   -4.876820
    103          6           0        6.782234   -0.513090   -2.517334
    104          1           0        6.800603   -0.002869   -1.550413
    105          1           0        7.809637   -0.530063   -2.892582
    106          8           0        5.008769   -0.733014   -5.446724
    107          6           0        6.258671   -1.934580   -2.342410
    108          1           0        6.151402   -2.413879   -3.319545
    109          1           0        5.267927   -1.918434   -1.881570
    110          6           0        7.187606   -2.777664   -1.484580
    111          1           0        7.302055   -2.326098   -0.491315
    112          1           0        8.178097   -2.811769   -1.949911
    113          7           0        6.653549   -4.148947   -1.380846
    114          1           0        5.643672   -4.203087   -1.361120
    115          7           0        8.494669   -4.906713   -0.151854
    116          1           0        9.060525   -5.699418    0.108877
    117          1           0        8.996764   -4.073818   -0.413569
    118          7           0        6.624386   -6.282419   -0.475170
    119          1           0        7.166216   -7.065438   -0.140549
    120          1           0        5.904157   -6.529163   -1.141021
    121          6           0        7.275009   -5.112022   -0.681340
    122          8           0        7.185480   -0.163742   -5.418443
    123          1           0        7.117378   -0.545626   -6.305700
 ---------------------------------------------------------------------

 SCF Done:  E(RB3LYP) =  -2973.97777976     A.U. after    1 cycles

 Alpha  occ. eigenvalues --  -19.24826 -19.24664 -19.19510 -19.18998 -19.17335
 Alpha  occ. eigenvalues --  -19.15753 -19.15735 -19.14542 -19.13490 -19.01970
 Alpha  occ. eigenvalues --  -19.00939 -14.62702 -14.54171 -14.53504 -14.53119
 Alpha  occ. eigenvalues --  -14.47327 -14.42885 -14.40306 -14.39297 -14.37918
 Alpha  occ. eigenvalues --  -14.37902 -10.49749 -10.41773 -10.40311 -10.36666
 Alpha  occ. eigenvalues --  -10.36318 -10.35991 -10.33534 -10.32510 -10.32335
 Alpha  occ. eigenvalues --  -10.31995 -10.31488 -10.30183 -10.29829 -10.29019
 Alpha  occ. eigenvalues --  -10.28669 -10.28655 -10.28353 -10.28198 -10.27569
 Alpha  occ. eigenvalues --  -10.27552 -10.27373 -10.27286 -10.27157 -10.26116
 Alpha  occ. eigenvalues --  -10.24235 -10.24148 -10.23918 -10.23728 -10.23684
 Alpha  occ. eigenvalues --  -10.23527 -10.22950 -10.21981 -10.20031 -10.17662
 Alpha  occ. eigenvalues --  -10.17252 -10.17175 -10.16901 -10.16372 -10.16206
 Alpha  occ. eigenvalues --  -10.16104 -10.13157  -1.18936  -1.18367  -1.15969
 Alpha  occ. eigenvalues --   -1.15657  -1.11834  -1.07928  -1.07461  -1.07438
 Alpha  occ. eigenvalues --   -1.07038  -1.06938  -1.06550  -1.05433  -1.05396
 Alpha  occ. eigenvalues --   -1.04105  -0.99601  -0.96798  -0.96558  -0.96397
 Alpha  occ. eigenvalues --   -0.96172  -0.95874  -0.94921  -0.92726  -0.90830
 Alpha  occ. eigenvalues --   -0.87963  -0.87220  -0.86517  -0.84870  -0.84352
 Alpha  occ. eigenvalues --   -0.83843  -0.83470  -0.82758  -0.81001  -0.80223
 Alpha  occ. eigenvalues --   -0.79560  -0.78396  -0.77702  -0.77062  -0.76227
 Alpha  occ. eigenvalues --   -0.75357  -0.75141  -0.74793  -0.73547  -0.73372
 Alpha  occ. eigenvalues --   -0.73157  -0.71882  -0.71401  -0.71232  -0.69989
 Alpha  occ. eigenvalues --   -0.69968  -0.69431  -0.68809  -0.67941  -0.67353
 Alpha  occ. eigenvalues --   -0.66743  -0.66029  -0.65843  -0.65273  -0.65048
 Alpha  occ. eigenvalues --   -0.63644  -0.63063  -0.62265  -0.62076  -0.61543
 Alpha  occ. eigenvalues --   -0.61328  -0.60936  -0.60746  -0.60421  -0.59823
 Alpha  occ. eigenvalues --   -0.59464  -0.59160  -0.58060  -0.58007  -0.57717
 Alpha  occ. eigenvalues --   -0.56459  -0.56138  -0.55802  -0.55475  -0.54923
 Alpha  occ. eigenvalues --   -0.54844  -0.54163  -0.53664  -0.53580  -0.53417
 Alpha  occ. eigenvalues --   -0.53166  -0.52776  -0.52561  -0.51890  -0.51845
 Alpha  occ. eigenvalues --   -0.51298  -0.50959  -0.50815  -0.50727  -0.50265
 Alpha  occ. eigenvalues --   -0.50202  -0.49912  -0.49725  -0.49393  -0.48503
 Alpha  occ. eigenvalues --   -0.48428  -0.48108  -0.47684  -0.47239  -0.46644
 Alpha  occ. eigenvalues --   -0.46436  -0.46177  -0.46062  -0.45518  -0.45393
 Alpha  occ. eigenvalues --   -0.45283  -0.44993  -0.44637  -0.44595  -0.44426
 Alpha  occ. eigenvalues --   -0.44325  -0.44225  -0.43939  -0.43677  -0.43642
 Alpha  occ. eigenvalues --   -0.43525  -0.43397  -0.43124  -0.43080  -0.42819
 Alpha  occ. eigenvalues --   -0.42360  -0.42232  -0.42035  -0.41675  -0.41614
 Alpha  occ. eigenvalues --   -0.41408  -0.40843  -0.40566  -0.40322  -0.40040
 Alpha  occ. eigenvalues --   -0.39581  -0.39054  -0.38945  -0.38656  -0.37919
 Alpha  occ. eigenvalues --   -0.37685  -0.37643  -0.37471  -0.37348  -0.36999
 Alpha  occ. eigenvalues --   -0.36318  -0.34969  -0.34238  -0.33993  -0.33858
 Alpha  occ. eigenvalues --   -0.33502  -0.33308  -0.32966  -0.32792  -0.32551
 Alpha  occ. eigenvalues --   -0.32396  -0.31111  -0.30821  -0.30575  -0.30321
 Alpha  occ. eigenvalues --   -0.29794  -0.29498  -0.28691  -0.28203  -0.27528
 Alpha  occ. eigenvalues --   -0.26806  -0.25719  -0.23505  -0.20406  -0.17043
 Alpha  occ. eigenvalues --   -0.16182  -0.15864
 Alpha virt. eigenvalues --   -0.15004  -0.12581  -0.10710  -0.10106  -0.09579
 Alpha virt. eigenvalues --   -0.09252  -0.06465  -0.05666  -0.05615  -0.05137
 Alpha virt. eigenvalues --   -0.04670  -0.04246  -0.03942  -0.02501  -0.01982

 Mulliken charges:
               1
     1  N   -0.715180
     2  H    0.430538
     3  H    0.420941
     4  H    0.425126
     5  C   -0.149312
     6  H    0.218902
     7  C    0.634266
     8  C   -0.372543
     9  H    0.187053
    10  H    0.174370
    11  O   -0.530945
    12  C    0.152194
    13  C   -0.182685
    14  H    0.141807
    15  C   -0.195024
    16  H    0.126642
    17  C   -0.125569
    18  H    0.158854
    19  C   -0.114237
    20  H    0.167118
    21  C   -0.107485
    22  H    0.168683
    23  N   -0.588748
    24  H    0.370541
    25  C   -0.050357
    26  H    0.177459
    27  C    0.620392
    28  C   -0.447562
    29  H    0.185148
    30  H    0.180515
    31  H    0.165236
    32  O   -0.516563
    33  N   -0.584398
    34  H    0.334755
    35  C   -0.091662
    36  H    0.189555
    37  C    0.647925
    38  C   -0.457485
    39  H    0.190480
    40  H    0.158724
    41  H    0.156149
    42  O   -0.571579
    43  N   -0.577298
    44  H    0.343344
    45  C   -0.032116
    46  H    0.129281
    47  C    0.654596
    48  C   -0.394311
    49  H    0.200992
    50  H    0.177584
    51  O   -0.547791
    52  C    0.190354
    53  C   -0.190568
    54  H    0.090984
    55  C   -0.144951
    56  H    0.180605
    57  C   -0.171471
    58  H    0.104928
    59  C   -0.221832
    60  H    0.102687
    61  O   -0.660951
    62  H    0.399235
    63  C    0.343649
    64  N   -0.594288
    65  H    0.337170
    66  C   -0.063520
    67  H    0.179802
    68  C    0.622082
    69  C   -0.278499
    70  H    0.145057
    71  H    0.116852
    72  O   -0.587526
    73  C   -0.075325
    74  H    0.147769
    75  C   -0.439951
    76  H    0.125021
    77  H    0.144973
    78  H    0.133023
    79  C   -0.447723
    80  H    0.127291
    81  H    0.174295
    82  H    0.138089
    83  N   -0.601024
    84  H    0.391479
    85  C   -0.078841
    86  H    0.178454
    87  C    0.629424
    88  C   -0.279325
    89  H    0.165315
    90  H    0.160427
    91  O   -0.513325
    92  C   -0.376610
    93  H    0.148973
    94  H    0.116446
    95  C    0.570033
    96  O   -0.591595
    97  O   -0.601349
    98  N   -0.634251
    99  H    0.379009
   100  C   -0.048885
   101  H    0.212632
   102  C    0.586710
   103  C   -0.285087
   104  H    0.167041
   105  H    0.162196
   106  O   -0.451978
   107  C   -0.334286
   108  H    0.182579
   109  H    0.186912
   110  C   -0.166468
   111  H    0.190517
   112  H    0.179929
   113  N   -0.585207
   114  H    0.380864
   115  N   -0.729383
   116  H    0.381529
   117  H    0.396672
   118  N   -0.730231
   119  H    0.375900
   120  H    0.387957
   121  C    0.769394
   122  O   -0.570819
   123  H    0.414695
 Sum of Mulliken charges =   1.00000

 Dipole moment (field-independent basis, Debye):
    X=             -1.0056    Y=            -33.6746    Z=             37.5154  Tot=             50.4222
 Quadrupole moment (field-independent basis, Debye-Ang):
   XX=            203.7373   YY=           -267.4602   ZZ=           -162.9182
   XY=           -143.0377   XZ=           -306.7567   YZ=             35.0761

 Normal termination of Gaussian 16 at Tue Aug  2 21:52:24 2022.
