 Gaussian 16, Revision C.01,
 Gaussian 16:  ES64L-G16RevC.01  3-Jul-2019

 ----------------------------------------------------------------------
 # B3LYP/6-31G* empiricaldispersion=gd3 guess=read geom=check nosymm in
 tegral(ultrafinegrid)
 ----------------------------------------------------------------------

 ------------------------------------------------------
 Candidate Structure: Conf:472 Charge calc in gas phase
 ------------------------------------------------------
 Structure from the checkpoint file:  "conf-472.chk"
 Charge =  1 Multiplicity = 1

                          Input orientation:
 ---------------------------------------------------------------------
 Center     Atomic      Atomic             Coordinates (Angstroms)
 Number     Number       Type             X           Y           Z
 ---------------------------------------------------------------------
      1          7           0       -3.809366    4.933077    3.004472
      2          1           0       -3.523610    4.681181    1.399618
      3          1           0       -3.227547    5.684011    3.375023
      4          1           0       -4.779295    5.179941    3.211586
      5          6           0       -3.505534    3.662443    3.686297
      6          1           0       -2.557959    3.300631    3.281305
      7          6           0       -4.626197    2.696346    3.298023
      8          6           0       -3.366283    3.774730    5.233741
      9          1           0       -2.401881    4.260571    5.431610
     10          1           0       -3.291103    2.757920    5.639598
     11          8           0       -5.809040    3.013854    3.404927
     12          6           0       -4.466562    4.549865    5.922631
     13          6           0       -4.322385    5.925741    6.147696
     14          1           0       -3.395091    6.421294    5.864597
     15          6           0       -5.656465    3.928396    6.323211
     16          1           0       -5.790564    2.866100    6.143200
     17          6           0       -5.340856    6.666483    6.750407
     18          1           0       -5.207990    7.731541    6.919918
     19          6           0       -6.674439    4.662608    6.929653
     20          1           0       -7.590313    4.163691    7.234269
     21          6           0       -6.521330    6.034678    7.142940
     22          1           0       -7.314977    6.605706    7.616579
     23          7           0       -4.224155    1.466345    2.881545
     24          1           0       -3.276487    1.331958    2.547179
     25          6           0       -5.203142    0.484124    2.454647
     26          1           0       -6.019990    0.494751    3.185402
     27          6           0       -4.524490   -0.886483    2.440992
     28          6           0       -5.775992    0.818989    1.059515
     29          1           0       -6.559219    0.109690    0.766011
     30          1           0       -4.972422    0.806684    0.316457
     31          1           0       -6.219252    1.816641    1.098307
     32          8           0       -3.305391   -1.021595    2.517506
     33          7           0       -5.339591   -1.959329    2.217564
     34          1           0       -6.344547   -1.849588    2.246868
     35          6           0       -4.767204   -3.283364    1.966381
     36          1           0       -4.165039   -3.592535    2.825879
     37          6           0       -3.769676   -3.213898    0.790121
     38          6           0       -5.876522   -4.302708    1.698072
     39          1           0       -5.435414   -5.283757    1.502847
     40          1           0       -6.472389   -4.016537    0.824079
     41          1           0       -6.539688   -4.391917    2.565261
     42          8           0       -2.718663   -3.848385    0.802731
     43          7           0       -4.158927   -2.419975   -0.253968
     44          1           0       -4.943855   -1.806603   -0.066848
     45          6           0       -3.155154   -1.866199   -1.168042
     46          1           0       -2.507120   -2.693605   -1.466653
     47          6           0       -2.344404   -0.824541   -0.372795
     48          6           0       -3.815788   -1.235562   -2.399908
     49          1           0       -4.310200   -2.036001   -2.964860
     50          1           0       -4.601075   -0.551145   -2.059294
     51          8           0       -2.699290    0.350808   -0.278932
     52          6           0       -2.845548   -0.457843   -3.270066
     53          6           0       -3.142316    0.861716   -3.643001
     54          1           0       -4.072211    1.311992   -3.304636
     55          6           0       -1.636070   -1.000471   -3.718053
     56          1           0       -1.371696   -2.024613   -3.464714
     57          6           0       -2.273351    1.617050   -4.420925
     58          1           0       -2.508122    2.639923   -4.697703
     59          6           0       -0.745969   -0.255981   -4.499711
     60          1           0        0.176188   -0.705047   -4.861805
     61          8           0       -0.233419    1.866997   -5.570282
     62          1           0        0.628933    1.430050   -5.712533
     63          6           0       -1.056648    1.068011   -4.849975
     64          7           0       -1.251922   -1.335497    0.240004
     65          1           0       -1.139987   -2.342059    0.234899
     66          6           0       -0.330642   -0.526003    1.033906
     67          1           0       -0.918723    0.166445    1.642693
     68          6           0        0.491192    0.233780   -0.027181
     69          6           0        0.547050   -1.425234    1.899336
     70          1           0        1.057659   -2.117713    1.217089
     71          1           0        1.331398   -0.797172    2.345532
     72          8           0        1.383354   -0.342804   -0.668324
     73          6           0       -0.176160   -2.195950    3.019813
     74          1           0       -1.072024   -2.670600    2.600044
     75          6           0        0.740141   -3.304771    3.558493
     76          1           0        1.657056   -2.875364    3.997771
     77          1           0        0.256170   -3.880681    4.353968
     78          1           0        1.021226   -4.016573    2.769406
     79          6           0       -0.618018   -1.263900    4.156101
     80          1           0        0.248544   -0.756532    4.604333
     81          1           0       -1.325080   -0.509863    3.804600
     82          1           0       -1.119454   -1.830445    4.948382
     83          7           0        0.059365    1.480989   -0.269231
     84          1           0       -0.692555    1.855581    0.319209
     85          6           0        0.174008    2.112096   -1.582073
     86          1           0       -0.353926    1.476076   -2.302548
     87          6           0        1.644382    2.242667   -2.005824
     88          6           0       -0.497730    3.493007   -1.579343
     89          1           0        0.046604    4.147011   -0.890458
     90          1           0       -0.363261    3.906581   -2.584420
     91          8           0        2.436800    2.982284   -1.434322
     92          6           0       -2.015611    3.473631   -1.266720
     93          1           0       -2.446168    2.510161   -1.564560
     94          1           0       -2.525099    4.250245   -1.841082
     95          6           0       -2.365432    3.665777    0.198151
     96          8           0       -1.801496    3.050185    1.110105
     97          8           0       -3.329778    4.537361    0.392926
     98          7           0        1.968992    1.480540   -3.094273
     99          1           0        1.311639    0.755584   -3.355470
    100          6           0        3.331833    1.313947   -3.546626
    101          1           0        3.880382    2.227064   -3.297552
    102          6           0        3.345869    1.127311   -5.056982
    103          6           0        4.022640    0.090389   -2.883768
    104          1           0        4.945699   -0.151216   -3.422104
    105          1           0        3.342564   -0.763458   -2.998308
    106          8           0        2.388983    0.810138   -5.739922
    107          6           0        4.313852    0.333803   -1.394873
    108          1           0        3.522649    0.940382   -0.956457
    109          1           0        5.257684    0.885955   -1.289570
    110          6           0        4.369735   -0.976943   -0.613807
    111          1           0        5.184779   -1.627642   -0.955218
    112          1           0        3.406266   -1.480350   -0.728858
    113          7           0        4.546921   -0.678460    0.821793
    114          1           0        4.970822    0.212237    1.052490
    115          7           0        3.745573   -2.701189    1.643852
    116          1           0        3.065647   -3.128494    2.260468
    117          1           0        3.853487   -3.123991    0.733072
    118          7           0        4.033138   -0.902189    3.070701
    119          1           0        3.821046   -1.492575    3.862459
    120          1           0        3.981840    0.096575    3.213128
    121          6           0        4.095381   -1.418363    1.827426
    122          8           0        4.577339    1.288099   -5.561228
    123          1           0        4.528726    1.124761   -6.523401
 ---------------------------------------------------------------------

 SCF Done:  E(RB3LYP) =  -2974.25970946     A.U. after    1 cycles

 Alpha  occ. eigenvalues --  -19.29600 -19.24541 -19.22731 -19.22436 -19.20841
 Alpha  occ. eigenvalues --  -19.20128 -19.19658 -19.19405 -19.19241 -19.18834
 Alpha  occ. eigenvalues --  -19.17939 -14.52342 -14.52251 -14.52061 -14.45289
 Alpha  occ. eigenvalues --  -14.44147 -14.43660 -14.43585 -14.42491 -14.41976
 Alpha  occ. eigenvalues --  -14.40978 -10.48511 -10.42328 -10.37662 -10.37566
 Alpha  occ. eigenvalues --  -10.37005 -10.36076 -10.36031 -10.35950 -10.34905
 Alpha  occ. eigenvalues --  -10.34715 -10.33025 -10.31979 -10.31102 -10.31098
 Alpha  occ. eigenvalues --  -10.31061 -10.31009 -10.29948 -10.29198 -10.29025
 Alpha  occ. eigenvalues --  -10.28926 -10.27731 -10.27459 -10.27256 -10.27101
 Alpha  occ. eigenvalues --  -10.26661 -10.25968 -10.25933 -10.25775 -10.25638
 Alpha  occ. eigenvalues --  -10.25392 -10.25321 -10.25307 -10.25101 -10.24731
 Alpha  occ. eigenvalues --  -10.24694 -10.24587 -10.23953 -10.23711 -10.23573
 Alpha  occ. eigenvalues --  -10.23535 -10.23492  -1.20808  -1.17058  -1.14789
 Alpha  occ. eigenvalues --   -1.13123  -1.11959  -1.11832  -1.11353  -1.10883
 Alpha  occ. eigenvalues --   -1.10804  -1.10137  -1.09950  -1.06238  -1.05981
 Alpha  occ. eigenvalues --   -1.05239  -1.02044  -1.00787  -1.00603  -1.00012
 Alpha  occ. eigenvalues --   -0.99234  -0.99130  -0.97203  -0.91827  -0.90820
 Alpha  occ. eigenvalues --   -0.90250  -0.89810  -0.87295  -0.87045  -0.85682
 Alpha  occ. eigenvalues --   -0.85487  -0.83824  -0.83328  -0.82658  -0.81139
 Alpha  occ. eigenvalues --   -0.80888  -0.79380  -0.79173  -0.79093  -0.77867
 Alpha  occ. eigenvalues --   -0.77652  -0.76856  -0.74714  -0.74528  -0.74298
 Alpha  occ. eigenvalues --   -0.73142  -0.72383  -0.71836  -0.71528  -0.70675
 Alpha  occ. eigenvalues --   -0.69973  -0.68785  -0.68581  -0.67440  -0.67209
 Alpha  occ. eigenvalues --   -0.66494  -0.66068  -0.65791  -0.65401  -0.65304
 Alpha  occ. eigenvalues --   -0.64949  -0.64876  -0.64834  -0.64479  -0.63674
 Alpha  occ. eigenvalues --   -0.63380  -0.61361  -0.61107  -0.61017  -0.60445
 Alpha  occ. eigenvalues --   -0.60099  -0.59614  -0.59275  -0.59069  -0.58512
 Alpha  occ. eigenvalues --   -0.57522  -0.57180  -0.57001  -0.56592  -0.56248
 Alpha  occ. eigenvalues --   -0.55843  -0.55632  -0.55540  -0.55117  -0.54885
 Alpha  occ. eigenvalues --   -0.54843  -0.54453  -0.53831  -0.53340  -0.53066
 Alpha  occ. eigenvalues --   -0.52684  -0.52364  -0.52172  -0.52013  -0.51469
 Alpha  occ. eigenvalues --   -0.51422  -0.51180  -0.50926  -0.50803  -0.50609
 Alpha  occ. eigenvalues --   -0.50528  -0.50227  -0.49755  -0.49609  -0.49523
 Alpha  occ. eigenvalues --   -0.49069  -0.48859  -0.48750  -0.48643  -0.48444
 Alpha  occ. eigenvalues --   -0.48319  -0.47943  -0.47727  -0.47497  -0.47378
 Alpha  occ. eigenvalues --   -0.47182  -0.46958  -0.46843  -0.46544  -0.46362
 Alpha  occ. eigenvalues --   -0.46080  -0.45936  -0.45711  -0.45377  -0.45204
 Alpha  occ. eigenvalues --   -0.45107  -0.44942  -0.44624  -0.44413  -0.44263
 Alpha  occ. eigenvalues --   -0.44147  -0.43914  -0.43636  -0.43547  -0.43408
 Alpha  occ. eigenvalues --   -0.43129  -0.42722  -0.42297  -0.42165  -0.42050
 Alpha  occ. eigenvalues --   -0.41764  -0.41695  -0.41253  -0.41207  -0.40966
 Alpha  occ. eigenvalues --   -0.40588  -0.40416  -0.40295  -0.39613  -0.38826
 Alpha  occ. eigenvalues --   -0.38599  -0.38541  -0.37741  -0.36636  -0.36172
 Alpha  occ. eigenvalues --   -0.35704  -0.35250  -0.34501  -0.34150  -0.33758
 Alpha  occ. eigenvalues --   -0.33464  -0.33367  -0.33051  -0.32364  -0.32062
 Alpha  occ. eigenvalues --   -0.31700  -0.31529  -0.31378  -0.30981  -0.29614
 Alpha  occ. eigenvalues --   -0.28816  -0.27721
 Alpha virt. eigenvalues --   -0.12837  -0.09454  -0.08671  -0.07933  -0.07301
 Alpha virt. eigenvalues --   -0.06618  -0.05946  -0.05584  -0.05319  -0.05300
 Alpha virt. eigenvalues --   -0.04828  -0.04790  -0.04550  -0.04295  -0.04254

 Mulliken charges:
               1
     1  N   -0.787098
     2  H    0.475358
     3  H    0.328484
     4  H    0.357452
     5  C   -0.055176
     6  H    0.173563
     7  C    0.626920
     8  C   -0.380594
     9  H    0.150537
    10  H    0.157750
    11  O   -0.531902
    12  C    0.175763
    13  C   -0.201835
    14  H    0.114503
    15  C   -0.146802
    16  H    0.126506
    17  C   -0.126586
    18  H    0.137139
    19  C   -0.130677
    20  H    0.136923
    21  C   -0.128959
    22  H    0.139525
    23  N   -0.613227
    24  H    0.368282
    25  C   -0.044825
    26  H    0.183611
    27  C    0.622117
    28  C   -0.491015
    29  H    0.128514
    30  H    0.195770
    31  H    0.203348
    32  O   -0.524186
    33  N   -0.643298
    34  H    0.343676
    35  C   -0.008839
    36  H    0.188816
    37  C    0.628558
    38  C   -0.490615
    39  H    0.193676
    40  H    0.163841
    41  H    0.174005
    42  O   -0.544647
    43  N   -0.589394
    44  H    0.341145
    45  C   -0.070286
    46  H    0.172191
    47  C    0.665355
    48  C   -0.360874
    49  H    0.172281
    50  H    0.154384
    51  O   -0.558353
    52  C    0.170494
    53  C   -0.189298
    54  H    0.138638
    55  C   -0.184609
    56  H    0.127391
    57  C   -0.166623
    58  H    0.150229
    59  C   -0.240461
    60  H    0.139910
    61  O   -0.672035
    62  H    0.453742
    63  C    0.351054
    64  N   -0.599633
    65  H    0.358910
    66  C   -0.036600
    67  H    0.185413
    68  C    0.617470
    69  C   -0.308701
    70  H    0.127089
    71  H    0.112658
    72  O   -0.591495
    73  C   -0.081408
    74  H    0.185389
    75  C   -0.459526
    76  H    0.092533
    77  H    0.177505
    78  H    0.139512
    79  C   -0.448247
    80  H    0.111162
    81  H    0.181279
    82  H    0.152681
    83  N   -0.624702
    84  H    0.425091
    85  C   -0.061064
    86  H    0.178903
    87  C    0.648334
    88  C   -0.306014
    89  H    0.181619
    90  H    0.172461
    91  O   -0.543174
    92  C   -0.394813
    93  H    0.220215
    94  H    0.177782
    95  C    0.614652
    96  O   -0.535693
    97  O   -0.593939
    98  N   -0.598217
    99  H    0.352595
   100  C   -0.063139
   101  H    0.214112
   102  C    0.605365
   103  C   -0.278335
   104  H    0.172218
   105  H    0.158597
   106  O   -0.486665
   107  C   -0.311366
   108  H    0.220333
   109  H    0.152730
   110  C   -0.155553
   111  H    0.174557
   112  H    0.212156
   113  N   -0.596197
   114  H    0.367567
   115  N   -0.752502
   116  H    0.386649
   117  H    0.387044
   118  N   -0.759822
   119  H    0.387326
   120  H    0.384041
   121  C    0.818531
   122  O   -0.548214
   123  H    0.431300
 Sum of Mulliken charges =   1.00000

 Dipole moment (field-independent basis, Debye):
    X=              7.6571    Y=             -6.2806    Z=              6.6306  Tot=             11.9182
 Quadrupole moment (field-independent basis, Debye-Ang):
   XX=           -236.7747   YY=           -325.4622   ZZ=           -301.3657
   XY=             -5.3380   XZ=            -16.8735   YZ=              2.5431

 Normal termination of Gaussian 16 at Tue Aug  2 21:47:35 2022.
