 Gaussian 16, Revision C.01,
 Gaussian 16:  ES64L-G16RevC.01  3-Jul-2019

 ----------------------------------------------------------------------
 # B3LYP/6-31G* empiricaldispersion=gd3 guess=read geom=check nosymm in
 tegral(ultrafinegrid)
 ----------------------------------------------------------------------

 ------------------------------------------------------
 Candidate Structure: Conf:549 Charge calc in gas phase
 ------------------------------------------------------
 Structure from the checkpoint file:  "conf-549.chk"
 Charge =  1 Multiplicity = 1

                          Input orientation:
 ---------------------------------------------------------------------
 Center     Atomic      Atomic             Coordinates (Angstroms)
 Number     Number       Type             X           Y           Z
 ---------------------------------------------------------------------
      1          7           0      -10.311241    4.841905    2.549619
      2          1           0      -10.887525    4.945220    1.711652
      3          1           0      -10.332006    5.723828    3.070903
      4          1           0      -10.662540    4.052943    3.180961
      5          6           0       -8.889144    4.383586    2.265223
      6          1           0       -8.896185    3.953224    1.260063
      7          6           0       -8.714329    3.220731    3.285434
      8          6           0       -7.897588    5.557161    2.327173
      9          1           0       -7.807154    5.899378    3.365427
     10          1           0       -8.325698    6.386330    1.746373
     11          8           0       -9.742995    2.835266    3.874434
     12          6           0       -6.538585    5.189380    1.765380
     13          6           0       -5.409069    5.151924    2.591207
     14          1           0       -5.501714    5.389794    3.648183
     15          6           0       -6.402295    4.874929    0.404754
     16          1           0       -7.266671    4.924980   -0.256450
     17          6           0       -4.165436    4.798824    2.067155
     18          1           0       -3.295421    4.758592    2.711020
     19          6           0       -5.158408    4.519707   -0.114939
     20          1           0       -5.062589    4.281434   -1.170284
     21          6           0       -4.035738    4.476676    0.716440
     22          1           0       -3.065543    4.194358    0.321276
     23          7           0       -7.513660    2.683507    3.438692
     24          1           0       -6.679536    3.056612    2.981024
     25          6           0       -7.295918    1.512851    4.292565
     26          1           0       -7.841509    1.666108    5.229962
     27          6           0       -5.783737    1.440120    4.552100
     28          6           0       -7.790097    0.228044    3.601649
     29          1           0       -7.683520   -0.636154    4.262918
     30          1           0       -7.198619    0.028659    2.704578
     31          1           0       -8.847050    0.335099    3.343953
     32          8           0       -4.999169    2.128385    3.904763
     33          7           0       -5.392728    0.551137    5.503223
     34          1           0       -6.088654   -0.112210    5.820594
     35          6           0       -4.020739    0.047624    5.465857
     36          1           0       -3.350267    0.895649    5.636126
     37          6           0       -3.759554   -0.541563    4.057232
     38          6           0       -3.820032   -1.014086    6.549015
     39          1           0       -2.783618   -1.363306    6.547216
     40          1           0       -4.467264   -1.879052    6.361392
     41          1           0       -4.046124   -0.606820    7.539422
     42          8           0       -4.669190   -1.047429    3.401812
     43          7           0       -2.484398   -0.452543    3.628836
     44          1           0       -1.762568   -0.006347    4.185424
     45          6           0       -2.097439   -0.753406    2.261837
     46          1           0       -2.413428   -1.776111    2.019580
     47          6           0       -0.564553   -0.642181    2.220797
     48          6           0       -2.744732    0.239242    1.237938
     49          1           0       -2.806043   -0.261271    0.262652
     50          1           0       -3.777853    0.392626    1.565088
     51          8           0        0.078737   -0.295634    3.200265
     52          6           0       -1.978965    1.535125    1.097137
     53          6           0       -1.753440    2.384584    2.193346
     54          1           0       -2.240181    2.173064    3.141112
     55          6           0       -1.385437    1.886823   -0.123341
     56          1           0       -1.550324    1.257140   -0.998036
     57          6           0       -0.932372    3.501345    2.086018
     58          1           0       -0.735813    4.137065    2.944565
     59          6           0       -0.592679    3.022929   -0.260280
     60          1           0       -0.166876    3.291880   -1.218742
     61          8           0        0.456501    4.918818    0.816904
     62          1           0        0.992167    4.944276   -0.052196
     63          6           0       -0.320444    3.840226    0.860116
     64          7           0        0.027879   -0.936741    1.008188
     65          1           0       -0.611052   -0.968102    0.218905
     66          6           0        1.300871   -0.247999    0.671103
     67          1           0        1.230589    0.788673    1.012227
     68          6           0        1.449288   -0.296381   -0.844327
     69          6           0        2.517166   -0.941587    1.326911
     70          1           0        2.247505   -1.146863    2.368771
     71          1           0        2.675785   -1.905798    0.823987
     72          8           0        1.016812   -1.281767   -1.498532
     73          6           0        3.831276   -0.136781    1.300617
     74          1           0        4.079847    0.083329    0.256322
     75          6           0        3.719097    1.181802    2.082315
     76          1           0        3.358996    0.998511    3.103454
     77          1           0        4.701686    1.661470    2.153273
     78          1           0        3.056024    1.905909    1.600987
     79          6           0        4.957964   -1.015743    1.863490
     80          1           0        4.761424   -1.289603    2.909198
     81          1           0        5.072281   -1.939571    1.282687
     82          1           0        5.914943   -0.483739    1.834303
     83          7           0        2.105564    0.715680   -1.382518
     84          1           0        2.378547    1.570784   -0.827272
     85          6           0        2.617976    0.697632   -2.742995
     86          1           0        1.778919    0.721502   -3.453455
     87          6           0        3.424767   -0.598241   -2.933565
     88          6           0        3.528796    1.923437   -2.969757
     89          1           0        4.336256    1.885477   -2.231001
     90          1           0        3.986112    1.807135   -3.960215
     91          8           0        4.205271   -1.010042   -2.081816
     92          6           0        2.813435    3.280389   -2.895798
     93          1           0        1.921065    3.286399   -3.535503
     94          1           0        3.471434    4.055676   -3.306901
     95          6           0        2.383873    3.766912   -1.489888
     96          8           0        1.696386    4.822298   -1.479737
     97          8           0        2.712349    3.084191   -0.475676
     98          7           0        3.224164   -1.248129   -4.113224
     99          1           0        2.536573   -0.903258   -4.766729
    100          6           0        3.807439   -2.562931   -4.333219
    101          1           0        4.883886   -2.487061   -4.128295
    102          6           0        3.677723   -3.010070   -5.784149
    103          6           0        3.227567   -3.627669   -3.379058
    104          1           0        3.467544   -3.302119   -2.363695
    105          1           0        3.746404   -4.573358   -3.568583
    106          8           0        3.768149   -4.162641   -6.140622
    107          6           0        1.715595   -3.819431   -3.537345
    108          1           0        1.498262   -4.287940   -4.504062
    109          1           0        1.207744   -2.848581   -3.512919
    110          6           0        1.123403   -4.711070   -2.443754
    111          1           0        1.737942   -5.616501   -2.361838
    112          1           0        0.102545   -5.020612   -2.701458
    113          7           0        1.098186   -4.003656   -1.153418
    114          1           0        1.070585   -2.962393   -1.190122
    115          7           0        1.129615   -5.910608    0.194633
    116          1           0        0.814662   -6.362901    1.039120
    117          1           0        1.420583   -6.501631   -0.567377
    118          7           0        0.642495   -3.848314    1.116061
    119          1           0        0.952353   -4.164551    2.025075
    120          1           0        0.490014   -2.834345    1.029415
    121          6           0        0.967679   -4.579489    0.031782
    122          8           0        3.460103   -1.984086   -6.639323
    123          1           0        3.419671   -2.370291   -7.535335
 ---------------------------------------------------------------------

 SCF Done:  E(RB3LYP) =  -2974.20856019     A.U. after    3 cycles

 Alpha  occ. eigenvalues --  -19.26980 -19.26276 -19.21695 -19.20911 -19.20437
 Alpha  occ. eigenvalues --  -19.18996 -19.18763 -19.17073 -19.16031 -19.11271
 Alpha  occ. eigenvalues --  -19.11108 -14.59264 -14.48667 -14.48606 -14.46680
 Alpha  occ. eigenvalues --  -14.46587 -14.45081 -14.43801 -14.43067 -14.42302
 Alpha  occ. eigenvalues --  -14.40092 -10.43963 -10.42986 -10.40176 -10.39225
 Alpha  occ. eigenvalues --  -10.38455 -10.36997 -10.35882 -10.34897 -10.34198
 Alpha  occ. eigenvalues --  -10.34089 -10.33139 -10.32503 -10.31716 -10.30964
 Alpha  occ. eigenvalues --  -10.30749 -10.29293 -10.29272 -10.29101 -10.28498
 Alpha  occ. eigenvalues --  -10.27778 -10.27471 -10.27316 -10.27226 -10.26883
 Alpha  occ. eigenvalues --  -10.26791 -10.26601 -10.26074 -10.25808 -10.25496
 Alpha  occ. eigenvalues --  -10.25392 -10.23475 -10.22978 -10.22913 -10.22834
 Alpha  occ. eigenvalues --  -10.22601 -10.21794 -10.21322 -10.21142 -10.21004
 Alpha  occ. eigenvalues --  -10.20528 -10.18911  -1.18730  -1.17734  -1.13812
 Alpha  occ. eigenvalues --   -1.13031  -1.12497  -1.12344  -1.10538  -1.10136
 Alpha  occ. eigenvalues --   -1.08870  -1.08672  -1.05557  -1.05280  -1.04133
 Alpha  occ. eigenvalues --   -1.01755  -1.01712  -1.00701  -0.99808  -0.99718
 Alpha  occ. eigenvalues --   -0.98879  -0.98041  -0.95468  -0.95261  -0.91515
 Alpha  occ. eigenvalues --   -0.88984  -0.88157  -0.87928  -0.86215  -0.85193
 Alpha  occ. eigenvalues --   -0.84051  -0.83825  -0.83033  -0.82470  -0.82291
 Alpha  occ. eigenvalues --   -0.79364  -0.78563  -0.77961  -0.77325  -0.77088
 Alpha  occ. eigenvalues --   -0.76312  -0.75028  -0.74184  -0.73994  -0.73328
 Alpha  occ. eigenvalues --   -0.71843  -0.71338  -0.70900  -0.70683  -0.70630
 Alpha  occ. eigenvalues --   -0.69692  -0.69534  -0.68785  -0.68072  -0.67147
 Alpha  occ. eigenvalues --   -0.66507  -0.66406  -0.66208  -0.65167  -0.65036
 Alpha  occ. eigenvalues --   -0.64767  -0.64394  -0.64114  -0.63443  -0.62672
 Alpha  occ. eigenvalues --   -0.61964  -0.61529  -0.61247  -0.60543  -0.59874
 Alpha  occ. eigenvalues --   -0.59812  -0.59085  -0.59029  -0.58428  -0.57554
 Alpha  occ. eigenvalues --   -0.57178  -0.56476  -0.56392  -0.56026  -0.55805
 Alpha  occ. eigenvalues --   -0.55714  -0.55506  -0.55085  -0.55052  -0.54640
 Alpha  occ. eigenvalues --   -0.54117  -0.54063  -0.53824  -0.53411  -0.52930
 Alpha  occ. eigenvalues --   -0.52470  -0.52265  -0.51975  -0.51553  -0.51328
 Alpha  occ. eigenvalues --   -0.51116  -0.50457  -0.50237  -0.50123  -0.49929
 Alpha  occ. eigenvalues --   -0.49770  -0.49728  -0.49617  -0.49348  -0.48973
 Alpha  occ. eigenvalues --   -0.48689  -0.48675  -0.48028  -0.47774  -0.47374
 Alpha  occ. eigenvalues --   -0.47184  -0.47118  -0.46676  -0.46544  -0.46453
 Alpha  occ. eigenvalues --   -0.46238  -0.46045  -0.45997  -0.45729  -0.45424
 Alpha  occ. eigenvalues --   -0.45349  -0.45068  -0.44632  -0.44492  -0.44195
 Alpha  occ. eigenvalues --   -0.43956  -0.43102  -0.43029  -0.42884  -0.42636
 Alpha  occ. eigenvalues --   -0.42187  -0.42145  -0.42050  -0.41770  -0.41706
 Alpha  occ. eigenvalues --   -0.41567  -0.41093  -0.40900  -0.40473  -0.40108
 Alpha  occ. eigenvalues --   -0.39833  -0.39738  -0.39114  -0.38846  -0.38598
 Alpha  occ. eigenvalues --   -0.38513  -0.38287  -0.36728  -0.36373  -0.36330
 Alpha  occ. eigenvalues --   -0.36104  -0.35942  -0.35757  -0.35588  -0.35179
 Alpha  occ. eigenvalues --   -0.34642  -0.34344  -0.34125  -0.33236  -0.33005
 Alpha  occ. eigenvalues --   -0.32883  -0.32631  -0.32587  -0.32179  -0.32119
 Alpha  occ. eigenvalues --   -0.31581  -0.30146  -0.28597  -0.26937  -0.25845
 Alpha  occ. eigenvalues --   -0.25364  -0.23651
 Alpha virt. eigenvalues --   -0.12313  -0.10171  -0.08936  -0.08490  -0.08308
 Alpha virt. eigenvalues --   -0.07743  -0.07114  -0.06339  -0.05505  -0.04966
 Alpha virt. eigenvalues --   -0.04713  -0.04238  -0.03547  -0.02931  -0.02632

 Mulliken charges:
               1
     1  N   -0.761558
     2  H    0.413605
     3  H    0.412720
     4  H    0.435771
     5  C   -0.110535
     6  H    0.229461
     7  C    0.649290
     8  C   -0.377285
     9  H    0.179389
    10  H    0.180929
    11  O   -0.553721
    12  C    0.126056
    13  C   -0.195772
    14  H    0.138441
    15  C   -0.183289
    16  H    0.116553
    17  C   -0.097396
    18  H    0.165909
    19  C   -0.134712
    20  H    0.151579
    21  C   -0.116747
    22  H    0.188991
    23  N   -0.612264
    24  H    0.406663
    25  C   -0.070409
    26  H    0.193069
    27  C    0.638104
    28  C   -0.447538
    29  H    0.167332
    30  H    0.193701
    31  H    0.175212
    32  O   -0.521889
    33  N   -0.587344
    34  H    0.338691
    35  C   -0.053585
    36  H    0.182249
    37  C    0.643909
    38  C   -0.479299
    39  H    0.178417
    40  H    0.166648
    41  H    0.177884
    42  O   -0.554916
    43  N   -0.614156
    44  H    0.359265
    45  C   -0.037844
    46  H    0.171097
    47  C    0.611825
    48  C   -0.370935
    49  H    0.131538
    50  H    0.190057
    51  O   -0.496318
    52  C    0.131581
    53  C   -0.185066
    54  H    0.124185
    55  C   -0.223554
    56  H    0.108496
    57  C   -0.188078
    58  H    0.132220
    59  C   -0.209618
    60  H    0.153366
    61  O   -0.672618
    62  H    0.459081
    63  C    0.378708
    64  N   -0.685199
    65  H    0.346251
    66  C   -0.038576
    67  H    0.216514
    68  C    0.625578
    69  C   -0.281257
    70  H    0.159587
    71  H    0.116057
    72  O   -0.622210
    73  C   -0.090663
    74  H    0.172106
    75  C   -0.471805
    76  H    0.131172
    77  H    0.146502
    78  H    0.199732
    79  C   -0.443679
    80  H    0.128756
    81  H    0.133212
    82  H    0.152775
    83  N   -0.625066
    84  H    0.440366
    85  C   -0.031909
    86  H    0.138624
    87  C    0.645512
    88  C   -0.299357
    89  H    0.185382
    90  H    0.141875
    91  O   -0.529777
    92  C   -0.359650
    93  H    0.143905
    94  H    0.171603
    95  C    0.616694
    96  O   -0.600876
    97  O   -0.599463
    98  N   -0.621569
    99  H    0.343246
   100  C   -0.034588
   101  H    0.214307
   102  C    0.578730
   103  C   -0.277174
   104  H    0.185954
   105  H    0.162802
   106  O   -0.457882
   107  C   -0.317442
   108  H    0.168787
   109  H    0.180314
   110  C   -0.147432
   111  H    0.153098
   112  H    0.178206
   113  N   -0.635222
   114  H    0.428981
   115  N   -0.766056
   116  H    0.371746
   117  H    0.377647
   118  N   -0.807039
   119  H    0.358238
   120  H    0.435379
   121  C    0.792849
   122  O   -0.567735
   123  H    0.423590
 Sum of Mulliken charges =   1.00000

 Dipole moment (field-independent basis, Debye):
    X=            -35.5645    Y=             -4.5353    Z=              7.3808  Tot=             36.6043
 Quadrupole moment (field-independent basis, Debye-Ang):
   XX=            -35.2422   YY=           -247.9626   ZZ=           -270.2830
   XY=           -187.5128   XZ=           -101.5768   YZ=             31.3198

 Normal termination of Gaussian 16 at Tue Aug  2 21:48:41 2022.
