 Gaussian 16, Revision C.01,
 Gaussian 16:  ES64L-G16RevC.01  3-Jul-2019

 ----------------------------------------------------------------------
 # B3LYP/6-31G* empiricaldispersion=gd3 guess=read geom=check nosymm in
 tegral(ultrafinegrid)
 ----------------------------------------------------------------------

 ------------------------------------------------------
 Candidate Structure: Conf:608 Charge calc in gas phase
 ------------------------------------------------------
 Structure from the checkpoint file:  "conf-608.chk"
 Charge =  1 Multiplicity = 1

                          Input orientation:
 ---------------------------------------------------------------------
 Center     Atomic      Atomic             Coordinates (Angstroms)
 Number     Number       Type             X           Y           Z
 ---------------------------------------------------------------------
      1          7           0       -9.476321    5.061301    7.256064
      2          1           0       -9.377792    4.040571    7.517468
      3          1           0      -10.284023    5.499374    7.703321
      4          1           0       -8.611500    5.547864    7.546550
      5          6           0       -9.550531    5.012484    5.746648
      6          1           0      -10.609434    5.056900    5.474075
      7          6           0       -9.023196    3.580985    5.436732
      8          6           0       -8.775725    6.191145    5.113592
      9          1           0       -9.317386    7.116462    5.343242
     10          1           0       -8.820569    6.079668    4.025340
     11          8           0       -8.917988    2.789076    6.384237
     12          6           0       -7.344237    6.273417    5.600220
     13          6           0       -7.035495    7.038273    6.738681
     14          1           0       -7.798776    7.672701    7.190180
     15          6           0       -6.323348    5.546186    4.970350
     16          1           0       -6.534739    4.981429    4.066489
     17          6           0       -5.736101    7.055283    7.255162
     18          1           0       -5.509056    7.659874    8.128189
     19          6           0       -5.026810    5.572588    5.483837
     20          1           0       -4.241489    5.015755    4.980910
     21          6           0       -4.732131    6.315281    6.630761
     22          1           0       -3.720392    6.331034    7.024494
     23          7           0       -8.757513    3.302509    4.166588
     24          1           0       -8.688940    4.034587    3.458941
     25          6           0       -8.085462    2.076575    3.736536
     26          1           0       -7.448482    1.733011    4.559069
     27          6           0       -7.197685    2.520699    2.550288
     28          6           0       -9.085533    0.974555    3.362874
     29          1           0       -8.564082    0.062645    3.056700
     30          1           0       -9.727421    1.298897    2.537893
     31          1           0       -9.710366    0.736225    4.228209
     32          8           0       -7.263844    3.686111    2.130328
     33          7           0       -6.391851    1.585722    2.043803
     34          1           0       -6.376913    0.624968    2.382546
     35          6           0       -5.506591    1.812134    0.908556
     36          1           0       -6.071638    2.325246    0.121319
     37          6           0       -5.079741    0.410830    0.436892
     38          6           0       -4.280934    2.657587    1.298104
     39          1           0       -3.655803    2.865202    0.424746
     40          1           0       -3.667100    2.121766    2.026845
     41          1           0       -4.619699    3.609771    1.714922
     42          8           0       -5.304412   -0.579898    1.128029
     43          7           0       -4.456914    0.371528   -0.767278
     44          1           0       -4.224193    1.252848   -1.206468
     45          6           0       -3.628329   -0.766074   -1.136124
     46          1           0       -4.144688   -1.652648   -0.754068
     47          6           0       -2.279664   -0.686263   -0.365089
     48          6           0       -3.508086   -0.890757   -2.664950
     49          1           0       -3.165697   -1.908607   -2.897525
     50          1           0       -4.529639   -0.843347   -3.064791
     51          8           0       -2.142556    0.056022    0.601608
     52          6           0       -2.613707    0.110308   -3.383223
     53          6           0       -2.328487   -0.107900   -4.740183
     54          1           0       -2.772333   -0.962745   -5.247329
     55          6           0       -2.030904    1.230691   -2.778899
     56          1           0       -2.188082    1.443191   -1.724398
     57          6           0       -1.474942    0.726620   -5.450585
     58          1           0       -1.247556    0.533281   -6.494621
     59          6           0       -1.174288    2.084424   -3.475885
     60          1           0       -0.729339    2.946991   -2.993619
     61          8           0        0.045664    2.534003   -5.531700
     62          1           0        0.435528    3.282745   -4.962288
     63          6           0       -0.862672    1.824687   -4.819902
     64          7           0       -1.305641   -1.536002   -0.803584
     65          1           0       -1.379978   -1.885284   -1.751449
     66          6           0        0.070920   -1.401790   -0.337583
     67          1           0        0.029122   -0.825318    0.587750
     68          6           0        0.855092   -0.629815   -1.402574
     69          6           0        0.726932   -2.771504   -0.093526
     70          1           0        0.805326   -3.294656   -1.056427
     71          1           0        1.757453   -2.598075    0.247093
     72          8           0        0.652877   -0.875215   -2.605980
     73          6           0       -0.019059   -3.658954    0.919649
     74          1           0       -1.013488   -3.870704    0.503374
     75          6           0        0.726124   -4.990436    1.087846
     76          1           0        1.722312   -4.829435    1.519603
     77          1           0        0.178569   -5.664579    1.755961
     78          1           0        0.857457   -5.502065    0.126889
     79          6           0       -0.214458   -2.960242    2.273421
     80          1           0        0.750417   -2.644600    2.693209
     81          1           0       -0.858748   -2.077668    2.192916
     82          1           0       -0.680054   -3.641972    2.993922
     83          7           0        1.720334    0.295890   -0.965205
     84          1           0        1.875235    0.377997    0.030607
     85          6           0        2.538504    1.095158   -1.860863
     86          1           0        1.910294    1.300605   -2.729627
     87          6           0        3.737964    0.289808   -2.421173
     88          6           0        2.939196    2.453905   -1.225435
     89          1           0        2.890012    2.377001   -0.130498
     90          1           0        3.982481    2.668562   -1.467196
     91          8           0        3.979422   -0.878033   -2.111795
     92          6           0        2.051696    3.604700   -1.717311
     93          1           0        2.424564    4.558387   -1.322620
     94          1           0        1.027333    3.492280   -1.344864
     95          6           0        1.989823    3.697185   -3.261086
     96          8           0        0.944419    4.208418   -3.747700
     97          8           0        2.953293    3.219889   -3.923970
     98          7           0        4.410312    1.001934   -3.350634
     99          1           0        4.049631    1.952115   -3.550128
    100          6           0        5.522490    0.484282   -4.105242
    101          1           0        5.326378   -0.556565   -4.374698
    102          6           0        6.838835    0.422752   -3.328955
    103          6           0        5.750014    1.336975   -5.381061
    104          1           0        6.534212    0.848271   -5.971071
    105          1           0        6.152807    2.306899   -5.064059
    106          8           0        7.772582   -0.264878   -3.676194
    107          6           0        4.502335    1.619721   -6.239354
    108          1           0        4.784026    2.358423   -7.000738
    109          1           0        3.730071    2.107334   -5.637396
    110          6           0        3.918673    0.426893   -7.007107
    111          1           0        4.639472    0.052443   -7.739803
    112          1           0        3.033486    0.743255   -7.572938
    113          7           0        3.565095   -0.737737   -6.183344
    114          1           0        4.159263   -1.551765   -6.248116
    115          7           0        1.621520    0.093885   -5.175893
    116          1           0        0.990317    0.026659   -4.379196
    117          1           0        1.548098    0.944466   -5.726418
    118          7           0        2.545723   -1.907620   -4.466177
    119          1           0        1.858834   -1.831518   -3.713911
    120          1           0        3.445897   -2.194078   -4.093850
    121          6           0        2.583105   -0.813503   -5.273489
    122          8           0        6.869604    1.247063   -2.260629
    123          1           0        7.756140    1.146431   -1.864593
 ---------------------------------------------------------------------

 SCF Done:  E(RB3LYP) =  -2974.23018596     A.U. after    3 cycles

 Alpha  occ. eigenvalues --  -19.26403 -19.24593 -19.22087 -19.19791 -19.19680
 Alpha  occ. eigenvalues --  -19.19016 -19.18550 -19.18535 -19.16822 -19.12833
 Alpha  occ. eigenvalues --  -19.12339 -14.59071 -14.48865 -14.45548 -14.45329
 Alpha  occ. eigenvalues --  -14.43928 -14.43521 -14.43419 -14.42645 -14.42514
 Alpha  occ. eigenvalues --  -14.39549 -10.43216 -10.40591 -10.40515 -10.38989
 Alpha  occ. eigenvalues --  -10.36659 -10.36633 -10.36376 -10.35563 -10.34523
 Alpha  occ. eigenvalues --  -10.33983 -10.33583 -10.31847 -10.31813 -10.30763
 Alpha  occ. eigenvalues --  -10.30655 -10.30497 -10.30262 -10.30022 -10.29729
 Alpha  occ. eigenvalues --  -10.29704 -10.29644 -10.29538 -10.29174 -10.28805
 Alpha  occ. eigenvalues --  -10.28501 -10.28184 -10.26333 -10.25624 -10.25203
 Alpha  occ. eigenvalues --  -10.24786 -10.24344 -10.24293 -10.24273 -10.24264
 Alpha  occ. eigenvalues --  -10.23839 -10.23611 -10.22767 -10.22345 -10.22270
 Alpha  occ. eigenvalues --  -10.22170 -10.22095  -1.18854  -1.15338  -1.13999
 Alpha  occ. eigenvalues --   -1.13175  -1.11807  -1.11445  -1.10101  -1.09340
 Alpha  occ. eigenvalues --   -1.08264  -1.07432  -1.06289  -1.05767  -1.05610
 Alpha  occ. eigenvalues --   -1.01994  -1.00258  -1.00130  -0.99308  -0.99151
 Alpha  occ. eigenvalues --   -0.97855  -0.97253  -0.96689  -0.96513  -0.92961
 Alpha  occ. eigenvalues --   -0.89962  -0.88795  -0.87258  -0.86309  -0.86151
 Alpha  occ. eigenvalues --   -0.85450  -0.85215  -0.84466  -0.83360  -0.81219
 Alpha  occ. eigenvalues --   -0.80729  -0.79710  -0.79013  -0.77888  -0.76669
 Alpha  occ. eigenvalues --   -0.76304  -0.74981  -0.74348  -0.74138  -0.73315
 Alpha  occ. eigenvalues --   -0.72652  -0.71925  -0.71300  -0.71190  -0.70761
 Alpha  occ. eigenvalues --   -0.70245  -0.69190  -0.68416  -0.68089  -0.67407
 Alpha  occ. eigenvalues --   -0.66777  -0.66509  -0.66256  -0.65970  -0.65158
 Alpha  occ. eigenvalues --   -0.65086  -0.64776  -0.63566  -0.63391  -0.63005
 Alpha  occ. eigenvalues --   -0.62463  -0.61391  -0.61294  -0.60613  -0.59829
 Alpha  occ. eigenvalues --   -0.59420  -0.58614  -0.57939  -0.57657  -0.57380
 Alpha  occ. eigenvalues --   -0.57068  -0.56968  -0.56859  -0.56328  -0.56112
 Alpha  occ. eigenvalues --   -0.55567  -0.55370  -0.54955  -0.54632  -0.54511
 Alpha  occ. eigenvalues --   -0.54154  -0.53573  -0.53321  -0.52980  -0.52829
 Alpha  occ. eigenvalues --   -0.52621  -0.52522  -0.52217  -0.52060  -0.51715
 Alpha  occ. eigenvalues --   -0.51541  -0.51383  -0.51243  -0.50769  -0.50514
 Alpha  occ. eigenvalues --   -0.50178  -0.49985  -0.49739  -0.49178  -0.48936
 Alpha  occ. eigenvalues --   -0.48710  -0.48483  -0.48196  -0.48098  -0.47856
 Alpha  occ. eigenvalues --   -0.47762  -0.47485  -0.47220  -0.47113  -0.47025
 Alpha  occ. eigenvalues --   -0.46880  -0.46668  -0.46500  -0.46280  -0.45948
 Alpha  occ. eigenvalues --   -0.45603  -0.45491  -0.45231  -0.45161  -0.44769
 Alpha  occ. eigenvalues --   -0.44690  -0.44586  -0.44426  -0.43993  -0.43751
 Alpha  occ. eigenvalues --   -0.43661  -0.43180  -0.43049  -0.42588  -0.42324
 Alpha  occ. eigenvalues --   -0.41772  -0.41409  -0.40962  -0.40892  -0.40682
 Alpha  occ. eigenvalues --   -0.40572  -0.40079  -0.39708  -0.39179  -0.38996
 Alpha  occ. eigenvalues --   -0.38256  -0.37994  -0.37814  -0.37753  -0.36670
 Alpha  occ. eigenvalues --   -0.36444  -0.36336  -0.36285  -0.36207  -0.35812
 Alpha  occ. eigenvalues --   -0.35658  -0.35334  -0.34848  -0.33996  -0.33908
 Alpha  occ. eigenvalues --   -0.33576  -0.33300  -0.33221  -0.32518  -0.31217
 Alpha  occ. eigenvalues --   -0.30211  -0.29704  -0.29426  -0.28228  -0.27410
 Alpha  occ. eigenvalues --   -0.26681  -0.25488
 Alpha virt. eigenvalues --   -0.12571  -0.11979  -0.11903  -0.08442  -0.07754
 Alpha virt. eigenvalues --   -0.06291  -0.05880  -0.05273  -0.05093  -0.04059
 Alpha virt. eigenvalues --   -0.03956  -0.03831  -0.03496  -0.02838  -0.02769

 Mulliken charges:
               1
     1  N   -0.755464
     2  H    0.432374
     3  H    0.409710
     4  H    0.403717
     5  C   -0.114601
     6  H    0.228061
     7  C    0.653459
     8  C   -0.395564
     9  H    0.188659
    10  H    0.210192
    11  O   -0.538283
    12  C    0.139778
    13  C   -0.240864
    14  H    0.141623
    15  C   -0.187658
    16  H    0.177561
    17  C   -0.118663
    18  H    0.164299
    19  C   -0.131075
    20  H    0.164697
    21  C   -0.121429
    22  H    0.166596
    23  N   -0.599769
    24  H    0.373762
    25  C   -0.069997
    26  H    0.202518
    27  C    0.637851
    28  C   -0.448970
    29  H    0.180273
    30  H    0.172884
    31  H    0.183639
    32  O   -0.554862
    33  N   -0.617092
    34  H    0.368407
    35  C   -0.056495
    36  H    0.185536
    37  C    0.643793
    38  C   -0.448222
    39  H    0.164754
    40  H    0.183380
    41  H    0.170955
    42  O   -0.533642
    43  N   -0.597774
    44  H    0.346322
    45  C   -0.086265
    46  H    0.207585
    47  C    0.646509
    48  C   -0.392457
    49  H    0.156043
    50  H    0.179556
    51  O   -0.538671
    52  C    0.165990
    53  C   -0.184582
    54  H    0.124286
    55  C   -0.226967
    56  H    0.122245
    57  C   -0.171655
    58  H    0.133513
    59  C   -0.216568
    60  H    0.183383
    61  O   -0.707878
    62  H    0.457998
    63  C    0.325108
    64  N   -0.587455
    65  H    0.349730
    66  C   -0.098631
    67  H    0.183729
    68  C    0.670520
    69  C   -0.266866
    70  H    0.141361
    71  H    0.153094
    72  O   -0.592482
    73  C   -0.063296
    74  H    0.134414
    75  C   -0.444492
    76  H    0.145832
    77  H    0.149759
    78  H    0.143591
    79  C   -0.466163
    80  H    0.136414
    81  H    0.165286
    82  H    0.150175
    83  N   -0.584451
    84  H    0.344871
    85  C   -0.063485
    86  H    0.198840
    87  C    0.591828
    88  C   -0.300436
    89  H    0.130139
    90  H    0.184622
    91  O   -0.567038
    92  C   -0.353574
    93  H    0.163486
    94  H    0.146614
    95  C    0.595701
    96  O   -0.595676
    97  O   -0.580579
    98  N   -0.635104
    99  H    0.415537
   100  C    0.000504
   101  H    0.141630
   102  C    0.595269
   103  C   -0.312712
   104  H    0.163767
   105  H    0.174799
   106  O   -0.465316
   107  C   -0.309939
   108  H    0.163498
   109  H    0.217414
   110  C   -0.161222
   111  H    0.171780
   112  H    0.181353
   113  N   -0.591886
   114  H    0.357330
   115  N   -0.801726
   116  H    0.421782
   117  H    0.400485
   118  N   -0.766208
   119  H    0.396364
   120  H    0.363131
   121  C    0.764555
   122  O   -0.558294
   123  H    0.416284
 Sum of Mulliken charges =   1.00000

 Dipole moment (field-independent basis, Debye):
    X=            -30.7948    Y=             14.5580    Z=             20.3560  Tot=             39.6815
 Quadrupole moment (field-independent basis, Debye-Ang):
   XX=            -16.1198   YY=           -265.0461   ZZ=           -151.8821
   XY=           -175.7377   XZ=           -240.4852   YZ=            173.2231

 Normal termination of Gaussian 16 at Tue Aug  2 21:48:22 2022.
