 Gaussian 16, Revision C.01,
 Gaussian 16:  ES64L-G16RevC.01  3-Jul-2019

 ----------------------------------------------------------------------
 # B3LYP/6-31G* empiricaldispersion=gd3 guess=read geom=check nosymm in
 tegral(ultrafinegrid)
 ----------------------------------------------------------------------

 ------------------------------------------------------
 Candidate Structure: Conf:727 Charge calc in gas phase
 ------------------------------------------------------
 Structure from the checkpoint file:  "conf-727.chk"
 Charge =  1 Multiplicity = 1

                          Input orientation:
 ---------------------------------------------------------------------
 Center     Atomic      Atomic             Coordinates (Angstroms)
 Number     Number       Type             X           Y           Z
 ---------------------------------------------------------------------
      1          7           0       -2.992777    3.879019   -0.715864
      2          1           0       -2.321169    3.465848   -1.501652
      3          1           0       -2.778978    4.871198   -0.590448
      4          1           0       -3.990111    3.822790   -0.999461
      5          6           0       -2.901652    3.137080    0.582863
      6          1           0       -2.395708    2.192771    0.369101
      7          6           0       -4.364953    2.810089    0.990494
      8          6           0       -2.077601    3.946859    1.604703
      9          1           0       -2.605598    4.887954    1.805314
     10          1           0       -1.128782    4.210215    1.117427
     11          8           0       -5.288319    3.248032    0.298015
     12          6           0       -1.794667    3.230777    2.911091
     13          6           0       -2.168086    3.820619    4.125102
     14          1           0       -2.668676    4.786149    4.122599
     15          6           0       -1.162300    1.978422    2.933626
     16          1           0       -0.889423    1.470626    2.013931
     17          6           0       -1.899259    3.183644    5.336844
     18          1           0       -2.193044    3.656541    6.269563
     19          6           0       -0.903524    1.336493    4.144308
     20          1           0       -0.439406    0.356922    4.128109
     21          6           0       -1.263504    1.941826    5.348347
     22          1           0       -1.063339    1.441363    6.291199
     23          7           0       -4.470749    1.996358    2.048087
     24          1           0       -3.642506    1.799008    2.610904
     25          6           0       -5.689948    1.423828    2.629527
     26          1           0       -6.189181    2.186148    3.244667
     27          6           0       -5.130573    0.338026    3.587240
     28          6           0       -6.671826    0.896392    1.578629
     29          1           0       -7.594938    0.554163    2.058740
     30          1           0       -6.232529    0.068351    1.012991
     31          1           0       -6.936483    1.691344    0.881650
     32          8           0       -4.004972    0.483097    4.069904
     33          7           0       -5.885532   -0.758265    3.828284
     34          1           0       -6.719532   -0.909392    3.275756
     35          6           0       -5.267575   -1.976471    4.393985
     36          1           0       -4.535298   -1.641455    5.131266
     37          6           0       -4.572088   -2.654315    3.190451
     38          6           0       -6.319865   -2.874726    5.026589
     39          1           0       -5.840354   -3.748883    5.476355
     40          1           0       -7.018966   -3.239547    4.268240
     41          1           0       -6.866344   -2.333725    5.804313
     42          8           0       -5.157440   -3.480832    2.497879
     43          7           0       -3.331911   -2.171272    2.884425
     44          1           0       -2.975635   -1.361781    3.385879
     45          6           0       -2.807654   -2.373514    1.543687
     46          1           0       -2.971595   -3.421297    1.280276
     47          6           0       -1.316636   -2.035028    1.521101
     48          6           0       -3.574544   -1.471314    0.529730
     49          1           0       -4.624962   -1.780183    0.584664
     50          1           0       -3.509859   -0.439075    0.892788
     51          8           0       -0.864074   -1.089167    2.170573
     52          6           0       -3.059320   -1.561325   -0.885100
     53          6           0       -2.551389   -0.437482   -1.546336
     54          1           0       -2.569758    0.532312   -1.058198
     55          6           0       -3.041739   -2.786238   -1.566433
     56          1           0       -3.469255   -3.670991   -1.099510
     57          6           0       -2.024157   -0.517184   -2.831633
     58          1           0       -1.685061    0.384066   -3.329987
     59          6           0       -2.480684   -2.894925   -2.837623
     60          1           0       -2.455948   -3.857977   -3.343757
     61          8           0       -1.371086   -1.821256   -4.709168
     62          1           0       -1.436968   -2.728333   -5.046728
     63          6           0       -1.959081   -1.759982   -3.460703
     64          7           0       -0.559290   -2.819626    0.715843
     65          1           0       -1.032402   -3.450700    0.081588
     66          6           0        0.840607   -2.512587    0.414402
     67          1           0        1.270879   -2.125448    1.340903
     68          6           0        0.891955   -1.420131   -0.670619
     69          6           0        1.585893   -3.774667   -0.022051
     70          1           0        1.521463   -4.499091    0.800673
     71          1           0        1.063408   -4.207716   -0.885373
     72          8           0        0.905842   -1.680245   -1.872027
     73          6           0        3.064074   -3.548383   -0.403298
     74          1           0        3.074566   -2.970141   -1.335587
     75          6           0        3.835473   -2.747604    0.657703
     76          1           0        3.728818   -3.201440    1.652166
     77          1           0        4.904266   -2.726480    0.417567
     78          1           0        3.503509   -1.704725    0.707327
     79          6           0        3.734244   -4.903149   -0.670416
     80          1           0        3.777680   -5.506567    0.245455
     81          1           0        3.187224   -5.481115   -1.425559
     82          1           0        4.761306   -4.768631   -1.027906
     83          7           0        0.875884   -0.149631   -0.183491
     84          1           0        0.985323   -0.023692    0.814126
     85          6           0        1.138235    0.970523   -1.059620
     86          1           0        0.614790    0.755561   -1.991706
     87          6           0        2.651996    1.073305   -1.341808
     88          6           0        0.588663    2.264932   -0.429982
     89          1           0       -0.418787    2.026006   -0.079339
     90          1           0        1.187469    2.530145    0.449712
     91          8           0        3.481614    0.680022   -0.530681
     92          6           0        0.511309    3.466870   -1.395824
     93          1           0        1.510702    3.820737   -1.656045
     94          1           0       -0.018115    4.288765   -0.898730
     95          6           0       -0.243866    3.021308   -2.646770
     96          8           0       -1.502969    2.885799   -2.591135
     97          8           0        0.456023    2.677062   -3.645189
     98          7           0        2.970146    1.629611   -2.546346
     99          1           0        2.218322    2.086720   -3.064868
    100          6           0        4.342379    1.971090   -2.846266
    101          1           0        4.975764    1.256569   -2.313286
    102          6           0        4.686354    3.362523   -2.309258
    103          6           0        4.639256    1.876954   -4.356713
    104          1           0        4.305241    0.884123   -4.678340
    105          1           0        5.724354    1.905775   -4.489813
    106          8           0        3.889300    4.173130   -1.889527
    107          6           0        3.980922    2.984017   -5.220997
    108          1           0        4.750927    3.647506   -5.630291
    109          1           0        3.330382    3.625056   -4.611264
    110          6           0        3.149369    2.442351   -6.392021
    111          1           0        3.721061    1.701364   -6.957789
    112          1           0        2.895521    3.247796   -7.088252
    113          7           0        1.887593    1.851818   -5.932321
    114          1           0        1.288511    2.476834   -5.390599
    115          7           0        2.325763   -0.413183   -6.352625
    116          1           0        2.112835   -1.380429   -6.158373
    117          1           0        2.797706   -0.217326   -7.222134
    118          7           0        0.634801    0.234109   -4.894487
    119          1           0        0.197249   -0.684079   -4.849673
    120          1           0        0.244322    0.998265   -4.332122
    121          6           0        1.613594    0.554376   -5.728173
    122          8           0        6.011028    3.599240   -2.399791
    123          1           0        6.170356    4.497430   -2.051745
 ---------------------------------------------------------------------

 SCF Done:  E(RB3LYP) =  -2974.27343134     A.U. after    3 cycles

 Alpha  occ. eigenvalues --  -19.27829 -19.27548 -19.22680 -19.22126 -19.21259
 Alpha  occ. eigenvalues --  -19.20733 -19.20273 -19.20155 -19.18892 -19.18843
 Alpha  occ. eigenvalues --  -19.18569 -14.51758 -14.48728 -14.47453 -14.45759
 Alpha  occ. eigenvalues --  -14.45754 -14.45574 -14.44407 -14.43055 -14.42976
 Alpha  occ. eigenvalues --  -14.42535 -10.44058 -10.39811 -10.39722 -10.38385
 Alpha  occ. eigenvalues --  -10.38066 -10.37039 -10.35908 -10.35796 -10.35628
 Alpha  occ. eigenvalues --  -10.35517 -10.33519 -10.33445 -10.33422 -10.31437
 Alpha  occ. eigenvalues --  -10.31293 -10.31227 -10.30645 -10.30639 -10.30252
 Alpha  occ. eigenvalues --  -10.28471 -10.28305 -10.28076 -10.28037 -10.27596
 Alpha  occ. eigenvalues --  -10.27528 -10.27427 -10.27406 -10.27320 -10.27059
 Alpha  occ. eigenvalues --  -10.26975 -10.26825 -10.26499 -10.26249 -10.26063
 Alpha  occ. eigenvalues --  -10.25768 -10.25640 -10.25036 -10.25011 -10.24448
 Alpha  occ. eigenvalues --  -10.22677 -10.22216  -1.18473  -1.15277  -1.14729
 Alpha  occ. eigenvalues --   -1.13604  -1.13441  -1.12567  -1.12046  -1.10999
 Alpha  occ. eigenvalues --   -1.10689  -1.10086  -1.09463  -1.07299  -1.04536
 Alpha  occ. eigenvalues --   -1.02711  -1.02292  -1.01668  -1.00782  -1.00395
 Alpha  occ. eigenvalues --   -0.99839  -0.99781  -0.99637  -0.93858  -0.93525
 Alpha  occ. eigenvalues --   -0.89319  -0.89214  -0.88247  -0.87502  -0.86996
 Alpha  occ. eigenvalues --   -0.86306  -0.84230  -0.83835  -0.83244  -0.82404
 Alpha  occ. eigenvalues --   -0.81700  -0.81495  -0.80334  -0.78973  -0.77627
 Alpha  occ. eigenvalues --   -0.76739  -0.75081  -0.74613  -0.74600  -0.73478
 Alpha  occ. eigenvalues --   -0.72294  -0.71938  -0.71610  -0.70935  -0.70807
 Alpha  occ. eigenvalues --   -0.69593  -0.69158  -0.68418  -0.68154  -0.67643
 Alpha  occ. eigenvalues --   -0.67412  -0.67207  -0.66598  -0.66377  -0.65785
 Alpha  occ. eigenvalues --   -0.65415  -0.65186  -0.65134  -0.64178  -0.63485
 Alpha  occ. eigenvalues --   -0.63188  -0.62212  -0.62104  -0.61627  -0.61379
 Alpha  occ. eigenvalues --   -0.60611  -0.59781  -0.59083  -0.58597  -0.58487
 Alpha  occ. eigenvalues --   -0.58053  -0.57843  -0.57501  -0.57165  -0.56798
 Alpha  occ. eigenvalues --   -0.56357  -0.56339  -0.55907  -0.55446  -0.55440
 Alpha  occ. eigenvalues --   -0.55058  -0.54634  -0.54349  -0.54032  -0.53766
 Alpha  occ. eigenvalues --   -0.53575  -0.53463  -0.52931  -0.52765  -0.52556
 Alpha  occ. eigenvalues --   -0.52437  -0.52303  -0.51969  -0.51704  -0.51475
 Alpha  occ. eigenvalues --   -0.50969  -0.50849  -0.50534  -0.50247  -0.49971
 Alpha  occ. eigenvalues --   -0.49891  -0.49638  -0.49305  -0.49151  -0.48893
 Alpha  occ. eigenvalues --   -0.48712  -0.48639  -0.48450  -0.48420  -0.48303
 Alpha  occ. eigenvalues --   -0.48011  -0.47929  -0.47744  -0.47386  -0.47266
 Alpha  occ. eigenvalues --   -0.46629  -0.46464  -0.46217  -0.46108  -0.45895
 Alpha  occ. eigenvalues --   -0.45745  -0.45340  -0.45187  -0.44902  -0.44529
 Alpha  occ. eigenvalues --   -0.44293  -0.44116  -0.43884  -0.43807  -0.43711
 Alpha  occ. eigenvalues --   -0.43309  -0.43163  -0.43055  -0.42784  -0.42612
 Alpha  occ. eigenvalues --   -0.42208  -0.41999  -0.41836  -0.41601  -0.41203
 Alpha  occ. eigenvalues --   -0.41093  -0.39775  -0.39179  -0.38611  -0.38157
 Alpha  occ. eigenvalues --   -0.37930  -0.36673  -0.36513  -0.36486  -0.36264
 Alpha  occ. eigenvalues --   -0.36145  -0.35713  -0.35603  -0.34913  -0.34713
 Alpha  occ. eigenvalues --   -0.34599  -0.34360  -0.33658  -0.33557  -0.33059
 Alpha  occ. eigenvalues --   -0.32723  -0.32107  -0.31887  -0.31798  -0.31592
 Alpha  occ. eigenvalues --   -0.31164  -0.29991
 Alpha virt. eigenvalues --   -0.09268  -0.09013  -0.08557  -0.08346  -0.07667
 Alpha virt. eigenvalues --   -0.07565  -0.07264  -0.07008  -0.06889  -0.06140
 Alpha virt. eigenvalues --   -0.05309  -0.04799  -0.04699  -0.04345  -0.04146

 Mulliken charges:
               1
     1  N   -0.805146
     2  H    0.460273
     3  H    0.382034
     4  H    0.408195
     5  C   -0.109610
     6  H    0.215462
     7  C    0.638030
     8  C   -0.378966
     9  H    0.167926
    10  H    0.188536
    11  O   -0.535093
    12  C    0.121845
    13  C   -0.179191
    14  H    0.133971
    15  C   -0.212422
    16  H    0.140763
    17  C   -0.118706
    18  H    0.147860
    19  C   -0.107535
    20  H    0.165408
    21  C   -0.116288
    22  H    0.146974
    23  N   -0.651727
    24  H    0.414564
    25  C   -0.012536
    26  H    0.199188
    27  C    0.609567
    28  C   -0.503304
    29  H    0.160810
    30  H    0.169554
    31  H    0.218332
    32  O   -0.532095
    33  N   -0.595950
    34  H    0.348892
    35  C   -0.064282
    36  H    0.189516
    37  C    0.612886
    38  C   -0.460956
    39  H    0.177222
    40  H    0.176358
    41  H    0.165346
    42  O   -0.524068
    43  N   -0.612436
    44  H    0.370969
    45  C   -0.048573
    46  H    0.180107
    47  C    0.635663
    48  C   -0.383940
    49  H    0.189239
    50  H    0.144795
    51  O   -0.555837
    52  C    0.178094
    53  C   -0.195219
    54  H    0.117944
    55  C   -0.230200
    56  H    0.154926
    57  C   -0.167998
    58  H    0.168792
    59  C   -0.176983
    60  H    0.137424
    61  O   -0.679343
    62  H    0.420981
    63  C    0.373623
    64  N   -0.597431
    65  H    0.341748
    66  C   -0.065928
    67  H    0.178408
    68  C    0.658915
    69  C   -0.269708
    70  H    0.146714
    71  H    0.137812
    72  O   -0.558803
    73  C   -0.080592
    74  H    0.146977
    75  C   -0.467922
    76  H    0.137675
    77  H    0.150087
    78  H    0.168742
    79  C   -0.446093
    80  H    0.145765
    81  H    0.136556
    82  H    0.147260
    83  N   -0.599056
    84  H    0.354640
    85  C   -0.068941
    86  H    0.181088
    87  C    0.631353
    88  C   -0.312877
    89  H    0.149236
    90  H    0.176651
    91  O   -0.524973
    92  C   -0.389076
    93  H    0.213783
    94  H    0.128440
    95  C    0.620177
    96  O   -0.591950
    97  O   -0.605815
    98  N   -0.637174
    99  H    0.385315
   100  C   -0.069529
   101  H    0.212772
   102  C    0.604771
   103  C   -0.292229
   104  H    0.163957
   105  H    0.181958
   106  O   -0.462398
   107  C   -0.294488
   108  H    0.172285
   109  H    0.172965
   110  C   -0.169955
   111  H    0.158713
   112  H    0.188041
   113  N   -0.607850
   114  H    0.396633
   115  N   -0.759499
   116  H    0.373097
   117  H    0.370871
   118  N   -0.811966
   119  H    0.399805
   120  H    0.426828
   121  C    0.788013
   122  O   -0.559841
   123  H    0.422379
 Sum of Mulliken charges =   1.00000

 Dipole moment (field-independent basis, Debye):
    X=             -2.8865    Y=              4.9813    Z=            -11.0341  Tot=             12.4458
 Quadrupole moment (field-independent basis, Debye-Ang):
   XX=           -289.5225   YY=           -299.7506   ZZ=           -229.3364
   XY=              1.3351   XZ=            -73.5917   YZ=              7.1598

 Normal termination of Gaussian 16 at Tue Aug  2 21:49:03 2022.
