 Gaussian 16, Revision C.01,
 Gaussian 16:  ES64L-G16RevC.01  3-Jul-2019

 ----------------------------------------------------------------------
 # B3LYP/6-31G* empiricaldispersion=gd3 guess=read geom=check nosymm in
 tegral(ultrafinegrid)
 ----------------------------------------------------------------------

 ------------------------------------------------------
 Candidate Structure: Conf:607 Charge calc in gas phase
 ------------------------------------------------------
 Structure from the checkpoint file:  "conf-607.chk"
 Charge =  1 Multiplicity = 1

                          Input orientation:
 ---------------------------------------------------------------------
 Center     Atomic      Atomic             Coordinates (Angstroms)
 Number     Number       Type             X           Y           Z
 ---------------------------------------------------------------------
      1          7           0       -2.957805    6.920092    5.613264
      2          1           0       -3.032291    7.754269    6.198323
      3          1           0       -2.005950    6.854411    5.211947
      4          1           0       -3.133846    6.030477    6.160668
      5          6           0       -3.984842    6.837969    4.507144
      6          1           0       -4.795557    7.529400    4.754541
      7          6           0       -4.500799    5.374550    4.635857
      8          6           0       -3.349824    7.200915    3.139925
      9          1           0       -3.144892    8.277874    3.135259
     10          1           0       -4.098859    7.026393    2.360720
     11          8           0       -4.091339    4.698078    5.588493
     12          6           0       -2.086341    6.410390    2.873853
     13          6           0       -0.837500    6.931943    3.255962
     14          1           0       -0.765219    7.962418    3.606017
     15          6           0       -2.147618    5.117977    2.329966
     16          1           0       -3.099836    4.728625    1.984369
     17          6           0        0.324908    6.161881    3.129601
     18          1           0        1.293363    6.570262    3.401801
     19          6           0       -0.987607    4.354591    2.203818
     20          1           0       -1.034232    3.355587    1.780403
     21          6           0        0.246564    4.865230    2.618033
     22          1           0        1.135933    4.254429    2.517700
     23          7           0       -5.367032    4.968562    3.710986
     24          1           0       -5.532687    5.528604    2.875412
     25          6           0       -5.689173    3.557826    3.471352
     26          1           0       -5.010573    2.954381    4.079881
     27          6           0       -5.405417    3.360240    1.964245
     28          6           0       -7.147734    3.235206    3.814399
     29          1           0       -7.359631    2.181356    3.608009
     30          1           0       -7.826915    3.848023    3.213108
     31          1           0       -7.337885    3.428410    4.873973
     32          8           0       -5.488264    4.334703    1.204075
     33          7           0       -5.063769    2.122758    1.594051
     34          1           0       -5.028592    1.350674    2.258997
     35          6           0       -4.718452    1.719957    0.234710
     36          1           0       -5.588522    1.868887   -0.418638
     37          6           0       -4.413814    0.206716    0.342650
     38          6           0       -3.519992    2.512427   -0.321657
     39          1           0       -3.348908    2.280706   -1.378287
     40          1           0       -2.613116    2.256428    0.231158
     41          1           0       -3.724087    3.581550   -0.249280
     42          8           0       -4.593192   -0.402924    1.392382
     43          7           0       -3.946301   -0.371126   -0.796839
     44          1           0       -3.672124    0.261850   -1.539713
     45          6           0       -3.101226   -1.550482   -0.720292
     46          1           0       -3.598377   -2.282177   -0.075034
     47          6           0       -1.770778   -1.144422   -0.025038
     48          6           0       -2.910251   -2.139796   -2.146544
     49          1           0       -2.340876   -3.075007   -2.080913
     50          1           0       -3.905139   -2.417204   -2.511277
     51          8           0       -1.651681   -0.064757    0.556660
     52          6           0       -2.242203   -1.160351   -3.087000
     53          6           0       -3.001443   -0.207867   -3.789282
     54          1           0       -4.088279   -0.273054   -3.771611
     55          6           0       -0.846646   -1.086527   -3.199138
     56          1           0       -0.216420   -1.819169   -2.703435
     57          6           0       -2.396740    0.820107   -4.507837
     58          1           0       -2.988002    1.561996   -5.035449
     59          6           0       -0.225561   -0.076809   -3.925646
     60          1           0        0.856135   -0.024957   -3.979647
     61          8           0       -0.450810    1.971605   -5.190263
     62          1           0        0.528717    2.011504   -4.984565
     63          6           0       -0.996141    0.920441   -4.554607
     64          7           0       -0.762909   -2.050465   -0.063305
     65          1           0       -0.854894   -2.873633   -0.640686
     66          6           0        0.557873   -1.763715    0.500846
     67          1           0        0.384636   -1.282481    1.467472
     68          6           0        1.322445   -0.759542   -0.401015
     69          6           0        1.360420   -3.052825    0.686218
     70          1           0        1.604078   -3.456623   -0.304377
     71          1           0        2.321821   -2.779162    1.141574
     72          8           0        2.155221   -1.145292   -1.241970
     73          6           0        0.682872   -4.131296    1.553178
     74          1           0       -0.247807   -4.442170    1.055868
     75          6           0        1.595255   -5.362656    1.646366
     76          1           0        2.532949   -5.114369    2.160117
     77          1           0        1.111273   -6.168137    2.209246
     78          1           0        1.850318   -5.750655    0.653182
     79          6           0        0.315056   -3.612544    2.950450
     80          1           0        1.202442   -3.225682    3.468683
     81          1           0       -0.431207   -2.811384    2.909802
     82          1           0       -0.102305   -4.418061    3.564336
     83          7           0        1.006143    0.525984   -0.184235
     84          1           0        0.256190    0.714904    0.473261
     85          6           0        1.611966    1.652944   -0.871162
     86          1           0        2.317543    1.229072   -1.584011
     87          6           0        2.352965    2.510337    0.169339
     88          6           0        0.558363    2.477275   -1.650012
     89          1           0       -0.049111    1.757376   -2.201581
     90          1           0       -0.102615    2.984864   -0.935200
     91          8           0        1.979752    2.561161    1.344756
     92          6           0        1.151278    3.517900   -2.634599
     93          1           0        1.511381    4.395787   -2.092626
     94          1           0        0.353051    3.825202   -3.317058
     95          6           0        2.306749    2.904721   -3.440810
     96          8           0        3.493514    3.187451   -3.043400
     97          8           0        2.065605    2.080107   -4.351502
     98          7           0        3.413306    3.189421   -0.317312
     99          1           0        3.507320    3.258657   -1.347381
    100          6           0        4.128806    4.155192    0.487664
    101          1           0        4.544561    3.671538    1.378900
    102          6           0        3.215006    5.256031    1.033592
    103          6           0        5.256545    4.810633   -0.338740
    104          1           0        5.599285    5.688112    0.221245
    105          1           0        4.827643    5.178089   -1.279262
    106          8           0        3.382945    5.811430    2.097506
    107          6           0        6.499907    3.949468   -0.637127
    108          1           0        6.929157    3.576172    0.305278
    109          1           0        7.256991    4.624624   -1.052498
    110          6           0        6.363120    2.789624   -1.640227
    111          1           0        7.346321    2.567311   -2.072442
    112          1           0        5.695294    3.075594   -2.453478
    113          7           0        5.856900    1.568890   -0.995248
    114          1           0        6.108131    1.448299   -0.023917
    115          7           0        4.560563    0.739715   -2.751129
    116          1           0        3.947397   -0.004226   -3.062838
    117          1           0        4.300604    1.689063   -3.105050
    118          7           0        4.858793   -0.521319   -0.831515
    119          1           0        3.953496   -0.984207   -0.968032
    120          1           0        5.305667   -0.648727    0.064855
    121          6           0        5.080942    0.613749   -1.529241
    122          8           0        2.224818    5.579003    0.173255
    123          1           0        1.684663    6.266212    0.606443
 ---------------------------------------------------------------------

 SCF Done:  E(RB3LYP) =  -2974.25552382     A.U. after    1 cycles

 Alpha  occ. eigenvalues --  -19.27315 -19.26044 -19.21496 -19.21352 -19.20410
 Alpha  occ. eigenvalues --  -19.20303 -19.19894 -19.19347 -19.18961 -19.16601
 Alpha  occ. eigenvalues --  -19.16030 -14.58363 -14.48512 -14.46971 -14.45212
 Alpha  occ. eigenvalues --  -14.45034 -14.44848 -14.43730 -14.43608 -14.43081
 Alpha  occ. eigenvalues --  -14.41771 -10.42836 -10.41936 -10.40059 -10.39499
 Alpha  occ. eigenvalues --  -10.38365 -10.37164 -10.37108 -10.36806 -10.35567
 Alpha  occ. eigenvalues --  -10.33957 -10.33951 -10.33389 -10.31894 -10.31389
 Alpha  occ. eigenvalues --  -10.31369 -10.31367 -10.31198 -10.31079 -10.30144
 Alpha  occ. eigenvalues --  -10.29957 -10.29285 -10.29013 -10.28706 -10.28555
 Alpha  occ. eigenvalues --  -10.28092 -10.27729 -10.27679 -10.27525 -10.27063
 Alpha  occ. eigenvalues --  -10.26119 -10.26050 -10.25659 -10.25567 -10.24778
 Alpha  occ. eigenvalues --  -10.24612 -10.24371 -10.23912 -10.23819 -10.23632
 Alpha  occ. eigenvalues --  -10.23376 -10.23116  -1.18442  -1.18147  -1.13427
 Alpha  occ. eigenvalues --   -1.12765  -1.12538  -1.11752  -1.11232  -1.10592
 Alpha  occ. eigenvalues --   -1.10463  -1.09583  -1.09086  -1.08058  -1.05355
 Alpha  occ. eigenvalues --   -1.01622  -1.01236  -1.00747  -1.00558  -1.00509
 Alpha  occ. eigenvalues --   -1.00269  -0.99298  -0.97741  -0.96432  -0.92213
 Alpha  occ. eigenvalues --   -0.90677  -0.88678  -0.88420  -0.88235  -0.86320
 Alpha  occ. eigenvalues --   -0.86066  -0.84992  -0.84489  -0.83503  -0.83098
 Alpha  occ. eigenvalues --   -0.82124  -0.79797  -0.78883  -0.78457  -0.78081
 Alpha  occ. eigenvalues --   -0.76768  -0.75949  -0.74733  -0.74323  -0.73523
 Alpha  occ. eigenvalues --   -0.72696  -0.72420  -0.71957  -0.71711  -0.70591
 Alpha  occ. eigenvalues --   -0.70492  -0.69782  -0.69287  -0.68865  -0.68241
 Alpha  occ. eigenvalues --   -0.68035  -0.67171  -0.66812  -0.66659  -0.66290
 Alpha  occ. eigenvalues --   -0.65824  -0.65316  -0.64969  -0.63836  -0.63694
 Alpha  occ. eigenvalues --   -0.63571  -0.62619  -0.61466  -0.60833  -0.60149
 Alpha  occ. eigenvalues --   -0.59993  -0.59221  -0.58835  -0.58771  -0.58002
 Alpha  occ. eigenvalues --   -0.57961  -0.57245  -0.57035  -0.56960  -0.56630
 Alpha  occ. eigenvalues --   -0.56519  -0.56203  -0.55988  -0.55692  -0.55525
 Alpha  occ. eigenvalues --   -0.55173  -0.54808  -0.54413  -0.54133  -0.53725
 Alpha  occ. eigenvalues --   -0.53544  -0.53074  -0.52703  -0.52514  -0.52261
 Alpha  occ. eigenvalues --   -0.52157  -0.51954  -0.51517  -0.51393  -0.51287
 Alpha  occ. eigenvalues --   -0.51095  -0.50833  -0.50551  -0.50314  -0.50163
 Alpha  occ. eigenvalues --   -0.50035  -0.49847  -0.49279  -0.49168  -0.49071
 Alpha  occ. eigenvalues --   -0.48757  -0.48417  -0.48187  -0.47963  -0.47788
 Alpha  occ. eigenvalues --   -0.47530  -0.47214  -0.47101  -0.46945  -0.46610
 Alpha  occ. eigenvalues --   -0.46474  -0.46340  -0.46144  -0.45814  -0.45624
 Alpha  occ. eigenvalues --   -0.45417  -0.45218  -0.45126  -0.44794  -0.44694
 Alpha  occ. eigenvalues --   -0.44391  -0.44028  -0.43918  -0.43840  -0.43628
 Alpha  occ. eigenvalues --   -0.43067  -0.42861  -0.42759  -0.42633  -0.42248
 Alpha  occ. eigenvalues --   -0.41673  -0.40989  -0.40595  -0.40549  -0.40248
 Alpha  occ. eigenvalues --   -0.39496  -0.39462  -0.39305  -0.39295  -0.38694
 Alpha  occ. eigenvalues --   -0.37773  -0.36989  -0.36832  -0.36492  -0.36289
 Alpha  occ. eigenvalues --   -0.35526  -0.35411  -0.35220  -0.35097  -0.34901
 Alpha  occ. eigenvalues --   -0.34676  -0.34165  -0.33834  -0.32944  -0.32408
 Alpha  occ. eigenvalues --   -0.32262  -0.32164  -0.31773  -0.30872  -0.30427
 Alpha  occ. eigenvalues --   -0.29819  -0.26046
 Alpha virt. eigenvalues --   -0.12157  -0.11238  -0.11176  -0.07996  -0.07428
 Alpha virt. eigenvalues --   -0.07301  -0.07007  -0.06684  -0.06393  -0.05523
 Alpha virt. eigenvalues --   -0.05153  -0.04739  -0.04416  -0.03535  -0.03396

 Mulliken charges:
               1
     1  N   -0.758851
     2  H    0.407912
     3  H    0.405305
     4  H    0.432258
     5  C   -0.111163
     6  H    0.223333
     7  C    0.648713
     8  C   -0.393096
     9  H    0.185651
    10  H    0.210632
    11  O   -0.532387
    12  C    0.133909
    13  C   -0.247692
    14  H    0.139984
    15  C   -0.186427
    16  H    0.168085
    17  C   -0.155236
    18  H    0.184851
    19  C   -0.149799
    20  H    0.171267
    21  C   -0.156770
    22  H    0.220633
    23  N   -0.587404
    24  H    0.368754
    25  C   -0.081274
    26  H    0.198090
    27  C    0.642291
    28  C   -0.443761
    29  H    0.178880
    30  H    0.174940
    31  H    0.179310
    32  O   -0.559245
    33  N   -0.622311
    34  H    0.368273
    35  C   -0.035515
    36  H    0.192370
    37  C    0.639124
    38  C   -0.499818
    39  H    0.166798
    40  H    0.188126
    41  H    0.190931
    42  O   -0.531320
    43  N   -0.605938
    44  H    0.353414
    45  C   -0.080888
    46  H    0.202765
    47  C    0.654291
    48  C   -0.388270
    49  H    0.147814
    50  H    0.180051
    51  O   -0.545878
    52  C    0.149864
    53  C   -0.228469
    54  H    0.134410
    55  C   -0.186902
    56  H    0.118769
    57  C   -0.163844
    58  H    0.143504
    59  C   -0.214124
    60  H    0.159121
    61  O   -0.683717
    62  H    0.458046
    63  C    0.359340
    64  N   -0.604729
    65  H    0.343943
    66  C   -0.054409
    67  H    0.182576
    68  C    0.637721
    69  C   -0.292426
    70  H    0.161321
    71  H    0.137796
    72  O   -0.591617
    73  C   -0.073984
    74  H    0.122085
    75  C   -0.443623
    76  H    0.143537
    77  H    0.155808
    78  H    0.147427
    79  C   -0.454129
    80  H    0.141588
    81  H    0.153729
    82  H    0.157148
    83  N   -0.570513
    84  H    0.375380
    85  C   -0.107226
    86  H    0.181865
    87  C    0.630724
    88  C   -0.289225
    89  H    0.192406
    90  H    0.143129
    91  O   -0.558186
    92  C   -0.378108
    93  H    0.165104
    94  H    0.174386
    95  C    0.606372
    96  O   -0.626579
    97  O   -0.566840
    98  N   -0.663553
    99  H    0.425405
   100  C   -0.005905
   101  H    0.168942
   102  C    0.598839
   103  C   -0.315169
   104  H    0.175002
   105  H    0.187434
   106  O   -0.481247
   107  C   -0.298835
   108  H    0.142846
   109  H    0.175959
   110  C   -0.151409
   111  H    0.179863
   112  H    0.228006
   113  N   -0.594431
   114  H    0.338874
   115  N   -0.759646
   116  H    0.371506
   117  H    0.419577
   118  N   -0.782671
   119  H    0.412933
   120  H    0.344251
   121  C    0.751482
   122  O   -0.558494
   123  H    0.416277
 Sum of Mulliken charges =   1.00000

 Dipole moment (field-independent basis, Debye):
    X=             -3.9637    Y=             19.9111    Z=             18.3842  Tot=             27.3887
 Quadrupole moment (field-independent basis, Debye-Ang):
   XX=           -237.1876   YY=           -170.0211   ZZ=           -314.8164
   XY=            -65.8309   XZ=            -49.8433   YZ=            123.2083

 Normal termination of Gaussian 16 at Tue Aug  2 21:47:33 2022.
