 Gaussian 16, Revision C.01,
 Gaussian 16:  ES64L-G16RevC.01  3-Jul-2019

 ----------------------------------------------------------------------
 # B3LYP/6-31G* empiricaldispersion=gd3 guess=read geom=check nosymm in
 tegral(ultrafinegrid)
 ----------------------------------------------------------------------

 ------------------------------------------------------
 Candidate Structure: Conf:126 Charge calc in gas phase
 ------------------------------------------------------
 Structure from the checkpoint file:  "conf-126.chk"
 Charge =  1 Multiplicity = 1

                          Input orientation:
 ---------------------------------------------------------------------
 Center     Atomic      Atomic             Coordinates (Angstroms)
 Number     Number       Type             X           Y           Z
 ---------------------------------------------------------------------
      1          7           0       -6.256973   -1.893392    0.803821
      2          1           0       -5.210617   -2.156835    0.695953
      3          1           0       -6.804755   -2.163707   -0.014918
      4          1           0       -6.610062   -2.363491    1.649363
      5          6           0       -6.303183   -0.410801    1.066287
      6          1           0       -5.714278    0.061263    0.282287
      7          6           0       -5.665773   -0.293762    2.463492
      8          6           0       -7.764422    0.089714    1.062437
      9          1           0       -8.241666   -0.249579    1.990238
     10          1           0       -8.296534   -0.389430    0.231018
     11          8           0       -6.044648   -1.085746    3.330254
     12          6           0       -7.871635    1.593274    0.903883
     13          6           0       -7.414062    2.470011    1.895876
     14          1           0       -7.014676    2.078936    2.825349
     15          6           0       -8.409117    2.135843   -0.274200
     16          1           0       -8.811823    1.470264   -1.035917
     17          6           0       -7.457074    3.851754    1.698913
     18          1           0       -7.086024    4.513757    2.475809
     19          6           0       -8.458037    3.518598   -0.471643
     20          1           0       -8.881921    3.918106   -1.388488
     21          6           0       -7.969557    4.380754    0.512571
     22          1           0       -8.001289    5.455606    0.361458
     23          7           0       -4.759389    0.673136    2.649618
     24          1           0       -4.458098    1.260383    1.877025
     25          6           0       -3.984560    0.747156    3.884173
     26          1           0       -4.685241    0.731716    4.728269
     27          6           0       -3.241582    2.094050    3.869350
     28          6           0       -3.028713   -0.458086    3.992613
     29          1           0       -2.500525   -0.473338    4.952209
     30          1           0       -2.310316   -0.449702    3.169165
     31          1           0       -3.612795   -1.376713    3.919614
     32          8           0       -3.454864    2.934433    2.993371
     33          7           0       -2.318795    2.277304    4.853492
     34          1           0       -2.078972    1.475333    5.422721
     35          6           0       -1.236853    3.274325    4.716191
     36          1           0       -1.695781    4.200813    4.362504
     37          6           0       -0.305315    2.661936    3.644276
     38          6           0       -0.530612    3.484646    6.046902
     39          1           0        0.230184    4.264252    5.946033
     40          1           0       -0.022906    2.565396    6.355253
     41          1           0       -1.244450    3.788163    6.818006
     42          8           0        0.540672    1.825851    3.942739
     43          7           0       -0.609248    3.020798    2.359060
     44          1           0       -1.472498    3.549306    2.278630
     45          6           0       -0.451825    2.061164    1.259974
     46          1           0       -1.204590    1.274752    1.385666
     47          6           0        0.922796    1.383905    1.234415
     48          6           0       -0.731221    2.746953   -0.112023
     49          1           0       -0.584824    3.826830    0.003227
     50          1           0        0.018220    2.413960   -0.836446
     51          8           0        1.959276    1.967030    0.900528
     52          6           0       -2.112175    2.412346   -0.627957
     53          6           0       -2.280860    1.383017   -1.564047
     54          1           0       -1.414665    0.883120   -1.986995
     55          6           0       -3.256146    3.042074   -0.125304
     56          1           0       -3.166984    3.846264    0.598316
     57          6           0       -3.546189    0.982574   -1.981697
     58          1           0       -3.668808    0.200551   -2.724461
     59          6           0       -4.534945    2.644521   -0.521184
     60          1           0       -5.411567    3.147559   -0.121291
     61          8           0       -5.907102    1.155244   -1.861746
     62          1           0       -6.590420    1.761567   -1.524179
     63          6           0       -4.677861    1.610696   -1.454879
     64          7           0        0.843042    0.053324    1.472309
     65          1           0       -0.063688   -0.328345    1.723049
     66          6           0        1.904585   -0.882865    1.187064
     67          1           0        2.809943   -0.293654    1.085598
     68          6           0        1.697190   -1.593409   -0.162971
     69          6           0        2.098647   -1.890674    2.330879
     70          1           0        1.189685   -2.500959    2.427010
     71          1           0        2.907673   -2.576418    2.045541
     72          8           0        2.661097   -2.127498   -0.759495
     73          6           0        2.419754   -1.217468    3.680138
     74          1           0        1.559657   -0.597502    3.962662
     75          6           0        2.630789   -2.290205    4.756633
     76          1           0        3.505884   -2.912537    4.528081
     77          1           0        2.794323   -1.832968    5.738694
     78          1           0        1.761860   -2.954364    4.835749
     79          6           0        3.634224   -0.280406    3.583950
     80          1           0        4.509882   -0.813280    3.180598
     81          1           0        3.423370    0.592433    2.955940
     82          1           0        3.909445    0.095094    4.575014
     83          7           0        0.450473   -1.576604   -0.637849
     84          1           0       -0.318633   -1.181985   -0.062852
     85          6           0        0.006358   -2.246961   -1.855827
     86          1           0        0.530711   -3.207322   -1.931045
     87          6           0        0.384677   -1.353189   -3.064403
     88          6           0       -1.521221   -2.450899   -1.814244
     89          1           0       -1.997011   -1.501291   -2.068704
     90          1           0       -1.770103   -3.140919   -2.627333
     91          8           0       -0.422921   -0.591483   -3.589130
     92          6           0       -2.110145   -2.987373   -0.486041
     93          1           0       -1.377479   -3.621950    0.031408
     94          1           0       -2.974715   -3.620157   -0.701820
     95          6           0       -2.560354   -1.894424    0.509656
     96          8           0       -3.728386   -1.959880    0.982479
     97          8           0       -1.726897   -0.999238    0.833251
     98          7           0        1.695753   -1.403491   -3.448502
     99          1           0        2.284220   -2.145884   -3.080574
    100          6           0        2.137840   -0.743518   -4.672138
    101          1           0        1.247472   -0.521243   -5.267025
    102          6           0        3.031425   -1.710473   -5.436923
    103          6           0        2.908122    0.581886   -4.422368
    104          1           0        3.073527    1.054112   -5.394748
    105          1           0        3.903398    0.336721   -4.029664
    106          8           0        3.516314   -2.715626   -4.965541
    107          6           0        2.172740    1.544129   -3.455107
    108          1           0        1.202720    1.129562   -3.168361
    109          1           0        1.951939    2.490629   -3.958736
    110          6           0        2.973245    1.889421   -2.194475
    111          1           0        2.353726    2.463548   -1.497177
    112          1           0        3.855242    2.489765   -2.446033
    113          7           0        3.446392    0.667910   -1.526598
    114          1           0        3.053911   -0.223803   -1.818017
    115          7           0        4.759613    1.817319   -0.009914
    116          1           0        5.437150    1.760428    0.739547
    117          1           0        4.000906    2.467456    0.181694
    118          7           0        4.916884   -0.522318   -0.188847
    119          1           0        5.334107   -0.562695    0.732735
    120          1           0        4.394144   -1.366969   -0.453770
    121          6           0        4.355638    0.647084   -0.558951
    122          8           0        3.256720   -1.277777   -6.690864
    123          1           0        3.862262   -1.915444   -7.115807
 ---------------------------------------------------------------------

 SCF Done:  E(RB3LYP) =  -2974.27245409     A.U. after    2 cycles

 Alpha  occ. eigenvalues --  -19.28249 -19.24688 -19.22739 -19.21640 -19.21381
 Alpha  occ. eigenvalues --  -19.20911 -19.20707 -19.20013 -19.19770 -19.18371
 Alpha  occ. eigenvalues --  -19.18258 -14.52608 -14.48167 -14.47623 -14.47426
 Alpha  occ. eigenvalues --  -14.45272 -14.44930 -14.44778 -14.44076 -14.43563
 Alpha  occ. eigenvalues --  -14.43355 -10.44104 -10.40729 -10.38250 -10.38183
 Alpha  occ. eigenvalues --  -10.37948 -10.37650 -10.37119 -10.36423 -10.36307
 Alpha  occ. eigenvalues --  -10.34716 -10.32506 -10.32380 -10.32323 -10.32016
 Alpha  occ. eigenvalues --  -10.31760 -10.31726 -10.31451 -10.30742 -10.29947
 Alpha  occ. eigenvalues --  -10.29057 -10.28292 -10.28052 -10.27817 -10.27663
 Alpha  occ. eigenvalues --  -10.27444 -10.27386 -10.27288 -10.26852 -10.26829
 Alpha  occ. eigenvalues --  -10.26685 -10.26282 -10.25968 -10.25904 -10.25796
 Alpha  occ. eigenvalues --  -10.25662 -10.25649 -10.25463 -10.25423 -10.25210
 Alpha  occ. eigenvalues --  -10.24638 -10.23796  -1.19237  -1.13680  -1.13419
 Alpha  occ. eigenvalues --   -1.13043  -1.12770  -1.12671  -1.12227  -1.11801
 Alpha  occ. eigenvalues --   -1.11426  -1.10952  -1.10386  -1.07539  -1.03006
 Alpha  occ. eigenvalues --   -1.02440  -1.01747  -1.01685  -1.01508  -1.01215
 Alpha  occ. eigenvalues --   -1.01025  -1.00280  -0.99880  -0.94549  -0.92228
 Alpha  occ. eigenvalues --   -0.89372  -0.89002  -0.88802  -0.87182  -0.87035
 Alpha  occ. eigenvalues --   -0.85715  -0.84773  -0.83743  -0.83081  -0.82992
 Alpha  occ. eigenvalues --   -0.81746  -0.81523  -0.79907  -0.79290  -0.77664
 Alpha  occ. eigenvalues --   -0.76198  -0.75365  -0.74698  -0.74266  -0.73826
 Alpha  occ. eigenvalues --   -0.72982  -0.71710  -0.71530  -0.70678  -0.69381
 Alpha  occ. eigenvalues --   -0.69164  -0.69107  -0.68906  -0.68524  -0.68289
 Alpha  occ. eigenvalues --   -0.67834  -0.67503  -0.66991  -0.66572  -0.66395
 Alpha  occ. eigenvalues --   -0.65911  -0.65571  -0.65414  -0.65214  -0.63426
 Alpha  occ. eigenvalues --   -0.62508  -0.61718  -0.61244  -0.61076  -0.60458
 Alpha  occ. eigenvalues --   -0.60246  -0.59937  -0.59537  -0.58727  -0.58113
 Alpha  occ. eigenvalues --   -0.57950  -0.57861  -0.57564  -0.57106  -0.56914
 Alpha  occ. eigenvalues --   -0.56689  -0.56525  -0.55927  -0.55615  -0.55470
 Alpha  occ. eigenvalues --   -0.55138  -0.54798  -0.54424  -0.54285  -0.53947
 Alpha  occ. eigenvalues --   -0.53889  -0.53471  -0.53025  -0.52850  -0.52487
 Alpha  occ. eigenvalues --   -0.52361  -0.51781  -0.51697  -0.51651  -0.51347
 Alpha  occ. eigenvalues --   -0.50788  -0.50692  -0.50541  -0.50223  -0.50107
 Alpha  occ. eigenvalues --   -0.49982  -0.49783  -0.49266  -0.49202  -0.49079
 Alpha  occ. eigenvalues --   -0.48910  -0.48585  -0.48429  -0.48342  -0.48153
 Alpha  occ. eigenvalues --   -0.47751  -0.47405  -0.47368  -0.47257  -0.46655
 Alpha  occ. eigenvalues --   -0.46513  -0.46413  -0.46034  -0.45954  -0.45904
 Alpha  occ. eigenvalues --   -0.45761  -0.45611  -0.45272  -0.44727  -0.44465
 Alpha  occ. eigenvalues --   -0.44418  -0.44264  -0.44180  -0.43865  -0.43517
 Alpha  occ. eigenvalues --   -0.43455  -0.43415  -0.43299  -0.43131  -0.42813
 Alpha  occ. eigenvalues --   -0.42707  -0.42223  -0.41979  -0.41624  -0.40358
 Alpha  occ. eigenvalues --   -0.40337  -0.40130  -0.39947  -0.39408  -0.39349
 Alpha  occ. eigenvalues --   -0.39221  -0.37685  -0.37229  -0.36615  -0.36485
 Alpha  occ. eigenvalues --   -0.36191  -0.35464  -0.35204  -0.34812  -0.34712
 Alpha  occ. eigenvalues --   -0.34618  -0.34277  -0.33637  -0.33446  -0.33361
 Alpha  occ. eigenvalues --   -0.33175  -0.32786  -0.32433  -0.31954  -0.31819
 Alpha  occ. eigenvalues --   -0.31362  -0.28788
 Alpha virt. eigenvalues --   -0.09859  -0.09352  -0.09106  -0.08326  -0.08208
 Alpha virt. eigenvalues --   -0.07638  -0.07533  -0.07305  -0.06912  -0.06515
 Alpha virt. eigenvalues --   -0.05828  -0.05099  -0.04295  -0.04236  -0.03721

 Mulliken charges:
               1
     1  N   -0.754214
     2  H    0.441669
     3  H    0.384788
     4  H    0.399679
     5  C   -0.109000
     6  H    0.223832
     7  C    0.673620
     8  C   -0.373248
     9  H    0.195874
    10  H    0.153652
    11  O   -0.553201
    12  C    0.179674
    13  C   -0.179382
    14  H    0.156296
    15  C   -0.265403
    16  H    0.152598
    17  C   -0.127976
    18  H    0.157236
    19  C   -0.120867
    20  H    0.159097
    21  C   -0.128548
    22  H    0.156788
    23  N   -0.607193
    24  H    0.380280
    25  C   -0.051974
    26  H    0.198374
    27  C    0.613420
    28  C   -0.480598
    29  H    0.137911
    30  H    0.194057
    31  H    0.203353
    32  O   -0.543549
    33  N   -0.589488
    34  H    0.344719
    35  C   -0.061687
    36  H    0.178099
    37  C    0.603164
    38  C   -0.467133
    39  H    0.175011
    40  H    0.175176
    41  H    0.168919
    42  O   -0.520781
    43  N   -0.600908
    44  H    0.361884
    45  C   -0.054342
    46  H    0.198663
    47  C    0.651132
    48  C   -0.409912
    49  H    0.170744
    50  H    0.166850
    51  O   -0.585652
    52  C    0.164965
    53  C   -0.185503
    54  H    0.157631
    55  C   -0.187806
    56  H    0.142943
    57  C   -0.175563
    58  H    0.149043
    59  C   -0.228435
    60  H    0.153766
    61  O   -0.681386
    62  H    0.422870
    63  C    0.331200
    64  N   -0.614379
    65  H    0.384333
    66  C   -0.073682
    67  H    0.163063
    68  C    0.631173
    69  C   -0.276521
    70  H    0.144897
    71  H    0.147951
    72  O   -0.609947
    73  C   -0.071832
    74  H    0.172037
    75  C   -0.447035
    76  H    0.142412
    77  H    0.153480
    78  H    0.145405
    79  C   -0.472091
    80  H    0.109980
    81  H    0.162397
    82  H    0.162913
    83  N   -0.636931
    84  H    0.421800
    85  C   -0.050683
    86  H    0.175343
    87  C    0.617848
    88  C   -0.317891
    89  H    0.196420
    90  H    0.162971
    91  O   -0.513193
    92  C   -0.371053
    93  H    0.165101
    94  H    0.150877
    95  C    0.620652
    96  O   -0.608206
    97  O   -0.586639
    98  N   -0.626733
    99  H    0.369848
   100  C   -0.044450
   101  H    0.214377
   102  C    0.582241
   103  C   -0.298702
   104  H    0.187957
   105  H    0.155259
   106  O   -0.457329
   107  C   -0.326133
   108  H    0.198869
   109  H    0.175774
   110  C   -0.161270
   111  H    0.201269
   112  H    0.183095
   113  N   -0.596283
   114  H    0.393451
   115  N   -0.737364
   116  H    0.358995
   117  H    0.403912
   118  N   -0.744651
   119  H    0.356540
   120  H    0.402508
   121  C    0.722261
   122  O   -0.556983
   123  H    0.427340
 Sum of Mulliken charges =   1.00000

 Dipole moment (field-independent basis, Debye):
    X=             -4.9352    Y=              2.1208    Z=              0.7107  Tot=              5.4184
 Quadrupole moment (field-independent basis, Debye-Ang):
   XX=           -202.4270   YY=           -325.3337   ZZ=           -307.9435
   XY=              4.5954   XZ=            -17.1007   YZ=             15.4484

 Normal termination of Gaussian 16 at Tue Aug  2 21:48:20 2022.
