 Gaussian 16, Revision C.01,
 Gaussian 16:  ES64L-G16RevC.01  3-Jul-2019

 ----------------------------------------------------------------------
 # B3LYP/6-31G* empiricaldispersion=gd3 guess=read geom=check nosymm in
 tegral(ultrafinegrid)
 ----------------------------------------------------------------------

 ------------------------------------------------------
 Candidate Structure: Conf:890 Charge calc in gas phase
 ------------------------------------------------------
 Structure from the checkpoint file:  "conf-890.chk"
 Charge =  1 Multiplicity = 1

                          Input orientation:
 ---------------------------------------------------------------------
 Center     Atomic      Atomic             Coordinates (Angstroms)
 Number     Number       Type             X           Y           Z
 ---------------------------------------------------------------------
      1          7           0       -8.881226    2.002678    6.387891
      2          1           0       -9.679786    2.156161    5.767315
      3          1           0       -8.944736    2.673007    7.167535
      4          1           0       -8.892964    0.998246    6.708823
      5          6           0       -7.552086    2.121482    5.673244
      6          1           0       -7.709607    2.622958    4.718135
      7          6           0       -7.114434    0.651807    5.482808
      8          6           0       -6.560459    2.939276    6.528597
      9          1           0       -5.682450    3.109608    5.899282
     10          1           0       -6.237526    2.337866    7.386284
     11          8           0       -7.764089   -0.232823    6.062671
     12          6           0       -7.178007    4.242080    6.992744
     13          6           0       -7.517924    5.243159    6.067811
     14          1           0       -7.298864    5.100160    5.012547
     15          6           0       -7.491409    4.432295    8.346686
     16          1           0       -7.216351    3.672833    9.076174
     17          6           0       -8.138880    6.415475    6.495284
     18          1           0       -8.387826    7.187626    5.773107
     19          6           0       -8.117111    5.608741    8.773489
     20          1           0       -8.341694    5.748097    9.826760
     21          6           0       -8.439873    6.601010    7.848831
     22          1           0       -8.921557    7.516685    8.178155
     23          7           0       -6.044489    0.446556    4.723136
     24          1           0       -5.538196    1.208736    4.273406
     25          6           0       -5.516005   -0.884887    4.436356
     26          1           0       -5.448848   -1.440015    5.378925
     27          6           0       -4.108227   -0.660535    3.853727
     28          6           0       -6.421887   -1.643951    3.450577
     29          1           0       -6.052451   -2.658991    3.275751
     30          1           0       -6.456638   -1.117251    2.492686
     31          1           0       -7.430140   -1.719164    3.865392
     32          8           0       -3.709835    0.479662    3.595714
     33          7           0       -3.382994   -1.771188    3.622207
     34          1           0       -3.789441   -2.680211    3.801617
     35          6           0       -2.045024   -1.741855    3.012867
     36          1           0       -1.586382   -0.800071    3.333291
     37          6           0       -2.130123   -1.714663    1.465213
     38          6           0       -1.212787   -2.922152    3.497714
     39          1           0       -0.211127   -2.866049    3.066228
     40          1           0       -1.649718   -3.871224    3.170550
     41          1           0       -1.133562   -2.909336    4.588831
     42          8           0       -1.609922   -2.590824    0.779229
     43          7           0       -2.795035   -0.645796    0.954504
     44          1           0       -3.054974    0.100654    1.593352
     45          6           0       -2.783190   -0.323579   -0.477448
     46          1           0       -2.773114   -1.278058   -1.011543
     47          6           0       -1.463289    0.428583   -0.790020
     48          6           0       -4.039237    0.484006   -0.889876
     49          1           0       -3.774707    1.060241   -1.781829
     50          1           0       -4.821869   -0.225771   -1.175907
     51          8           0       -1.436165    1.641874   -1.005008
     52          6           0       -4.587936    1.406289    0.183027
     53          6           0       -5.841832    1.157794    0.755113
     54          1           0       -6.448471    0.337439    0.378626
     55          6           0       -3.846067    2.495193    0.668015
     56          1           0       -2.878816    2.705879    0.224844
     57          6           0       -6.338825    1.944370    1.795025
     58          1           0       -7.317605    1.749431    2.223588
     59          6           0       -4.319671    3.273833    1.720842
     60          1           0       -3.715550    4.093934    2.104549
     61          8           0       -6.035099    3.678153    3.398516
     62          1           0       -5.439690    4.424719    3.573186
     63          6           0       -5.557395    2.984606    2.292846
     64          7           0       -0.365112   -0.354239   -0.729536
     65          1           0       -0.461355   -1.352183   -0.559624
     66          6           0        0.980284    0.183759   -0.605682
     67          1           0        0.970206    1.192647   -1.024000
     68          6           0        1.941343   -0.724954   -1.373348
     69          6           0        1.432817    0.195893    0.877031
     70          1           0        1.432004   -0.849549    1.213770
     71          1           0        2.479719    0.519375    0.923448
     72          8           0        1.754215   -1.939783   -1.414410
     73          6           0        0.565764    1.045290    1.822683
     74          1           0       -0.480357    0.727485    1.707187
     75          6           0        0.973962    0.777389    3.279125
     76          1           0        2.013149    1.080276    3.456636
     77          1           0        0.338378    1.336866    3.976595
     78          1           0        0.897539   -0.289081    3.528360
     79          6           0        0.635288    2.543702    1.497605
     80          1           0        1.670006    2.905907    1.554513
     81          1           0        0.243073    2.753463    0.498289
     82          1           0        0.041483    3.123214    2.215474
     83          7           0        3.008608   -0.101310   -1.945295
     84          1           0        3.186615    0.847162   -1.637142
     85          6           0        4.192049   -0.889294   -2.262117
     86          1           0        3.830777   -1.768753   -2.798368
     87          6           0        4.818059   -1.375512   -0.924096
     88          6           0        5.127016   -0.101795   -3.199815
     89          1           0        4.503872    0.268910   -4.021414
     90          1           0        5.528523    0.772405   -2.668935
     91          8           0        4.488202   -0.878151    0.154775
     92          6           0        6.291023   -0.921081   -3.799843
     93          1           0        7.034226   -1.149081   -3.029735
     94          1           0        6.768805   -0.316591   -4.576232
     95          6           0        5.769272   -2.220911   -4.435642
     96          8           0        5.795513   -3.252537   -3.627935
     97          8           0        5.307604   -2.235021   -5.573531
     98          7           0        5.668240   -2.417934   -1.051375
     99          1           0        5.846478   -2.792102   -2.000257
    100          6           0        6.046366   -3.240155    0.073429
    101          1           0        5.662894   -2.736578    0.970117
    102          6           0        7.557441   -3.349742    0.259258
    103          6           0        5.418334   -4.648903   -0.031174
    104          1           0        5.667143   -5.192380    0.884538
    105          1           0        5.901114   -5.196142   -0.851213
    106          8           0        8.101513   -4.261087    0.845595
    107          6           0        3.891121   -4.609154   -0.253434
    108          1           0        3.461900   -3.700977    0.185020
    109          1           0        3.419477   -5.452209    0.273156
    110          6           0        3.444348   -4.637412   -1.719965
    111          1           0        3.960048   -3.874614   -2.293407
    112          1           0        2.371226   -4.431207   -1.789446
    113          7           0        3.738609   -5.945018   -2.341825
    114          1           0        3.515907   -6.757279   -1.781492
    115          7           0        4.388827   -5.213015   -4.455327
    116          1           0        4.385332   -5.383143   -5.452592
    117          1           0        4.980481   -4.329722   -4.116436
    118          7           0        3.671984   -7.405621   -4.148152
    119          1           0        4.186578   -7.737532   -4.950916
    120          1           0        3.268217   -8.114701   -3.554423
    121          6           0        3.950235   -6.162078   -3.655885
    122          8           0        8.232467   -2.308436   -0.273443
    123          1           0        9.174795   -2.469598   -0.076450
 ---------------------------------------------------------------------

 SCF Done:  E(RB3LYP) =  -2974.20985999     A.U. after    1 cycles

 Alpha  occ. eigenvalues --  -19.28892 -19.26378 -19.23024 -19.23001 -19.19513
 Alpha  occ. eigenvalues --  -19.17366 -19.17195 -19.16238 -19.14381 -19.13197
 Alpha  occ. eigenvalues --  -19.10849 -14.59185 -14.49192 -14.47121 -14.44577
 Alpha  occ. eigenvalues --  -14.43981 -14.43356 -14.40780 -14.40018 -14.39943
 Alpha  occ. eigenvalues --  -14.37326 -10.43151 -10.40031 -10.39749 -10.39453
 Alpha  occ. eigenvalues --  -10.36450 -10.35383 -10.35288 -10.34354 -10.33938
 Alpha  occ. eigenvalues --  -10.33510 -10.33010 -10.32254 -10.32027 -10.31290
 Alpha  occ. eigenvalues --  -10.30766 -10.30438 -10.30343 -10.30159 -10.30146
 Alpha  occ. eigenvalues --  -10.29864 -10.29471 -10.29039 -10.27800 -10.27762
 Alpha  occ. eigenvalues --  -10.27570 -10.27468 -10.27249 -10.27022 -10.27009
 Alpha  occ. eigenvalues --  -10.26329 -10.26309 -10.26290 -10.26038 -10.23968
 Alpha  occ. eigenvalues --  -10.23736 -10.23001 -10.22905 -10.22623 -10.22575
 Alpha  occ. eigenvalues --  -10.21686 -10.20354  -1.18745  -1.16054  -1.14993
 Alpha  occ. eigenvalues --   -1.13873  -1.13300  -1.11354  -1.09110  -1.08041
 Alpha  occ. eigenvalues --   -1.07886  -1.05961  -1.05953  -1.05083  -1.04771
 Alpha  occ. eigenvalues --   -1.03310  -0.99966  -0.97795  -0.97522  -0.97507
 Alpha  occ. eigenvalues --   -0.96703  -0.96572  -0.95301  -0.94631  -0.93770
 Alpha  occ. eigenvalues --   -0.93051  -0.89500  -0.86844  -0.86023  -0.85727
 Alpha  occ. eigenvalues --   -0.85713  -0.84617  -0.84202  -0.83257  -0.82593
 Alpha  occ. eigenvalues --   -0.81363  -0.79532  -0.79240  -0.79081  -0.77290
 Alpha  occ. eigenvalues --   -0.74564  -0.73962  -0.73525  -0.73065  -0.72958
 Alpha  occ. eigenvalues --   -0.72790  -0.72559  -0.71694  -0.71486  -0.70665
 Alpha  occ. eigenvalues --   -0.70036  -0.69663  -0.69493  -0.69218  -0.67316
 Alpha  occ. eigenvalues --   -0.66582  -0.66567  -0.65869  -0.65279  -0.64716
 Alpha  occ. eigenvalues --   -0.64003  -0.63329  -0.62872  -0.62725  -0.62555
 Alpha  occ. eigenvalues --   -0.62236  -0.61815  -0.61485  -0.61171  -0.61074
 Alpha  occ. eigenvalues --   -0.60068  -0.58822  -0.58147  -0.57465  -0.57456
 Alpha  occ. eigenvalues --   -0.57344  -0.57079  -0.56911  -0.56449  -0.56034
 Alpha  occ. eigenvalues --   -0.55684  -0.55460  -0.54917  -0.54225  -0.53896
 Alpha  occ. eigenvalues --   -0.53447  -0.53290  -0.53244  -0.53002  -0.52684
 Alpha  occ. eigenvalues --   -0.52531  -0.52056  -0.51876  -0.51805  -0.51421
 Alpha  occ. eigenvalues --   -0.51349  -0.51048  -0.50826  -0.50726  -0.50701
 Alpha  occ. eigenvalues --   -0.50204  -0.49825  -0.49607  -0.49326  -0.48947
 Alpha  occ. eigenvalues --   -0.48827  -0.48777  -0.48514  -0.48321  -0.47823
 Alpha  occ. eigenvalues --   -0.47515  -0.47451  -0.47253  -0.47033  -0.46913
 Alpha  occ. eigenvalues --   -0.46777  -0.46393  -0.46049  -0.45899  -0.45616
 Alpha  occ. eigenvalues --   -0.45407  -0.45204  -0.45085  -0.44847  -0.44494
 Alpha  occ. eigenvalues --   -0.44250  -0.44100  -0.43885  -0.43448  -0.43253
 Alpha  occ. eigenvalues --   -0.43019  -0.42809  -0.42246  -0.42019  -0.41760
 Alpha  occ. eigenvalues --   -0.41677  -0.41482  -0.41141  -0.40992  -0.40891
 Alpha  occ. eigenvalues --   -0.40365  -0.39643  -0.39111  -0.39075  -0.38643
 Alpha  occ. eigenvalues --   -0.38323  -0.37677  -0.37505  -0.37335  -0.37110
 Alpha  occ. eigenvalues --   -0.36900  -0.36830  -0.36696  -0.36574  -0.36093
 Alpha  occ. eigenvalues --   -0.35002  -0.34720  -0.34684  -0.33533  -0.32468
 Alpha  occ. eigenvalues --   -0.31929  -0.31747  -0.31485  -0.30913  -0.30318
 Alpha  occ. eigenvalues --   -0.30036  -0.29305  -0.28545  -0.27966  -0.27767
 Alpha  occ. eigenvalues --   -0.27240  -0.24715
 Alpha virt. eigenvalues --   -0.13042  -0.12005  -0.10840  -0.09770  -0.09381
 Alpha virt. eigenvalues --   -0.08450  -0.07708  -0.06449  -0.05070  -0.04315
 Alpha virt. eigenvalues --   -0.03439  -0.03216  -0.02578  -0.02424  -0.02297

 Mulliken charges:
               1
     1  N   -0.751663
     2  H    0.414785
     3  H    0.405793
     4  H    0.425739
     5  C   -0.117410
     6  H    0.241447
     7  C    0.649747
     8  C   -0.373560
     9  H    0.204473
    10  H    0.183540
    11  O   -0.549381
    12  C    0.109555
    13  C   -0.196487
    14  H    0.154619
    15  C   -0.215214
    16  H    0.151229
    17  C   -0.125407
    18  H    0.165042
    19  C   -0.121118
    20  H    0.166963
    21  C   -0.124161
    22  H    0.168331
    23  N   -0.621072
    24  H    0.405387
    25  C   -0.054616
    26  H    0.197183
    27  C    0.637407
    28  C   -0.463475
    29  H    0.164243
    30  H    0.178717
    31  H    0.189750
    32  O   -0.548819
    33  N   -0.597776
    34  H    0.344277
    35  C   -0.087739
    36  H    0.209884
    37  C    0.632184
    38  C   -0.463221
    39  H    0.195546
    40  H    0.166424
    41  H    0.157927
    42  O   -0.522233
    43  N   -0.630957
    44  H    0.387311
    45  C   -0.068339
    46  H    0.189761
    47  C    0.625796
    48  C   -0.353457
    49  H    0.195047
    50  H    0.149291
    51  O   -0.533249
    52  C    0.118939
    53  C   -0.187524
    54  H    0.138569
    55  C   -0.201663
    56  H    0.211061
    57  C   -0.177709
    58  H    0.115231
    59  C   -0.171659
    60  H    0.139863
    61  O   -0.692724
    62  H    0.422222
    63  C    0.349971
    64  N   -0.599577
    65  H    0.374447
    66  C   -0.099283
    67  H    0.177582
    68  C    0.653123
    69  C   -0.259914
    70  H    0.143186
    71  H    0.176948
    72  O   -0.548569
    73  C   -0.081569
    74  H    0.111187
    75  C   -0.446684
    76  H    0.157652
    77  H    0.134082
    78  H    0.132263
    79  C   -0.463040
    80  H    0.141979
    81  H    0.178579
    82  H    0.127818
    83  N   -0.584731
    84  H    0.331098
    85  C   -0.095322
    86  H    0.204663
    87  C    0.615437
    88  C   -0.283947
    89  H    0.172609
    90  H    0.139035
    91  O   -0.557989
    92  C   -0.348240
    93  H    0.160625
    94  H    0.158429
    95  C    0.588957
    96  O   -0.668173
    97  O   -0.532742
    98  N   -0.629278
    99  H    0.410331
   100  C   -0.067794
   101  H    0.204217
   102  C    0.592956
   103  C   -0.270613
   104  H    0.166007
   105  H    0.154006
   106  O   -0.471311
   107  C   -0.307126
   108  H    0.188866
   109  H    0.124448
   110  C   -0.146609
   111  H    0.201334
   112  H    0.190845
   113  N   -0.608282
   114  H    0.329920
   115  N   -0.778375
   116  H    0.346204
   117  H    0.467977
   118  N   -0.765223
   119  H    0.361132
   120  H    0.350418
   121  C    0.774986
   122  O   -0.553941
   123  H    0.412363
 Sum of Mulliken charges =   1.00000

 Dipole moment (field-independent basis, Debye):
    X=            -33.6380    Y=              0.1683    Z=             25.0689  Tot=             41.9522
 Quadrupole moment (field-independent basis, Debye-Ang):
   XX=            -93.1657   YY=           -208.2042   ZZ=           -204.8124
   XY=           -107.8331   XZ=           -207.2096   YZ=            108.5401

 Normal termination of Gaussian 16 at Tue Aug  2 21:47:26 2022.
