 Gaussian 16, Revision C.01,
 Gaussian 16:  ES64L-G16RevC.01  3-Jul-2019

 ----------------------------------------------------------------------
 # B3LYP/6-31G* empiricaldispersion=gd3 guess=read geom=check nosymm in
 tegral(ultrafinegrid)
 ----------------------------------------------------------------------

 ------------------------------------------------------
 Candidate Structure: Conf:684 Charge calc in gas phase
 ------------------------------------------------------
 Structure from the checkpoint file:  "conf-684.chk"
 Charge =  1 Multiplicity = 1

                          Input orientation:
 ---------------------------------------------------------------------
 Center     Atomic      Atomic             Coordinates (Angstroms)
 Number     Number       Type             X           Y           Z
 ---------------------------------------------------------------------
      1          7           0      -10.509252    5.245229    6.235668
      2          1           0      -10.770798    5.791431    5.411177
      3          1           0      -10.766725    5.765955    7.074539
      4          1           0      -11.037469    4.363814    6.197587
      5          6           0       -9.068482    4.884928    6.219788
      6          1           0       -8.468126    5.770268    5.993263
      7          6           0       -8.892172    3.818330    5.135829
      8          6           0       -8.628318    4.324130    7.580688
      9          1           0       -9.235198    3.438960    7.790707
     10          1           0       -8.853376    5.076004    8.344338
     11          8           0       -9.804133    3.032618    4.892644
     12          6           0       -7.161826    3.970269    7.587783
     13          6           0       -6.751913    2.647240    7.422107
     14          1           0       -7.498157    1.868283    7.298370
     15          6           0       -6.196249    4.970757    7.702511
     16          1           0       -6.516315    6.004011    7.810796
     17          6           0       -5.395197    2.329279    7.382258
     18          1           0       -5.089379    1.297474    7.241613
     19          6           0       -4.839011    4.655280    7.672835
     20          1           0       -4.101284    5.442696    7.771441
     21          6           0       -4.438257    3.331161    7.513809
     22          1           0       -3.383334    3.081650    7.483546
     23          7           0       -7.691393    3.792130    4.538155
     24          1           0       -6.926547    4.375340    4.859258
     25          6           0       -7.294747    2.720683    3.646870
     26          1           0       -7.663151    1.770266    4.048221
     27          6           0       -5.760422    2.732090    3.652976
     28          6           0       -7.861952    2.907163    2.237956
     29          1           0       -7.540960    2.102416    1.571521
     30          1           0       -7.522178    3.859163    1.820639
     31          1           0       -8.951178    2.913440    2.287097
     32          8           0       -5.133140    3.731205    3.981421
     33          7           0       -5.174139    1.598834    3.225892
     34          1           0       -5.701072    0.776479    2.968308
     35          6           0       -3.740138    1.497507    3.033503
     36          1           0       -3.398878    2.402522    2.521868
     37          6           0       -3.540249    0.274491    2.134967
     38          6           0       -2.983051    1.368042    4.355108
     39          1           0       -1.912252    1.249288    4.174731
     40          1           0       -3.347739    0.505373    4.920550
     41          1           0       -3.147401    2.271600    4.944893
     42          8           0       -4.362093   -0.633255    2.102066
     43          7           0       -2.405801    0.275726    1.400404
     44          1           0       -1.673151    0.954731    1.548458
     45          6           0       -2.132881   -0.740965    0.412723
     46          1           0       -2.668299   -1.646703    0.700423
     47          6           0       -0.622595   -0.942673    0.380767
     48          6           0       -2.610149   -0.305265   -1.000207
     49          1           0       -1.964359    0.507969   -1.350109
     50          1           0       -2.463486   -1.146196   -1.684526
     51          8           0        0.134947   -0.069658    0.796986
     52          6           0       -4.038471    0.169102   -1.019390
     53          6           0       -4.322637    1.525130   -0.815906
     54          1           0       -3.504660    2.224077   -0.670196
     55          6           0       -5.110914   -0.703974   -1.209208
     56          1           0       -4.920502   -1.759150   -1.382989
     57          6           0       -5.635141    1.990043   -0.772058
     58          1           0       -5.848459    3.040881   -0.617438
     59          6           0       -6.430474   -0.251021   -1.170420
     60          1           0       -7.248818   -0.949304   -1.315829
     61          8           0       -7.964212    1.605587   -0.869144
     62          1           0       -8.588262    0.877920   -0.965470
     63          6           0       -6.687315    1.098618   -0.943407
     64          7           0       -0.170868   -2.088643   -0.193167
     65          1           0       -0.827939   -2.665597   -0.693326
     66          6           0        1.237184   -2.175644   -0.591035
     67          1           0        1.791622   -1.687773    0.211766
     68          6           0        1.391066   -1.371598   -1.884951
     69          6           0        1.713794   -3.607862   -0.733836
     70          1           0        1.580332   -4.090244    0.239888
     71          1           0        1.078703   -4.133815   -1.452647
     72          8           0        1.373089   -1.877285   -3.005118
     73          6           0        3.184551   -3.738883   -1.172781
     74          1           0        3.227121   -3.534704   -2.246316
     75          6           0        4.095004   -2.731328   -0.467141
     76          1           0        3.968223   -2.789917    0.619383
     77          1           0        5.143843   -2.943555   -0.692279
     78          1           0        3.890434   -1.702441   -0.779249
     79          6           0        3.656945   -5.172541   -0.928976
     80          1           0        3.669278   -5.393783    0.142634
     81          1           0        2.995633   -5.894369   -1.416893
     82          1           0        4.667382   -5.326515   -1.318028
     83          7           0        1.428902   -0.036463   -1.677489
     84          1           0        1.452506    0.309995   -0.727781
     85          6           0        1.640185    0.920806   -2.739104
     86          1           0        1.157020    0.516172   -3.632294
     87          6           0        3.144090    1.066788   -2.978165
     88          6           0        0.995149    2.254805   -2.348025
     89          1           0        1.535061    2.682961   -1.502816
     90          1           0        1.079554    2.959731   -3.180642
     91          8           0        3.919420    1.383115   -2.085306
     92          6           0       -0.484516    2.085158   -1.989627
     93          1           0       -0.581396    1.467059   -1.093346
     94          1           0       -1.018824    1.620952   -2.824355
     95          6           0       -1.089318    3.476791   -1.687640
     96          8           0       -0.974512    3.856192   -0.502554
     97          8           0       -1.605894    4.066491   -2.657719
     98          7           0        3.545087    0.782148   -4.247696
     99          1           0        2.856943    0.513862   -4.930793
    100          6           0        4.933462    0.899609   -4.658689
    101          1           0        5.530643    0.879057   -3.745407
    102          6           0        5.117847    2.244799   -5.345175
    103          6           0        5.315447   -0.241883   -5.593796
    104          1           0        4.702690   -0.176261   -6.497304
    105          1           0        5.062487   -1.177590   -5.088581
    106          8           0        4.945812    2.440899   -6.526273
    107          6           0        6.793673   -0.241038   -5.968285
    108          1           0        7.402012   -0.231169   -5.058523
    109          1           0        7.031229    0.664594   -6.531497
    110          6           0        7.159598   -1.456794   -6.805439
    111          1           0        6.567201   -1.450507   -7.726158
    112          1           0        6.921529   -2.379121   -6.260587
    113          7           0        8.592961   -1.413840   -7.153151
    114          1           0        9.185082   -1.004533   -6.443187
    115          7           0        8.458843   -3.337274   -8.476203
    116          1           0        8.859559   -3.868466   -9.233696
    117          1           0        7.455122   -3.254052   -8.478904
    118          7           0       10.534661   -2.365390   -7.992569
    119          1           0       10.953097   -2.939250   -8.709716
    120          1           0       11.008258   -1.486150   -7.834030
    121          6           0        9.184146   -2.367253   -7.890939
    122          8           0        5.459081    3.213849   -4.475177
    123          1           0        5.510309    4.035940   -4.985819
 ---------------------------------------------------------------------

 SCF Done:  E(RB3LYP) =  -2974.05680704     A.U. after    1 cycles

 Alpha  occ. eigenvalues --  -19.24845 -19.22973 -19.20455 -19.19616 -19.17236
 Alpha  occ. eigenvalues --  -19.16008 -19.15100 -19.14360 -19.13799 -19.00836
 Alpha  occ. eigenvalues --  -19.00777 -14.61247 -14.52799 -14.52261 -14.52095
 Alpha  occ. eigenvalues --  -14.45350 -14.40784 -14.40581 -14.40465 -14.38753
 Alpha  occ. eigenvalues --  -14.37266 -10.47951 -10.40025 -10.38890 -10.37384
 Alpha  occ. eigenvalues --  -10.35570 -10.34199 -10.32777 -10.32329 -10.32112
 Alpha  occ. eigenvalues --  -10.31378 -10.30613 -10.30240 -10.29571 -10.29379
 Alpha  occ. eigenvalues --  -10.28771 -10.27371 -10.27154 -10.27153 -10.27063
 Alpha  occ. eigenvalues --  -10.26719 -10.26666 -10.26585 -10.26497 -10.26380
 Alpha  occ. eigenvalues --  -10.26096 -10.24268 -10.23473 -10.22105 -10.22082
 Alpha  occ. eigenvalues --  -10.21821 -10.21024 -10.20987 -10.20921 -10.20817
 Alpha  occ. eigenvalues --  -10.20570 -10.20519 -10.19958 -10.19878 -10.19244
 Alpha  occ. eigenvalues --  -10.17810 -10.13927  -1.17366  -1.17095  -1.16200
 Alpha  occ. eigenvalues --   -1.13913  -1.09737  -1.08549  -1.08410  -1.07315
 Alpha  occ. eigenvalues --   -1.07260  -1.06773  -1.06392  -1.05775  -1.05545
 Alpha  occ. eigenvalues --   -1.02233  -0.97514  -0.97461  -0.96947  -0.95870
 Alpha  occ. eigenvalues --   -0.95226  -0.94567  -0.94322  -0.91487  -0.90863
 Alpha  occ. eigenvalues --   -0.87167  -0.85684  -0.85416  -0.85075  -0.84512
 Alpha  occ. eigenvalues --   -0.83494  -0.82511  -0.82091  -0.80317  -0.79791
 Alpha  occ. eigenvalues --   -0.79097  -0.78170  -0.77720  -0.76802  -0.76416
 Alpha  occ. eigenvalues --   -0.75138  -0.74709  -0.74560  -0.73536  -0.72988
 Alpha  occ. eigenvalues --   -0.71927  -0.71486  -0.71115  -0.70646  -0.70113
 Alpha  occ. eigenvalues --   -0.68985  -0.68699  -0.67953  -0.66808  -0.66450
 Alpha  occ. eigenvalues --   -0.65815  -0.65562  -0.65115  -0.64548  -0.64182
 Alpha  occ. eigenvalues --   -0.63847  -0.63374  -0.62781  -0.61812  -0.61614
 Alpha  occ. eigenvalues --   -0.61407  -0.60826  -0.60718  -0.60176  -0.59498
 Alpha  occ. eigenvalues --   -0.59430  -0.59161  -0.58432  -0.58184  -0.56752
 Alpha  occ. eigenvalues --   -0.56410  -0.56217  -0.55945  -0.54839  -0.54557
 Alpha  occ. eigenvalues --   -0.54481  -0.53945  -0.53467  -0.52976  -0.52830
 Alpha  occ. eigenvalues --   -0.52263  -0.51899  -0.51637  -0.51194  -0.51020
 Alpha  occ. eigenvalues --   -0.50479  -0.50037  -0.49895  -0.49743  -0.49611
 Alpha  occ. eigenvalues --   -0.49407  -0.49382  -0.48869  -0.48736  -0.48669
 Alpha  occ. eigenvalues --   -0.48160  -0.47727  -0.47567  -0.46886  -0.46674
 Alpha  occ. eigenvalues --   -0.46261  -0.46074  -0.45525  -0.45385  -0.45226
 Alpha  occ. eigenvalues --   -0.45072  -0.44721  -0.44512  -0.44161  -0.44091
 Alpha  occ. eigenvalues --   -0.43932  -0.43857  -0.43707  -0.43401  -0.43115
 Alpha  occ. eigenvalues --   -0.43016  -0.42836  -0.42727  -0.42676  -0.42520
 Alpha  occ. eigenvalues --   -0.42359  -0.42152  -0.42044  -0.41749  -0.41486
 Alpha  occ. eigenvalues --   -0.41430  -0.41037  -0.40589  -0.40359  -0.40162
 Alpha  occ. eigenvalues --   -0.40030  -0.39228  -0.39020  -0.38327  -0.37800
 Alpha  occ. eigenvalues --   -0.37378  -0.37282  -0.37056  -0.36288  -0.36166
 Alpha  occ. eigenvalues --   -0.35822  -0.35652  -0.35352  -0.34922  -0.34646
 Alpha  occ. eigenvalues --   -0.33928  -0.33730  -0.33268  -0.32989  -0.32689
 Alpha  occ. eigenvalues --   -0.31625  -0.31500  -0.30594  -0.30447  -0.30077
 Alpha  occ. eigenvalues --   -0.29847  -0.29168  -0.28860  -0.28791  -0.28422
 Alpha  occ. eigenvalues --   -0.26918  -0.26537  -0.26128  -0.23729  -0.16701
 Alpha  occ. eigenvalues --   -0.15434  -0.14615
 Alpha virt. eigenvalues --   -0.13839  -0.11235  -0.09163  -0.09033  -0.08756
 Alpha virt. eigenvalues --   -0.08216  -0.05251  -0.05244  -0.04872  -0.03821
 Alpha virt. eigenvalues --   -0.03594  -0.03424  -0.03139  -0.03054  -0.01951

 Mulliken charges:
               1
     1  N   -0.717176
     2  H    0.430299
     3  H    0.418119
     4  H    0.423147
     5  C   -0.144956
     6  H    0.217667
     7  C    0.636702
     8  C   -0.372387
     9  H    0.185211
    10  H    0.171350
    11  O   -0.536384
    12  C    0.154136
    13  C   -0.180039
    14  H    0.143406
    15  C   -0.193032
    16  H    0.126190
    17  C   -0.124470
    18  H    0.158551
    19  C   -0.113172
    20  H    0.161312
    21  C   -0.110183
    22  H    0.163034
    23  N   -0.590094
    24  H    0.370433
    25  C   -0.049617
    26  H    0.172746
    27  C    0.629750
    28  C   -0.453455
    29  H    0.199197
    30  H    0.171471
    31  H    0.165630
    32  O   -0.540617
    33  N   -0.622571
    34  H    0.354689
    35  C   -0.033392
    36  H    0.210019
    37  C    0.623351
    38  C   -0.460196
    39  H    0.167255
    40  H    0.147736
    41  H    0.179926
    42  O   -0.546329
    43  N   -0.612192
    44  H    0.373081
    45  C   -0.055321
    46  H    0.176987
    47  C    0.645322
    48  C   -0.388914
    49  H    0.200421
    50  H    0.132220
    51  O   -0.539179
    52  C    0.185129
    53  C   -0.207387
    54  H    0.195853
    55  C   -0.167724
    56  H    0.113841
    57  C   -0.173707
    58  H    0.145790
    59  C   -0.194329
    60  H    0.111363
    61  O   -0.657422
    62  H    0.403372
    63  C    0.344290
    64  N   -0.609557
    65  H    0.335399
    66  C   -0.070845
    67  H    0.184695
    68  C    0.621125
    69  C   -0.265269
    70  H    0.137857
    71  H    0.141589
    72  O   -0.561099
    73  C   -0.073555
    74  H    0.145936
    75  C   -0.465742
    76  H    0.144688
    77  H    0.130659
    78  H    0.167733
    79  C   -0.444854
    80  H    0.142508
    81  H    0.142144
    82  H    0.130392
    83  N   -0.589728
    84  H    0.377854
    85  C   -0.060142
    86  H    0.148937
    87  C    0.641865
    88  C   -0.299854
    89  H    0.170927
    90  H    0.152068
    91  O   -0.526015
    92  C   -0.323486
    93  H    0.124670
    94  H    0.110544
    95  C    0.538454
    96  O   -0.616535
    97  O   -0.584788
    98  N   -0.618526
    99  H    0.344432
   100  C   -0.014537
   101  H    0.196681
   102  C    0.580228
   103  C   -0.288885
   104  H    0.167503
   105  H    0.167423
   106  O   -0.472183
   107  C   -0.316530
   108  H    0.159000
   109  H    0.189738
   110  C   -0.160380
   111  H    0.185043
   112  H    0.188886
   113  N   -0.591077
   114  H    0.366459
   115  N   -0.734186
   116  H    0.377839
   117  H    0.392357
   118  N   -0.735601
   119  H    0.373024
   120  H    0.380292
   121  C    0.760547
   122  O   -0.538785
   123  H    0.417917
 Sum of Mulliken charges =   1.00000

 Dipole moment (field-independent basis, Debye):
    X=              2.4425    Y=             -3.4277    Z=             -2.2241  Tot=              4.7604
 Quadrupole moment (field-independent basis, Debye-Ang):
   XX=            347.7012   YY=           -276.3271   ZZ=             49.2054
   XY=           -255.9378   XZ=           -539.1407   YZ=            233.8696

 Normal termination of Gaussian 16 at Tue Aug  2 21:47:14 2022.
