 Gaussian 16, Revision C.01,
 Gaussian 16:  ES64L-G16RevC.01  3-Jul-2019

 ----------------------------------------------------------------------
 # B3LYP/6-31G* empiricaldispersion=gd3 guess=read geom=check nosymm in
 tegral(ultrafinegrid)
 ----------------------------------------------------------------------

 ------------------------------------------------------
 Candidate Structure: Conf:961 Charge calc in gas phase
 ------------------------------------------------------
 Structure from the checkpoint file:  "conf-961.chk"
 Charge =  1 Multiplicity = 1

                          Input orientation:
 ---------------------------------------------------------------------
 Center     Atomic      Atomic             Coordinates (Angstroms)
 Number     Number       Type             X           Y           Z
 ---------------------------------------------------------------------
      1          7           0       -6.125416    0.507077   10.998661
      2          1           0       -6.961389   -0.047048   11.202226
      3          1           0       -5.933874    1.125049   11.801922
      4          1           0       -5.332064   -0.157729   10.790743
      5          6           0       -6.241282    1.294444    9.714537
      6          1           0       -7.301150    1.434257    9.492943
      7          6           0       -5.525175    0.394954    8.678023
      8          6           0       -5.529854    2.660266    9.869142
      9          1           0       -5.709099    3.220418    8.945404
     10          1           0       -4.448982    2.485907    9.930755
     11          8           0       -4.796680   -0.511306    9.110776
     12          6           0       -6.024414    3.412988   11.084099
     13          6           0       -7.267202    4.062394   11.065639
     14          1           0       -7.847432    4.092126   10.145720
     15          6           0       -5.281195    3.397336   12.275359
     16          1           0       -4.294075    2.937121   12.291221
     17          6           0       -7.753809    4.687607   12.212641
     18          1           0       -8.711074    5.199544   12.182758
     19          6           0       -5.773066    4.019978   13.427691
     20          1           0       -5.182109    4.013103   14.338702
     21          6           0       -7.010070    4.663062   13.396988
     22          1           0       -7.390917    5.153204   14.287793
     23          7           0       -5.717044    0.711233    7.406528
     24          1           0       -6.288136    1.506493    7.103560
     25          6           0       -5.027806    0.085853    6.279153
     26          1           0       -3.954218    0.053229    6.498832
     27          6           0       -5.290758    1.050029    5.097146
     28          6           0       -5.542124   -1.334558    6.005023
     29          1           0       -5.005068   -1.781673    5.163396
     30          1           0       -6.609208   -1.314530    5.762144
     31          1           0       -5.383630   -1.961469    6.886408
     32          8           0       -6.077336    1.995405    5.236437
     33          7           0       -4.634565    0.766099    3.970113
     34          1           0       -3.997272   -0.024415    3.886746
     35          6           0       -4.766165    1.528661    2.735619
     36          1           0       -5.830821    1.698948    2.537559
     37          6           0       -4.139447    0.646227    1.645035
     38          6           0       -4.024834    2.875959    2.814856
     39          1           0       -4.148965    3.444330    1.888864
     40          1           0       -2.953233    2.708748    2.954060
     41          1           0       -4.425765    3.459892    3.647427
     42          8           0       -3.430223   -0.314762    1.949725
     43          7           0       -4.371009    1.020496    0.368378
     44          1           0       -4.875922    1.881607    0.204718
     45          6           0       -3.459548    0.584447   -0.683188
     46          1           0       -3.533347   -0.504319   -0.769631
     47          6           0       -2.025500    1.002668   -0.284853
     48          6           0       -3.833201    1.254089   -2.022454
     49          1           0       -3.610792    2.325049   -1.936288
     50          1           0       -3.157632    0.854262   -2.787954
     51          8           0       -1.835877    2.069564    0.299134
     52          6           0       -5.278549    1.045331   -2.411659
     53          6           0       -5.743664   -0.219106   -2.805251
     54          1           0       -5.045560   -1.051186   -2.865822
     55          6           0       -6.200186    2.094730   -2.352793
     56          1           0       -5.864277    3.090713   -2.069905
     57          6           0       -7.078330   -0.431888   -3.126604
     58          1           0       -7.436937   -1.407497   -3.438514
     59          6           0       -7.545584    1.899081   -2.672432
     60          1           0       -8.244885    2.731940   -2.628622
     61          8           0       -9.286620    0.362273   -3.387795
     62          1           0       -9.805902    1.180171   -3.344798
     63          6           0       -7.988405    0.631659   -3.060214
     64          7           0       -1.057679    0.141763   -0.647085
     65          1           0       -1.260913   -0.680554   -1.206906
     66          6           0        0.360624    0.377490   -0.436061
     67          1           0        0.518004    1.458170   -0.374874
     68          6           0        1.085329   -0.213664   -1.659377
     69          6           0        0.876787   -0.317612    0.846091
     70          1           0        0.734401   -1.398012    0.707698
     71          1           0        1.961269   -0.150740    0.913762
     72          8           0        0.555891   -1.102199   -2.331585
     73          6           0        0.207119    0.123213    2.161018
     74          1           0       -0.878463    0.013886    2.043709
     75          6           0        0.653439   -0.806891    3.299327
     76          1           0        1.738791   -0.747335    3.455022
     77          1           0        0.168856   -0.530103    4.243986
     78          1           0        0.402535   -1.852950    3.085860
     79          6           0        0.510844    1.588274    2.504601
     80          1           0        1.593210    1.755192    2.590777
     81          1           0        0.104125    2.266413    1.750315
     82          1           0        0.058871    1.858387    3.467851
     83          7           0        2.320214    0.269282   -1.885260
     84          1           0        2.719968    1.007813   -1.314658
     85          6           0        3.195077   -0.221786   -2.942031
     86          1           0        3.105819   -1.309707   -2.998113
     87          6           0        4.622927    0.164292   -2.517202
     88          6           0        2.773604    0.382384   -4.305545
     89          1           0        1.753700    0.027251   -4.489701
     90          1           0        2.721168    1.470836   -4.177300
     91          8           0        4.842379    1.114417   -1.761856
     92          6           0        3.662009    0.090246   -5.530124
     93          1           0        4.655696    0.525967   -5.368865
     94          1           0        3.218408    0.589767   -6.395858
     95          6           0        3.865725   -1.380624   -5.911855
     96          8           0        4.514294   -2.110008   -5.041321
     97          8           0        3.490484   -1.797491   -7.016653
     98          7           0        5.577703   -0.642291   -3.025955
     99          1           0        5.269589   -1.293425   -3.771201
    100          6           0        6.981388   -0.373652   -2.839696
    101          1           0        7.167253   -0.143893   -1.785857
    102          6           0        7.440438    0.838062   -3.653731
    103          6           0        7.800175   -1.619186   -3.247260
    104          1           0        7.395095   -2.456350   -2.664921
    105          1           0        8.838552   -1.481974   -2.929620
    106          8           0        6.893724    1.282580   -4.637248
    107          6           0        7.738080   -1.941537   -4.760454
    108          1           0        8.606918   -1.508896   -5.272319
    109          1           0        6.850696   -1.495551   -5.216618
    110          6           0        7.691875   -3.454633   -5.009318
    111          1           0        6.787098   -3.882797   -4.568742
    112          1           0        8.544000   -3.957332   -4.538816
    113          7           0        7.720096   -3.817557   -6.431822
    114          1           0        8.604365   -3.671140   -6.900745
    115          7           0        5.408819   -3.786953   -6.768325
    116          1           0        4.643118   -3.634060   -7.424264
    117          1           0        5.138496   -3.216496   -5.885340
    118          7           0        6.868375   -4.026065   -8.574060
    119          1           0        6.069151   -4.194939   -9.169032
    120          1           0        7.716753   -4.490270   -8.868381
    121          6           0        6.634669   -3.866099   -7.237814
    122          8           0        8.605012    1.329009   -3.167909
    123          1           0        8.852953    2.078566   -3.741697
 ---------------------------------------------------------------------

 SCF Done:  E(RB3LYP) =  -2974.19593225     A.U. after    1 cycles

 Alpha  occ. eigenvalues --  -19.25839 -19.23603 -19.22382 -19.20955 -19.18739
 Alpha  occ. eigenvalues --  -19.17946 -19.15486 -19.14648 -19.14278 -19.12952
 Alpha  occ. eigenvalues --  -19.11168 -14.59173 -14.48436 -14.44770 -14.44604
 Alpha  occ. eigenvalues --  -14.44180 -14.42248 -14.40301 -14.39877 -14.38743
 Alpha  occ. eigenvalues --  -14.37124 -10.42679 -10.40192 -10.39826 -10.37926
 Alpha  occ. eigenvalues --  -10.35660 -10.35433 -10.33853 -10.33742 -10.32768
 Alpha  occ. eigenvalues --  -10.32028 -10.31777 -10.30951 -10.30802 -10.30720
 Alpha  occ. eigenvalues --  -10.30438 -10.30170 -10.30053 -10.29781 -10.29625
 Alpha  occ. eigenvalues --  -10.29542 -10.29293 -10.28761 -10.27512 -10.27482
 Alpha  occ. eigenvalues --  -10.26743 -10.25290 -10.24861 -10.24571 -10.24269
 Alpha  occ. eigenvalues --  -10.24142 -10.24119 -10.24024 -10.23796 -10.23751
 Alpha  occ. eigenvalues --  -10.23183 -10.22068 -10.21772 -10.20892 -10.20787
 Alpha  occ. eigenvalues --  -10.19871 -10.19301  -1.18293  -1.14399  -1.13358
 Alpha  occ. eigenvalues --   -1.12732  -1.10674  -1.10437  -1.08495  -1.07546
 Alpha  occ. eigenvalues --   -1.06598  -1.05895  -1.05307  -1.05172  -1.04975
 Alpha  occ. eigenvalues --   -1.00931  -0.98949  -0.98546  -0.97503  -0.96475
 Alpha  occ. eigenvalues --   -0.96378  -0.95526  -0.95306  -0.94801  -0.92954
 Alpha  occ. eigenvalues --   -0.90199  -0.88441  -0.86033  -0.85689  -0.85349
 Alpha  occ. eigenvalues --   -0.84920  -0.83993  -0.82525  -0.81557  -0.79754
 Alpha  occ. eigenvalues --   -0.79550  -0.79330  -0.78847  -0.76964  -0.76241
 Alpha  occ. eigenvalues --   -0.74220  -0.73437  -0.73285  -0.73006  -0.72890
 Alpha  occ. eigenvalues --   -0.71495  -0.71194  -0.70971  -0.69989  -0.69768
 Alpha  occ. eigenvalues --   -0.69705  -0.68542  -0.67384  -0.67189  -0.66408
 Alpha  occ. eigenvalues --   -0.65772  -0.65685  -0.65294  -0.64712  -0.63856
 Alpha  occ. eigenvalues --   -0.63712  -0.62617  -0.62580  -0.62448  -0.62186
 Alpha  occ. eigenvalues --   -0.60889  -0.60314  -0.59794  -0.59486  -0.59094
 Alpha  occ. eigenvalues --   -0.58813  -0.57808  -0.57667  -0.57163  -0.56996
 Alpha  occ. eigenvalues --   -0.56276  -0.55891  -0.55564  -0.54919  -0.54350
 Alpha  occ. eigenvalues --   -0.54226  -0.53945  -0.53783  -0.53375  -0.53234
 Alpha  occ. eigenvalues --   -0.53131  -0.52374  -0.52193  -0.51940  -0.51670
 Alpha  occ. eigenvalues --   -0.51394  -0.51258  -0.51099  -0.51000  -0.50829
 Alpha  occ. eigenvalues --   -0.50647  -0.50545  -0.50298  -0.49678  -0.49311
 Alpha  occ. eigenvalues --   -0.48935  -0.48576  -0.48391  -0.48097  -0.47671
 Alpha  occ. eigenvalues --   -0.47331  -0.47249  -0.47090  -0.47027  -0.46938
 Alpha  occ. eigenvalues --   -0.46619  -0.46289  -0.46013  -0.45733  -0.45692
 Alpha  occ. eigenvalues --   -0.45562  -0.45534  -0.45298  -0.44955  -0.44600
 Alpha  occ. eigenvalues --   -0.44458  -0.44329  -0.44213  -0.43974  -0.43539
 Alpha  occ. eigenvalues --   -0.43447  -0.43091  -0.42647  -0.42154  -0.41949
 Alpha  occ. eigenvalues --   -0.41759  -0.41468  -0.41246  -0.41197  -0.40745
 Alpha  occ. eigenvalues --   -0.40512  -0.40453  -0.40393  -0.39691  -0.39553
 Alpha  occ. eigenvalues --   -0.39291  -0.38856  -0.38397  -0.38381  -0.37938
 Alpha  occ. eigenvalues --   -0.37341  -0.36822  -0.36539  -0.36026  -0.35970
 Alpha  occ. eigenvalues --   -0.35699  -0.35602  -0.35443  -0.35348  -0.35229
 Alpha  occ. eigenvalues --   -0.34898  -0.34105  -0.32984  -0.32656  -0.32271
 Alpha  occ. eigenvalues --   -0.31511  -0.30077  -0.29894  -0.29326  -0.29235
 Alpha  occ. eigenvalues --   -0.28382  -0.28026  -0.27742  -0.27702  -0.26977
 Alpha  occ. eigenvalues --   -0.26400  -0.24974
 Alpha virt. eigenvalues --   -0.12764  -0.12210  -0.10446  -0.09504  -0.06481
 Alpha virt. eigenvalues --   -0.05328  -0.04683  -0.04676  -0.04264  -0.03862
 Alpha virt. eigenvalues --   -0.02988  -0.02260  -0.01640  -0.01486  -0.01266

 Mulliken charges:
               1
     1  N   -0.750235
     2  H    0.415134
     3  H    0.404545
     4  H    0.426032
     5  C   -0.113302
     6  H    0.213213
     7  C    0.657664
     8  C   -0.385853
     9  H    0.211610
    10  H    0.194549
    11  O   -0.543684
    12  C    0.140452
    13  C   -0.181486
    14  H    0.148196
    15  C   -0.232115
    16  H    0.152296
    17  C   -0.122516
    18  H    0.168126
    19  C   -0.120076
    20  H    0.167693
    21  C   -0.124136
    22  H    0.169339
    23  N   -0.611786
    24  H    0.372424
    25  C   -0.053614
    26  H    0.196042
    27  C    0.633653
    28  C   -0.456430
    29  H    0.182619
    30  H    0.169360
    31  H    0.186689
    32  O   -0.554676
    33  N   -0.620445
    34  H    0.366134
    35  C   -0.054108
    36  H    0.179561
    37  C    0.641262
    38  C   -0.445417
    39  H    0.163149
    40  H    0.187544
    41  H    0.171934
    42  O   -0.538835
    43  N   -0.591689
    44  H    0.338403
    45  C   -0.033626
    46  H    0.171465
    47  C    0.646908
    48  C   -0.413109
    49  H    0.169084
    50  H    0.180154
    51  O   -0.556893
    52  C    0.186166
    53  C   -0.184086
    54  H    0.135651
    55  C   -0.212863
    56  H    0.127926
    57  C   -0.155506
    58  H    0.150191
    59  C   -0.191433
    60  H    0.124804
    61  O   -0.637188
    62  H    0.410391
    63  C    0.351012
    64  N   -0.598781
    65  H    0.349427
    66  C   -0.074145
    67  H    0.175485
    68  C    0.627236
    69  C   -0.250124
    70  H    0.142130
    71  H    0.139959
    72  O   -0.551483
    73  C   -0.084871
    74  H    0.160599
    75  C   -0.440092
    76  H    0.140166
    77  H    0.123124
    78  H    0.140453
    79  C   -0.462307
    80  H    0.131449
    81  H    0.182972
    82  H    0.120888
    83  N   -0.619150
    84  H    0.350128
    85  C   -0.049832
    86  H    0.191191
    87  C    0.600012
    88  C   -0.266734
    89  H    0.173077
    90  H    0.142605
    91  O   -0.559407
    92  C   -0.378482
    93  H    0.187501
    94  H    0.153525
    95  C    0.607032
    96  O   -0.667922
    97  O   -0.561640
    98  N   -0.646039
    99  H    0.424453
   100  C   -0.039978
   101  H    0.187475
   102  C    0.608229
   103  C   -0.300915
   104  H    0.163944
   105  H    0.166981
   106  O   -0.458892
   107  C   -0.287198
   108  H    0.140085
   109  H    0.195010
   110  C   -0.172063
   111  H    0.199783
   112  H    0.167974
   113  N   -0.598364
   114  H    0.342444
   115  N   -0.759590
   116  H    0.361996
   117  H    0.434916
   118  N   -0.757270
   119  H    0.367685
   120  H    0.353705
   121  C    0.762234
   122  O   -0.570275
   123  H    0.413411
 Sum of Mulliken charges =   1.00000

 Dipole moment (field-independent basis, Debye):
    X=            -15.7984    Y=              0.1220    Z=             32.0922  Tot=             35.7703
 Quadrupole moment (field-independent basis, Debye-Ang):
   XX=            -27.5909   YY=           -309.8910   ZZ=            190.2929
   XY=           -118.5274   XZ=           -367.6511   YZ=            120.1086

 Normal termination of Gaussian 16 at Tue Aug  2 21:47:12 2022.
