 Gaussian 16, Revision C.01,
 Gaussian 16:  ES64L-G16RevC.01  3-Jul-2019

 ----------------------------------------------------------------------
 # B3LYP/6-31G* empiricaldispersion=gd3 guess=read geom=check nosymm in
 tegral(ultrafinegrid)
 ----------------------------------------------------------------------

 ------------------------------------------------------
 Candidate Structure: Conf:365 Charge calc in gas phase
 ------------------------------------------------------
 Structure from the checkpoint file:  "conf-365.chk"
 Charge =  1 Multiplicity = 1

                          Input orientation:
 ---------------------------------------------------------------------
 Center     Atomic      Atomic             Coordinates (Angstroms)
 Number     Number       Type             X           Y           Z
 ---------------------------------------------------------------------
      1          7           0       -5.451298    4.019250    2.346720
      2          1           0       -5.520771    3.918410    1.306214
      3          1           0       -5.565138    5.008000    2.601802
      4          1           0       -6.147899    3.437712    2.840222
      5          6           0       -4.089057    3.518169    2.758515
      6          1           0       -3.406544    3.723755    1.929651
      7          6           0       -4.281195    2.026796    3.031856
      8          6           0       -3.621467    4.240551    4.036745
      9          1           0       -2.581412    3.936124    4.203016
     10          1           0       -4.206272    3.878018    4.889729
     11          8           0       -5.285491    1.673812    3.658842
     12          6           0       -3.738130    5.747606    3.913580
     13          6           0       -3.065738    6.440227    2.891602
     14          1           0       -2.450695    5.894554    2.180321
     15          6           0       -4.565756    6.464899    4.788973
     16          1           0       -5.092078    5.938292    5.582272
     17          6           0       -3.208941    7.822121    2.769243
     18          1           0       -2.683126    8.346936    1.976432
     19          6           0       -4.704092    7.850234    4.666019
     20          1           0       -5.341904    8.392234    5.358516
     21          6           0       -4.023661    8.531319    3.656734
     22          1           0       -4.130268    9.607836    3.557933
     23          7           0       -3.306083    1.214921    2.584831
     24          1           0       -2.542509    1.635570    2.042247
     25          6           0       -3.085078   -0.130054    3.142863
     26          1           0       -2.290577   -0.569619    2.534514
     27          6           0       -4.239785   -1.148890    3.007834
     28          6           0       -2.623618   -0.040986    4.603349
     29          1           0       -2.442096   -1.044707    4.990706
     30          1           0       -3.397126    0.431880    5.216147
     31          1           0       -1.703964    0.550068    4.669254
     32          8           0       -4.170282   -2.191851    3.652503
     33          7           0       -5.228674   -0.904066    2.110667
     34          1           0       -5.207098   -0.052863    1.565420
     35          6           0       -6.264053   -1.893406    1.800368
     36          1           0       -6.143632   -2.682364    2.550260
     37          6           0       -5.990203   -2.503092    0.396245
     38          6           0       -7.662593   -1.290934    1.889984
     39          1           0       -8.413711   -2.034887    1.614152
     40          1           0       -7.769447   -0.445953    1.201063
     41          1           0       -7.849261   -0.938140    2.907916
     42          8           0       -6.850189   -2.573392   -0.474271
     43          7           0       -4.687711   -2.883565    0.240591
     44          1           0       -4.119853   -2.798540    1.080656
     45          6           0       -3.850085   -2.696633   -0.938563
     46          1           0       -3.669561   -3.658052   -1.442277
     47          6           0       -2.503401   -2.197854   -0.350721
     48          6           0       -4.426170   -1.727115   -2.020043
     49          1           0       -3.781925   -1.816553   -2.903681
     50          1           0       -5.404376   -2.122250   -2.301549
     51          8           0       -2.332869   -2.153389    0.870952
     52          6           0       -4.542998   -0.266909   -1.621756
     53          6           0       -5.710236    0.248141   -1.035758
     54          1           0       -6.575468   -0.393067   -0.921999
     55          6           0       -3.490738    0.631701   -1.852256
     56          1           0       -2.603957    0.305897   -2.386127
     57          6           0       -5.785331    1.571996   -0.601232
     58          1           0       -6.697466    1.951698   -0.147608
     59          6           0       -3.557827    1.959786   -1.442817
     60          1           0       -2.739260    2.637135   -1.651740
     61          8           0       -4.779947    3.716406   -0.309643
     62          1           0       -3.847336    4.063663   -0.190986
     63          6           0       -4.694763    2.425632   -0.775819
     64          7           0       -1.525670   -1.770102   -1.181193
     65          1           0       -1.620964   -1.760245   -2.188020
     66          6           0       -0.470335   -0.952144   -0.591178
     67          1           0       -0.928428   -0.393297    0.227918
     68          6           0        0.053514    0.025230   -1.635543
     69          6           0        0.663736   -1.830792   -0.018835
     70          1           0        0.170800   -2.617765    0.562693
     71          1           0        1.177145   -2.315586   -0.860732
     72          8           0        0.182226   -0.312340   -2.823015
     73          6           0        1.685644   -1.115609    0.886038
     74          1           0        2.231185   -0.370717    0.290472
     75          6           0        1.026082   -0.388525    2.071050
     76          1           0        0.351627   -1.065194    2.610836
     77          1           0        1.785470   -0.033062    2.777191
     78          1           0        0.448500    0.486515    1.758665
     79          6           0        2.692269   -2.156733    1.410847
     80          1           0        2.203685   -2.844524    2.111726
     81          1           0        3.094627   -2.762663    0.586992
     82          1           0        3.521056   -1.669139    1.942868
     83          7           0        0.407544    1.215895   -1.119854
     84          1           0        0.012402    1.503300   -0.212420
     85          6           0        1.049638    2.299049   -1.868477
     86          1           0        0.503705    2.464459   -2.807485
     87          6           0        2.494101    1.859136   -2.188141
     88          6           0        1.051948    3.568102   -1.010869
     89          1           0        1.546617    3.344557   -0.060036
     90          1           0        1.690111    4.299281   -1.517854
     91          8           0        3.449330    2.152834   -1.475253
     92          6           0       -0.325221    4.197649   -0.775819
     93          1           0       -0.887232    4.253371   -1.719077
     94          1           0       -0.194258    5.241858   -0.470061
     95          6           0       -1.283311    3.591354    0.268486
     96          8           0       -2.331869    4.287849    0.445843
     97          8           0       -1.022561    2.508734    0.864586
     98          7           0        2.610611    1.073179   -3.299376
     99          1           0        1.749880    0.653518   -3.647638
    100          6           0        3.847280    0.341215   -3.501893
    101          1           0        4.668818    1.050382   -3.339172
    102          6           0        3.993623   -0.183684   -4.923786
    103          6           0        3.978756   -0.795482   -2.463212
    104          1           0        3.244638   -1.578007   -2.692491
    105          1           0        3.691965   -0.348376   -1.506568
    106          8           0        4.818763   -1.014736   -5.243706
    107          6           0        5.380795   -1.397960   -2.315444
    108          1           0        6.117972   -0.589537   -2.216071
    109          1           0        5.641993   -1.982950   -3.201255
    110          6           0        5.406841   -2.261806   -1.058162
    111          1           0        4.661241   -3.062335   -1.133900
    112          1           0        5.160020   -1.641473   -0.187882
    113          7           0        6.727135   -2.881161   -0.844047
    114          1           0        7.474194   -2.619531   -1.475147
    115          7           0        6.104233   -3.909643    1.136339
    116          1           0        6.218240   -4.660823    1.801671
    117          1           0        5.246187   -3.375659    1.187515
    118          7           0        8.190511   -4.337874    0.223550
    119          1           0        8.508068   -4.782875    1.072827
    120          1           0        8.839141   -4.310350   -0.550149
    121          6           0        7.007096   -3.700318    0.167010
    122          8           0        3.126701    0.369547   -5.789750
    123          1           0        3.310642   -0.023120   -6.665104
 ---------------------------------------------------------------------

 SCF Done:  E(RB3LYP) =  -2974.23219833     A.U. after    1 cycles

 Alpha  occ. eigenvalues --  -19.28138 -19.23807 -19.22385 -19.19884 -19.19419
 Alpha  occ. eigenvalues --  -19.19219 -19.18958 -19.17543 -19.16488 -19.16257
 Alpha  occ. eigenvalues --  -19.15345 -14.53929 -14.53875 -14.53808 -14.51905
 Alpha  occ. eigenvalues --  -14.43373 -14.43005 -14.42813 -14.42786 -14.40156
 Alpha  occ. eigenvalues --  -14.39332 -10.50285 -10.40731 -10.36587 -10.36384
 Alpha  occ. eigenvalues --  -10.36349 -10.36075 -10.35725 -10.34960 -10.33105
 Alpha  occ. eigenvalues --  -10.33052 -10.32462 -10.31622 -10.31024 -10.30380
 Alpha  occ. eigenvalues --  -10.30365 -10.30301 -10.30268 -10.28797 -10.28738
 Alpha  occ. eigenvalues --  -10.27569 -10.27404 -10.27349 -10.27345 -10.26818
 Alpha  occ. eigenvalues --  -10.26104 -10.25833 -10.25494 -10.25421 -10.25375
 Alpha  occ. eigenvalues --  -10.25317 -10.25240 -10.25188 -10.25127 -10.25085
 Alpha  occ. eigenvalues --  -10.24846 -10.24769 -10.24759 -10.24444 -10.24352
 Alpha  occ. eigenvalues --  -10.22667 -10.21983  -1.19128  -1.18695  -1.11920
 Alpha  occ. eigenvalues --   -1.11869  -1.11448  -1.11278  -1.10520  -1.10009
 Alpha  occ. eigenvalues --   -1.09771  -1.08030  -1.07839  -1.07370  -1.06848
 Alpha  occ. eigenvalues --   -1.06496  -1.01244  -1.00242  -0.99868  -0.99584
 Alpha  occ. eigenvalues --   -0.99370  -0.97558  -0.95786  -0.92347  -0.92001
 Alpha  occ. eigenvalues --   -0.91278  -0.89310  -0.86828  -0.86769  -0.85428
 Alpha  occ. eigenvalues --   -0.84700  -0.83030  -0.82156  -0.81709  -0.80903
 Alpha  occ. eigenvalues --   -0.80814  -0.80667  -0.79657  -0.79412  -0.78520
 Alpha  occ. eigenvalues --   -0.77593  -0.76740  -0.76252  -0.73543  -0.73418
 Alpha  occ. eigenvalues --   -0.73193  -0.72386  -0.71630  -0.70630  -0.69613
 Alpha  occ. eigenvalues --   -0.68665  -0.68148  -0.67750  -0.67554  -0.67205
 Alpha  occ. eigenvalues --   -0.66862  -0.66626  -0.66505  -0.66474  -0.65743
 Alpha  occ. eigenvalues --   -0.65079  -0.64858  -0.64410  -0.64354  -0.63813
 Alpha  occ. eigenvalues --   -0.62862  -0.62661  -0.61216  -0.60916  -0.60540
 Alpha  occ. eigenvalues --   -0.60422  -0.60337  -0.59653  -0.58366  -0.58246
 Alpha  occ. eigenvalues --   -0.57876  -0.57087  -0.56688  -0.56432  -0.55828
 Alpha  occ. eigenvalues --   -0.55640  -0.55492  -0.55387  -0.55114  -0.54411
 Alpha  occ. eigenvalues --   -0.53954  -0.53904  -0.53330  -0.53042  -0.52676
 Alpha  occ. eigenvalues --   -0.52527  -0.51951  -0.51562  -0.51518  -0.51391
 Alpha  occ. eigenvalues --   -0.51303  -0.51062  -0.50800  -0.50693  -0.50006
 Alpha  occ. eigenvalues --   -0.49693  -0.49535  -0.49232  -0.49022  -0.48814
 Alpha  occ. eigenvalues --   -0.48505  -0.48347  -0.48241  -0.47985  -0.47797
 Alpha  occ. eigenvalues --   -0.47588  -0.47177  -0.47054  -0.46969  -0.46889
 Alpha  occ. eigenvalues --   -0.46681  -0.46311  -0.45894  -0.45807  -0.45540
 Alpha  occ. eigenvalues --   -0.45393  -0.45375  -0.45245  -0.44911  -0.44905
 Alpha  occ. eigenvalues --   -0.44488  -0.44099  -0.44029  -0.43837  -0.43784
 Alpha  occ. eigenvalues --   -0.43413  -0.43203  -0.43054  -0.42925  -0.42657
 Alpha  occ. eigenvalues --   -0.42432  -0.42042  -0.41619  -0.41497  -0.41188
 Alpha  occ. eigenvalues --   -0.40775  -0.40706  -0.40624  -0.40477  -0.40450
 Alpha  occ. eigenvalues --   -0.40310  -0.40126  -0.40064  -0.39824  -0.39610
 Alpha  occ. eigenvalues --   -0.39288  -0.38116  -0.36206  -0.34916  -0.34627
 Alpha  occ. eigenvalues --   -0.33807  -0.33474  -0.33338  -0.33069  -0.32785
 Alpha  occ. eigenvalues --   -0.32434  -0.31668  -0.31637  -0.31615  -0.31307
 Alpha  occ. eigenvalues --   -0.31193  -0.30992  -0.30433  -0.29761  -0.29057
 Alpha  occ. eigenvalues --   -0.28079  -0.27940
 Alpha virt. eigenvalues --   -0.13813  -0.10036  -0.07840  -0.07814  -0.06794
 Alpha virt. eigenvalues --   -0.06747  -0.06568  -0.06219  -0.05736  -0.05498
 Alpha virt. eigenvalues --   -0.05455  -0.05283  -0.04782  -0.04399  -0.03544

 Mulliken charges:
               1
     1  N   -0.769173
     2  H    0.439574
     3  H    0.393663
     4  H    0.398150
     5  C   -0.155129
     6  H    0.261441
     7  C    0.615572
     8  C   -0.358831
     9  H    0.191290
    10  H    0.176681
    11  O   -0.543204
    12  C    0.092660
    13  C   -0.191259
    14  H    0.181732
    15  C   -0.198884
    16  H    0.141103
    17  C   -0.135752
    18  H    0.147497
    19  C   -0.125824
    20  H    0.149034
    21  C   -0.126093
    22  H    0.148727
    23  N   -0.645813
    24  H    0.392115
    25  C   -0.088076
    26  H    0.211317
    27  C    0.662103
    28  C   -0.453130
    29  H    0.189841
    30  H    0.171698
    31  H    0.136795
    32  O   -0.543651
    33  N   -0.607454
    34  H    0.345345
    35  C   -0.081069
    36  H    0.207044
    37  C    0.605872
    38  C   -0.440603
    39  H    0.176000
    40  H    0.138692
    41  H    0.162719
    42  O   -0.522178
    43  N   -0.620014
    44  H    0.389240
    45  C   -0.019103
    46  H    0.175013
    47  C    0.616085
    48  C   -0.402371
    49  H    0.140638
    50  H    0.215117
    51  O   -0.539842
    52  C    0.171747
    53  C   -0.234001
    54  H    0.193672
    55  C   -0.204695
    56  H    0.129062
    57  C   -0.196630
    58  H    0.131616
    59  C   -0.166644
    60  H    0.139966
    61  O   -0.731367
    62  H    0.465473
    63  C    0.354029
    64  N   -0.620457
    65  H    0.349480
    66  C   -0.035827
    67  H    0.188457
    68  C    0.605416
    69  C   -0.262525
    70  H    0.174007
    71  H    0.130357
    72  O   -0.583153
    73  C   -0.090189
    74  H    0.148889
    75  C   -0.481975
    76  H    0.165322
    77  H    0.145020
    78  H    0.179268
    79  C   -0.476823
    80  H    0.168131
    81  H    0.113604
    82  H    0.135669
    83  N   -0.648038
    84  H    0.420896
    85  C   -0.046791
    86  H    0.165662
    87  C    0.622444
    88  C   -0.294552
    89  H    0.173826
    90  H    0.162833
    91  O   -0.536841
    92  C   -0.371793
    93  H    0.163552
    94  H    0.175957
    95  C    0.621224
    96  O   -0.614017
    97  O   -0.591212
    98  N   -0.606712
    99  H    0.373677
   100  C   -0.051634
   101  H    0.207509
   102  C    0.590225
   103  C   -0.295561
   104  H    0.163122
   105  H    0.186079
   106  O   -0.469102
   107  C   -0.320305
   108  H    0.164647
   109  H    0.200967
   110  C   -0.152328
   111  H    0.193057
   112  H    0.190100
   113  N   -0.614334
   114  H    0.371022
   115  N   -0.770740
   116  H    0.385873
   117  H    0.409452
   118  N   -0.767942
   119  H    0.387065
   120  H    0.387539
   121  C    0.846689
   122  O   -0.546400
   123  H    0.424685
 Sum of Mulliken charges =   1.00000

 Dipole moment (field-independent basis, Debye):
    X=             23.1072    Y=             -5.2135    Z=              1.3564  Tot=             23.7268
 Quadrupole moment (field-independent basis, Debye-Ang):
   XX=           -137.2476   YY=           -259.1746   ZZ=           -336.0973
   XY=           -172.4058   XZ=            -15.2468   YZ=             23.7485

 Normal termination of Gaussian 16 at Tue Aug  2 21:47:30 2022.
