 Gaussian 16, Revision C.01,
 Gaussian 16:  ES64L-G16RevC.01  3-Jul-2019

 ----------------------------------------------------------------------
 # B3LYP/6-31G* empiricaldispersion=gd3 guess=read geom=check nosymm in
 tegral(ultrafinegrid)
 ----------------------------------------------------------------------

 -----------------------------------------------------
 Candidate Structure: Conf:34 Charge calc in gas phase
 -----------------------------------------------------
 Structure from the checkpoint file:  "conf-34.chk"
 Charge =  1 Multiplicity = 1

                          Input orientation:
 ---------------------------------------------------------------------
 Center     Atomic      Atomic             Coordinates (Angstroms)
 Number     Number       Type             X           Y           Z
 ---------------------------------------------------------------------
      1          7           0       -4.580244    2.350791   -1.164928
      2          1           0       -5.089087    2.714848   -1.971241
      3          1           0       -4.798661    1.350678   -1.054722
      4          1           0       -3.525693    2.447511   -1.295414
      5          6           0       -4.802831    3.139055    0.108010
      6          1           0       -5.357733    4.042236   -0.157267
      7          6           0       -3.346656    3.519315    0.525129
      8          6           0       -5.596294    2.306315    1.137598
      9          1           0       -4.950798    1.517660    1.535024
     10          1           0       -6.419747    1.814029    0.600566
     11          8           0       -2.433205    3.177897   -0.249672
     12          6           0       -6.156924    3.136231    2.274243
     13          6           0       -5.721978    2.918338    3.585742
     14          1           0       -4.971082    2.160761    3.792798
     15          6           0       -7.118499    4.127592    2.020586
     16          1           0       -7.478733    4.291652    1.005619
     17          6           0       -6.233593    3.694762    4.628343
     18          1           0       -5.863234    3.537135    5.635935
     19          6           0       -7.631767    4.894868    3.063483
     20          1           0       -8.377715    5.657693    2.858946
     21          6           0       -7.185748    4.679108    4.371861
     22          1           0       -7.578180    5.283458    5.184644
     23          7           0       -3.198338    4.170707    1.668914
     24          1           0       -4.009552    4.335364    2.262642
     25          6           0       -1.899355    4.379974    2.348869
     26          1           0       -1.123199    3.861319    1.784925
     27          6           0       -2.148180    3.735359    3.735522
     28          6           0       -1.551107    5.859351    2.466886
     29          1           0       -0.548353    5.940492    2.895894
     30          1           0       -2.269617    6.376610    3.110618
     31          1           0       -1.540680    6.329503    1.478296
     32          8           0       -3.112601    4.129200    4.396061
     33          7           0       -1.297053    2.740698    4.048291
     34          1           0       -0.570966    2.508527    3.339780
     35          6           0       -1.546829    1.637867    4.991508
     36          1           0       -0.560075    1.311911    5.341382
     37          6           0       -2.144315    0.535919    4.087049
     38          6           0       -2.427044    1.957570    6.193045
     39          1           0       -2.417288    1.100689    6.875602
     40          1           0       -3.452734    2.154478    5.886453
     41          1           0       -2.047708    2.836556    6.719068
     42          8           0       -3.356733    0.411635    3.891159
     43          7           0       -1.209666   -0.185797    3.407548
     44          1           0       -0.253831    0.169705    3.408337
     45          6           0       -1.580348   -0.803235    2.149731
     46          1           0       -2.451550   -1.444272    2.320968
     47          6           0       -0.400462   -1.654157    1.657075
     48          6           0       -1.948501    0.308403    1.111405
     49          1           0       -2.533076    1.044222    1.669114
     50          1           0       -1.035252    0.824452    0.806823
     51          8           0        0.644614   -1.773343    2.290881
     52          6           0       -2.762939   -0.143721   -0.074535
     53          6           0       -2.286576   -0.011329   -1.391558
     54          1           0       -1.284452    0.371926   -1.556879
     55          6           0       -4.044282   -0.687196    0.107155
     56          1           0       -4.431832   -0.805511    1.116425
     57          6           0       -3.063203   -0.387805   -2.486334
     58          1           0       -2.685874   -0.298257   -3.500080
     59          6           0       -4.840285   -1.061414   -0.982133
     60          1           0       -5.829189   -1.484205   -0.815352
     61          8           0       -5.058538   -1.262869   -3.397825
     62          1           0       -5.870497   -1.727637   -3.139905
     63          6           0       -4.345904   -0.919225   -2.288399
     64          7           0       -0.575811   -2.226534    0.426087
     65          1           0       -1.403129   -1.966982   -0.096147
     66          6           0        0.567048   -2.655232   -0.391249
     67          1           0        1.210261   -3.273345    0.239758
     68          6           0        1.304402   -1.357572   -0.781636
     69          6           0        0.090791   -3.431870   -1.619155
     70          1           0       -0.438179   -2.732971   -2.279121
     71          1           0        0.980867   -3.760026   -2.173195
     72          8           0        0.953161   -0.686111   -1.763864
     73          6           0       -0.800847   -4.650298   -1.316273
     74          1           0       -1.701210   -4.293278   -0.795726
     75          6           0       -1.246412   -5.301730   -2.633084
     76          1           0       -0.383074   -5.689357   -3.189051
     77          1           0       -1.924869   -6.141566   -2.446292
     78          1           0       -1.765821   -4.584039   -3.279771
     79          6           0       -0.104956   -5.669607   -0.403931
     80          1           0        0.837725   -6.013076   -0.850029
     81          1           0        0.117899   -5.250857    0.583495
     82          1           0       -0.738947   -6.549854   -0.250732
     83          7           0        2.267762   -0.960953    0.084855
     84          1           0        2.294394   -1.489084    0.952985
     85          6           0        2.609518    0.465025    0.257461
     86          1           0        1.692626    1.040472    0.078892
     87          6           0        3.646060    0.924623   -0.783456
     88          6           0        3.089259    0.726509    1.688735
     89          1           0        2.454090    0.145529    2.362022
     90          1           0        4.125175    0.386435    1.791139
     91          8           0        4.776082    1.318900   -0.451411
     92          6           0        2.947392    2.202909    2.066671
     93          1           0        3.496567    2.852742    1.377189
     94          1           0        3.388590    2.364099    3.058992
     95          6           0        1.474676    2.676676    2.140028
     96          8           0        1.243918    3.890547    2.023345
     97          8           0        0.603072    1.752698    2.344928
     98          7           0        3.219746    0.906393   -2.067884
     99          1           0        2.301077    0.489666   -2.256434
    100          6           0        4.070661    1.401133   -3.124178
    101          1           0        4.724306    2.118817   -2.639692
    102          6           0        3.381655    2.228207   -4.190966
    103          6           0        4.959626    0.308334   -3.792654
    104          1           0        5.118280    0.547967   -4.851240
    105          1           0        4.410124   -0.637342   -3.757062
    106          8           0        4.020671    2.951702   -4.935943
    107          6           0        6.313929    0.165074   -3.082537
    108          1           0        6.781773   -0.786237   -3.362315
    109          1           0        6.156797    0.132291   -2.001314
    110          6           0        7.326998    1.265028   -3.453318
    111          1           0        7.707497    1.086294   -4.463690
    112          1           0        8.181088    1.244376   -2.771056
    113          7           0        6.824141    2.655349   -3.482405
    114          1           0        6.301906    2.944288   -4.306871
    115          7           0        6.863452    3.030855   -1.186596
    116          1           0        7.007816    3.694563   -0.435697
    117          1           0        6.272329    2.220497   -0.939479
    118          7           0        6.735650    4.819231   -2.678698
    119          1           0        6.391065    5.459184   -1.976607
    120          1           0        6.914625    5.187910   -3.602540
    121          6           0        6.798539    3.497088   -2.440974
    122          8           0        2.054588    2.075880   -4.252893
    123          1           0        1.723154    2.642919   -4.976268
 ---------------------------------------------------------------------

 SCF Done:  E(RB3LYP) =  -2974.21150804     A.U. after    1 cycles

 Alpha  occ. eigenvalues --  -19.30730 -19.27242 -19.24882 -19.22045 -19.21643
 Alpha  occ. eigenvalues --  -19.20611 -19.19156 -19.16982 -19.15116 -19.12112
 Alpha  occ. eigenvalues --  -19.10899 -14.54497 -14.51251 -14.50412 -14.49148
 Alpha  occ. eigenvalues --  -14.44542 -14.44447 -14.43560 -14.43265 -14.40172
 Alpha  occ. eigenvalues --  -14.38555 -10.46678 -10.43079 -10.38744 -10.37930
 Alpha  occ. eigenvalues --  -10.36782 -10.36211 -10.36054 -10.34908 -10.34409
 Alpha  occ. eigenvalues --  -10.33797 -10.33352 -10.32333 -10.30781 -10.30125
 Alpha  occ. eigenvalues --  -10.29813 -10.29584 -10.29518 -10.29515 -10.29104
 Alpha  occ. eigenvalues --  -10.29050 -10.28720 -10.28228 -10.28158 -10.28024
 Alpha  occ. eigenvalues --  -10.27658 -10.27429 -10.26564 -10.25591 -10.25478
 Alpha  occ. eigenvalues --  -10.25415 -10.25393 -10.24998 -10.24562 -10.24272
 Alpha  occ. eigenvalues --  -10.24205 -10.23371 -10.23338 -10.23140 -10.21799
 Alpha  occ. eigenvalues --  -10.21719 -10.21192  -1.21612  -1.15391  -1.15192
 Alpha  occ. eigenvalues --   -1.14364  -1.13014  -1.12445  -1.11996  -1.10833
 Alpha  occ. eigenvalues --   -1.08774  -1.08465  -1.06936  -1.04587  -1.04532
 Alpha  occ. eigenvalues --   -1.03102  -1.01877  -1.00818  -1.00373  -0.99716
 Alpha  occ. eigenvalues --   -0.97780  -0.95941  -0.95331  -0.94853  -0.92351
 Alpha  occ. eigenvalues --   -0.90739  -0.88179  -0.87945  -0.86505  -0.86194
 Alpha  occ. eigenvalues --   -0.84551  -0.84353  -0.83158  -0.82190  -0.81090
 Alpha  occ. eigenvalues --   -0.80542  -0.80267  -0.79956  -0.78734  -0.76929
 Alpha  occ. eigenvalues --   -0.76539  -0.75233  -0.74224  -0.73918  -0.72783
 Alpha  occ. eigenvalues --   -0.72291  -0.71737  -0.71489  -0.70811  -0.70553
 Alpha  occ. eigenvalues --   -0.69827  -0.69425  -0.68997  -0.68785  -0.67812
 Alpha  occ. eigenvalues --   -0.67665  -0.66482  -0.66299  -0.65948  -0.65009
 Alpha  occ. eigenvalues --   -0.64462  -0.64156  -0.63952  -0.63621  -0.63542
 Alpha  occ. eigenvalues --   -0.63073  -0.62821  -0.62625  -0.61501  -0.60128
 Alpha  occ. eigenvalues --   -0.59780  -0.59093  -0.58701  -0.58581  -0.58104
 Alpha  occ. eigenvalues --   -0.57791  -0.57584  -0.57207  -0.56844  -0.56521
 Alpha  occ. eigenvalues --   -0.56086  -0.55900  -0.55314  -0.54929  -0.54595
 Alpha  occ. eigenvalues --   -0.54368  -0.53830  -0.53512  -0.52961  -0.52654
 Alpha  occ. eigenvalues --   -0.52414  -0.52329  -0.52148  -0.51975  -0.51715
 Alpha  occ. eigenvalues --   -0.51486  -0.51378  -0.51138  -0.51086  -0.50492
 Alpha  occ. eigenvalues --   -0.50215  -0.50081  -0.49835  -0.49659  -0.49091
 Alpha  occ. eigenvalues --   -0.48713  -0.48419  -0.48401  -0.48113  -0.47939
 Alpha  occ. eigenvalues --   -0.47465  -0.47335  -0.47128  -0.46865  -0.46567
 Alpha  occ. eigenvalues --   -0.46447  -0.46193  -0.45886  -0.45861  -0.45664
 Alpha  occ. eigenvalues --   -0.45587  -0.45260  -0.45025  -0.44675  -0.44649
 Alpha  occ. eigenvalues --   -0.44440  -0.43945  -0.43819  -0.43178  -0.42829
 Alpha  occ. eigenvalues --   -0.42577  -0.42440  -0.42393  -0.42356  -0.41992
 Alpha  occ. eigenvalues --   -0.41849  -0.41631  -0.41441  -0.41124  -0.40931
 Alpha  occ. eigenvalues --   -0.40395  -0.40331  -0.39954  -0.39935  -0.39789
 Alpha  occ. eigenvalues --   -0.39753  -0.39609  -0.38991  -0.38891  -0.38834
 Alpha  occ. eigenvalues --   -0.38742  -0.38715  -0.37311  -0.36732  -0.36676
 Alpha  occ. eigenvalues --   -0.35576  -0.35401  -0.34571  -0.34350  -0.33610
 Alpha  occ. eigenvalues --   -0.32889  -0.32313  -0.32102  -0.31180  -0.30753
 Alpha  occ. eigenvalues --   -0.30671  -0.30091  -0.28826  -0.27721  -0.27397
 Alpha  occ. eigenvalues --   -0.26789  -0.24942
 Alpha virt. eigenvalues --   -0.12601  -0.10571  -0.09944  -0.09136  -0.08455
 Alpha virt. eigenvalues --   -0.07318  -0.06933  -0.06531  -0.06354  -0.06053
 Alpha virt. eigenvalues --   -0.05507  -0.05079  -0.03985  -0.02683  -0.01873

 Mulliken charges:
               1
     1  N   -0.791772
     2  H    0.395530
     3  H    0.415690
     4  H    0.434551
     5  C   -0.101735
     6  H    0.209505
     7  C    0.640265
     8  C   -0.394004
     9  H    0.208395
    10  H    0.162170
    11  O   -0.554139
    12  C    0.109465
    13  C   -0.191467
    14  H    0.203602
    15  C   -0.181157
    16  H    0.110920
    17  C   -0.109352
    18  H    0.158680
    19  C   -0.128769
    20  H    0.142271
    21  C   -0.127838
    22  H    0.147660
    23  N   -0.591215
    24  H    0.379971
    25  C   -0.073739
    26  H    0.224676
    27  C    0.603778
    28  C   -0.447916
    29  H    0.194260
    30  H    0.160125
    31  H    0.143841
    32  O   -0.551242
    33  N   -0.646316
    34  H    0.426857
    35  C   -0.058209
    36  H    0.157403
    37  C    0.612058
    38  C   -0.442977
    39  H    0.144586
    40  H    0.188280
    41  H    0.164349
    42  O   -0.545628
    43  N   -0.581949
    44  H    0.376206
    45  C   -0.067344
    46  H    0.185194
    47  C    0.624011
    48  C   -0.381495
    49  H    0.182006
    50  H    0.212918
    51  O   -0.527331
    52  C    0.079780
    53  C   -0.214233
    54  H    0.190660
    55  C   -0.217406
    56  H    0.184103
    57  C   -0.184105
    58  H    0.162023
    59  C   -0.238600
    60  H    0.149219
    61  O   -0.628699
    62  H    0.419442
    63  C    0.339073
    64  N   -0.610458
    65  H    0.355018
    66  C   -0.054854
    67  H    0.178471
    68  C    0.616684
    69  C   -0.289262
    70  H    0.157541
    71  H    0.144095
    72  O   -0.567417
    73  C   -0.072119
    74  H    0.126698
    75  C   -0.443853
    76  H    0.145330
    77  H    0.151385
    78  H    0.139327
    79  C   -0.454627
    80  H    0.141950
    81  H    0.157682
    82  H    0.154273
    83  N   -0.601836
    84  H    0.375556
    85  C   -0.065505
    86  H    0.201134
    87  C    0.649050
    88  C   -0.292672
    89  H    0.182721
    90  H    0.141234
    91  O   -0.574543
    92  C   -0.353765
    93  H    0.128803
    94  H    0.155823
    95  C    0.589671
    96  O   -0.568251
    97  O   -0.652738
    98  N   -0.620791
    99  H    0.398431
   100  C   -0.031067
   101  H    0.165185
   102  C    0.586620
   103  C   -0.284062
   104  H    0.162277
   105  H    0.181546
   106  O   -0.485630
   107  C   -0.301241
   108  H    0.171976
   109  H    0.190241
   110  C   -0.156422
   111  H    0.186383
   112  H    0.197260
   113  N   -0.593838
   114  H    0.377562
   115  N   -0.748827
   116  H    0.366269
   117  H    0.436919
   118  N   -0.742224
   119  H    0.381227
   120  H    0.382577
   121  C    0.735660
   122  O   -0.539944
   123  H    0.428477
 Sum of Mulliken charges =   1.00000

 Dipole moment (field-independent basis, Debye):
    X=              6.3153    Y=              9.4529    Z=            -17.6393  Tot=             20.9854
 Quadrupole moment (field-independent basis, Debye-Ang):
   XX=           -127.1735   YY=           -296.6716   ZZ=           -327.0995
   XY=             40.7638   XZ=            -39.2288   YZ=            -39.8299

 Normal termination of Gaussian 16 at Tue Aug  2 21:48:20 2022.
