 Gaussian 16, Revision C.01,
 Gaussian 16:  ES64L-G16RevC.01  3-Jul-2019

 ----------------------------------------------------------------------
 # B3LYP/6-31G* empiricaldispersion=gd3 guess=read geom=check nosymm in
 tegral(ultrafinegrid)
 ----------------------------------------------------------------------

 ------------------------------------------------------
 Candidate Structure: Conf:112 Charge calc in gas phase
 ------------------------------------------------------
 Structure from the checkpoint file:  "conf-112.chk"
 Charge =  1 Multiplicity = 1

                          Input orientation:
 ---------------------------------------------------------------------
 Center     Atomic      Atomic             Coordinates (Angstroms)
 Number     Number       Type             X           Y           Z
 ---------------------------------------------------------------------
      1          7           0       -7.883156    1.959074    7.837671
      2          1           0       -8.807752    1.537313    7.943769
      3          1           0       -7.602030    2.397829    8.715087
      4          1           0       -7.226753    1.195506    7.608987
      5          6           0       -7.832182    2.900303    6.686390
      6          1           0       -8.801101    3.399975    6.578457
      7          6           0       -7.550592    2.017302    5.465974
      8          6           0       -6.738872    3.969650    6.883554
      9          1           0       -7.036116    4.606444    7.724747
     10          1           0       -6.725806    4.606474    5.994308
     11          8           0       -7.270170    0.827855    5.633914
     12          6           0       -5.371707    3.384691    7.116672
     13          6           0       -4.896852    3.140851    8.407167
     14          1           0       -5.497916    3.422768    9.267548
     15          6           0       -4.558726    3.055333    6.025773
     16          1           0       -4.900974    3.258576    5.015424
     17          6           0       -3.650216    2.548148    8.607169
     18          1           0       -3.301139    2.355806    9.616081
     19          6           0       -3.306666    2.480479    6.224234
     20          1           0       -2.704965    2.218841    5.361586
     21          6           0       -2.855632    2.208452    7.514103
     22          1           0       -1.886045    1.748099    7.665628
     23          7           0       -7.559734    2.622311    4.266115
     24          1           0       -7.805702    3.597475    4.200133
     25          6           0       -7.219369    1.923524    3.021326
     26          1           0       -7.724347    0.952972    3.036049
     27          6           0       -5.697913    1.693919    3.010055
     28          6           0       -7.671508    2.748926    1.828711
     29          1           0       -7.409423    2.239878    0.898756
     30          1           0       -7.176249    3.722156    1.829345
     31          1           0       -8.755625    2.887235    1.854689
     32          8           0       -4.918813    2.525547    2.537943
     33          7           0       -5.285584    0.541077    3.575425
     34          1           0       -5.957961    0.033955    4.137199
     35          6           0       -3.871216    0.247566    3.802824
     36          1           0       -3.371992    1.214177    3.965843
     37          6           0       -3.238535   -0.388548    2.547236
     38          6           0       -3.719995   -0.656166    5.017300
     39          1           0       -2.662844   -0.801627    5.246886
     40          1           0       -4.158273   -1.635345    4.812128
     41          1           0       -4.220132   -0.216132    5.886781
     42          8           0       -2.668535   -1.476433    2.580813
     43          7           0       -3.379038    0.337716    1.414272
     44          1           0       -3.713082    1.292855    1.485918
     45          6           0       -2.777316   -0.104303    0.164775
     46          1           0       -2.867642   -1.191923    0.139301
     47          6           0       -1.293763    0.281856    0.134009
     48          6           0       -3.502187    0.521103   -1.029704
     49          1           0       -4.565092    0.274789   -0.928966
     50          1           0       -3.401840    1.608129   -0.957731
     51          8           0       -0.919216    1.401452   -0.192386
     52          6           0       -2.964064    0.050747   -2.360995
     53          6           0       -2.451223    0.957013   -3.296152
     54          1           0       -2.369466    2.019320   -3.081315
     55          6           0       -2.963563   -1.308247   -2.687371
     56          1           0       -3.364417   -2.027285   -1.979306
     57          6           0       -1.991607    0.522975   -4.537145
     58          1           0       -1.612805    1.229894   -5.265789
     59          6           0       -2.484127   -1.756690   -3.916661
     60          1           0       -2.497419   -2.818072   -4.149598
     61          8           0       -1.514949   -1.210257   -6.070570
     62          1           0       -1.575851   -2.169817   -6.148953
     63          6           0       -1.992402   -0.835935   -4.843788
     64          7           0       -0.434307   -0.691839    0.520355
     65          1           0       -0.794428   -1.532321    0.948184
     66          6           0        0.993943   -0.464871    0.426202
     67          1           0        1.268053    0.345461    1.113015
     68          6           0        1.326194   -0.036852   -1.007357
     69          6           0        1.758446   -1.746685    0.772613
     70          1           0        1.529259   -2.015945    1.810486
     71          1           0        1.364710   -2.544652    0.135792
     72          8           0        0.932434   -0.674365   -1.972836
     73          6           0        3.282278   -1.683220    0.592838
     74          1           0        3.479976   -1.459486   -0.464388
     75          6           0        3.938411   -0.599372    1.450713
     76          1           0        3.637169   -0.703163    2.499157
     77          1           0        5.031827   -0.695757    1.414120
     78          1           0        3.695715    0.411813    1.118780
     79          6           0        3.899413   -3.046948    0.908333
     80          1           0        3.737410   -3.307858    1.958842
     81          1           0        3.467093   -3.837320    0.288569
     82          1           0        4.979740   -3.031794    0.730651
     83          7           0        2.123094    1.055321   -1.099091
     84          1           0        2.391926    1.568351   -0.275700
     85          6           0        2.725530    1.475917   -2.347148
     86          1           0        2.624395    0.635969   -3.039936
     87          6           0        4.194761    1.759227   -2.055050
     88          6           0        2.018452    2.696243   -2.947273
     89          1           0        2.154757    3.552688   -2.280702
     90          1           0        2.479901    2.953374   -3.905085
     91          8           0        4.554047    2.367449   -1.048656
     92          6           0        0.537831    2.405635   -3.183457
     93          1           0       -0.014596    2.281770   -2.253558
     94          1           0        0.446280    1.465240   -3.740287
     95          6           0       -0.122333    3.501379   -4.059127
     96          8           0       -1.306086    3.806994   -3.773031
     97          8           0        0.567976    3.934121   -5.001648
     98          7           0        5.070991    1.290590   -2.983688
     99          1           0        4.728898    0.806651   -3.800505
    100          6           0        6.496982    1.475452   -2.832865
    101          1           0        6.641706    2.258397   -2.085899
    102          6           0        7.156253    1.942781   -4.118051
    103          6           0        7.207115    0.200121   -2.340340
    104          1           0        8.277727    0.422542   -2.302677
    105          1           0        7.067975   -0.605697   -3.068466
    106          8           0        8.150863    2.621957   -4.165010
    107          6           0        6.699339   -0.230421   -0.968742
    108          1           0        5.638073   -0.493486   -1.017889
    109          1           0        6.773834    0.613771   -0.280425
    110          6           0        7.446113   -1.429805   -0.390938
    111          1           0        7.308482   -2.306023   -1.029678
    112          1           0        7.048999   -1.703785    0.591355
    113          7           0        8.907904   -1.245645   -0.278063
    114          1           0        9.425320   -1.447539   -1.123251
    115          7           0        8.744347    0.323604    1.446185
    116          1           0        9.214699    0.802330    2.199814
    117          1           0        7.827564   -0.030822    1.670630
    118          7           0       10.784862   -0.028206    0.359084
    119          1           0       11.254031    0.479634    1.095877
    120          1           0       11.368631   -0.694615   -0.129259
    121          6           0        9.474490   -0.332084    0.522507
    122          8           0        6.534027    1.453643   -5.215822
    123          1           0        7.020779    1.780456   -5.989080
 ---------------------------------------------------------------------

 SCF Done:  E(RB3LYP) =  -2974.04191298     A.U. after    3 cycles

 Alpha  occ. eigenvalues --  -19.27037 -19.25898 -19.20742 -19.20152 -19.16941
 Alpha  occ. eigenvalues --  -19.16849 -19.15812 -19.13294 -19.12308 -19.01119
 Alpha  occ. eigenvalues --  -19.00800 -14.62164 -14.52352 -14.52214 -14.52077
 Alpha  occ. eigenvalues --  -14.50354 -14.44809 -14.41312 -14.40052 -14.38270
 Alpha  occ. eigenvalues --  -14.37273 -10.47946 -10.43790 -10.41684 -10.38282
 Alpha  occ. eigenvalues --  -10.37725 -10.35205 -10.34597 -10.34411 -10.33797
 Alpha  occ. eigenvalues --  -10.32569 -10.31471 -10.30655 -10.30571 -10.30305
 Alpha  occ. eigenvalues --  -10.30244 -10.29784 -10.29648 -10.29412 -10.29282
 Alpha  occ. eigenvalues --  -10.29152 -10.28566 -10.28091 -10.27488 -10.26276
 Alpha  occ. eigenvalues --  -10.25546 -10.25473 -10.24946 -10.24118 -10.23942
 Alpha  occ. eigenvalues --  -10.23715 -10.23517 -10.23500 -10.20287 -10.18896
 Alpha  occ. eigenvalues --  -10.18434 -10.18084 -10.17961 -10.16347 -10.16137
 Alpha  occ. eigenvalues --  -10.16078 -10.11838  -1.20168  -1.16925  -1.16893
 Alpha  occ. eigenvalues --   -1.16265  -1.12776  -1.08715  -1.08034  -1.07957
 Alpha  occ. eigenvalues --   -1.06737  -1.06221  -1.05912  -1.05472  -1.05064
 Alpha  occ. eigenvalues --   -1.04330  -1.01377  -0.98309  -0.97716  -0.96728
 Alpha  occ. eigenvalues --   -0.94965  -0.94326  -0.94112  -0.94077  -0.90299
 Alpha  occ. eigenvalues --   -0.88926  -0.87022  -0.86354  -0.85457  -0.85393
 Alpha  occ. eigenvalues --   -0.84991  -0.84745  -0.84170  -0.80907  -0.80501
 Alpha  occ. eigenvalues --   -0.80308  -0.79200  -0.77811  -0.76635  -0.76223
 Alpha  occ. eigenvalues --   -0.75638  -0.75304  -0.74794  -0.74427  -0.74164
 Alpha  occ. eigenvalues --   -0.73675  -0.73233  -0.71949  -0.71543  -0.71189
 Alpha  occ. eigenvalues --   -0.70419  -0.70055  -0.69168  -0.68749  -0.68158
 Alpha  occ. eigenvalues --   -0.67175  -0.66124  -0.65966  -0.65205  -0.64680
 Alpha  occ. eigenvalues --   -0.64330  -0.63965  -0.63516  -0.62827  -0.61547
 Alpha  occ. eigenvalues --   -0.61363  -0.60957  -0.60839  -0.60685  -0.60286
 Alpha  occ. eigenvalues --   -0.60159  -0.59184  -0.59150  -0.58716  -0.58210
 Alpha  occ. eigenvalues --   -0.58139  -0.57599  -0.57268  -0.56994  -0.56116
 Alpha  occ. eigenvalues --   -0.56041  -0.55382  -0.54686  -0.54342  -0.54013
 Alpha  occ. eigenvalues --   -0.53925  -0.53103  -0.53058  -0.52922  -0.52407
 Alpha  occ. eigenvalues --   -0.52343  -0.51909  -0.51775  -0.51642  -0.51510
 Alpha  occ. eigenvalues --   -0.51169  -0.50467  -0.49730  -0.49417  -0.49079
 Alpha  occ. eigenvalues --   -0.49046  -0.48181  -0.47985  -0.47616  -0.47542
 Alpha  occ. eigenvalues --   -0.47311  -0.46843  -0.46812  -0.46605  -0.46308
 Alpha  occ. eigenvalues --   -0.46298  -0.45924  -0.45723  -0.45468  -0.45265
 Alpha  occ. eigenvalues --   -0.45232  -0.45054  -0.44848  -0.44743  -0.44478
 Alpha  occ. eigenvalues --   -0.43982  -0.43788  -0.43452  -0.43347  -0.42810
 Alpha  occ. eigenvalues --   -0.42667  -0.42383  -0.42048  -0.41783  -0.41559
 Alpha  occ. eigenvalues --   -0.41473  -0.40966  -0.40756  -0.40435  -0.40375
 Alpha  occ. eigenvalues --   -0.39975  -0.39420  -0.39262  -0.38873  -0.38604
 Alpha  occ. eigenvalues --   -0.38343  -0.38191  -0.38045  -0.37843  -0.36329
 Alpha  occ. eigenvalues --   -0.36277  -0.35965  -0.35733  -0.35300  -0.35055
 Alpha  occ. eigenvalues --   -0.34540  -0.34279  -0.34253  -0.33524  -0.32802
 Alpha  occ. eigenvalues --   -0.32062  -0.31470  -0.31301  -0.30464  -0.30352
 Alpha  occ. eigenvalues --   -0.29978  -0.29100  -0.28403  -0.27552  -0.26731
 Alpha  occ. eigenvalues --   -0.25950  -0.25719  -0.23331  -0.20697  -0.16593
 Alpha  occ. eigenvalues --   -0.15218  -0.14393
 Alpha virt. eigenvalues --   -0.13548  -0.13473  -0.12494  -0.11615  -0.10136
 Alpha virt. eigenvalues --   -0.09079  -0.08131  -0.07458  -0.06072  -0.05478
 Alpha virt. eigenvalues --   -0.05452  -0.04268  -0.04003  -0.03455  -0.03349

 Mulliken charges:
               1
     1  N   -0.716249
     2  H    0.421674
     3  H    0.409849
     4  H    0.431662
     5  C   -0.133448
     6  H    0.219573
     7  C    0.663086
     8  C   -0.400808
     9  H    0.187679
    10  H    0.205116
    11  O   -0.548851
    12  C    0.153753
    13  C   -0.222625
    14  H    0.120740
    15  C   -0.188267
    16  H    0.171405
    17  C   -0.123620
    18  H    0.158457
    19  C   -0.134910
    20  H    0.177140
    21  C   -0.124615
    22  H    0.162415
    23  N   -0.598355
    24  H    0.352689
    25  C   -0.057436
    26  H    0.188324
    27  C    0.632524
    28  C   -0.482328
    29  H    0.207906
    30  H    0.189865
    31  H    0.163886
    32  O   -0.541757
    33  N   -0.579536
    34  H    0.363692
    35  C   -0.075127
    36  H    0.173547
    37  C    0.630400
    38  C   -0.470246
    39  H    0.176879
    40  H    0.177511
    41  H    0.136817
    42  O   -0.538240
    43  N   -0.619679
    44  H    0.376524
    45  C   -0.060572
    46  H    0.163572
    47  C    0.660689
    48  C   -0.367203
    49  H    0.127341
    50  H    0.179193
    51  O   -0.516874
    52  C    0.159468
    53  C   -0.198461
    54  H    0.205579
    55  C   -0.185401
    56  H    0.095874
    57  C   -0.187272
    58  H    0.177163
    59  C   -0.192634
    60  H    0.095664
    61  O   -0.643949
    62  H    0.396772
    63  C    0.353836
    64  N   -0.622680
    65  H    0.343661
    66  C    0.003579
    67  H    0.133569
    68  C    0.646605
    69  C   -0.297891
    70  H    0.132813
    71  H    0.168040
    72  O   -0.533379
    73  C   -0.088669
    74  H    0.150069
    75  C   -0.449852
    76  H    0.142422
    77  H    0.090300
    78  H    0.171696
    79  C   -0.448138
    80  H    0.145115
    81  H    0.161816
    82  H    0.111558
    83  N   -0.587572
    84  H    0.336900
    85  C   -0.080037
    86  H    0.160491
    87  C    0.629821
    88  C   -0.244767
    89  H    0.133656
    90  H    0.155582
    91  O   -0.559708
    92  C   -0.384762
    93  H    0.172604
    94  H    0.144301
    95  C    0.565277
    96  O   -0.581504
    97  O   -0.577006
    98  N   -0.615199
    99  H    0.357293
   100  C   -0.044908
   101  H    0.211011
   102  C    0.590614
   103  C   -0.282161
   104  H    0.138975
   105  H    0.155559
   106  O   -0.454207
   107  C   -0.289259
   108  H    0.206045
   109  H    0.173548
   110  C   -0.210740
   111  H    0.199436
   112  H    0.185734
   113  N   -0.568070
   114  H    0.366608
   115  N   -0.723262
   116  H    0.376289
   117  H    0.391494
   118  N   -0.734135
   119  H    0.374899
   120  H    0.379121
   121  C    0.752253
   122  O   -0.567627
   123  H    0.426976
 Sum of Mulliken charges =   1.00000

 Dipole moment (field-independent basis, Debye):
    X=              4.1497    Y=             -6.0555    Z=             47.7326  Tot=             48.2938
 Quadrupole moment (field-independent basis, Debye-Ang):
   XX=            281.4454   YY=           -386.5377   ZZ=           -153.9108
   XY=           -118.1882   XZ=           -237.7101   YZ=            149.1818

 Normal termination of Gaussian 16 at Tue Aug  2 21:48:11 2022.
