 Gaussian 16, Revision C.01,
 Gaussian 16:  ES64L-G16RevC.01  3-Jul-2019

 ----------------------------------------------------------------------
 # B3LYP/6-31G* empiricaldispersion=gd3 guess=read geom=check nosymm in
 tegral(ultrafinegrid)
 ----------------------------------------------------------------------

 ------------------------------------------------------
 Candidate Structure: Conf:586 Charge calc in gas phase
 ------------------------------------------------------
 Structure from the checkpoint file:  "conf-586.chk"
 Charge =  1 Multiplicity = 1

                          Input orientation:
 ---------------------------------------------------------------------
 Center     Atomic      Atomic             Coordinates (Angstroms)
 Number     Number       Type             X           Y           Z
 ---------------------------------------------------------------------
      1          7           0       -4.325611    0.612414    9.027895
      2          1           0       -4.491253    0.652299   10.035488
      3          1           0       -3.314339    0.712885    8.835362
      4          1           0       -4.641100   -0.305815    8.606765
      5          6           0       -5.101988    1.633257    8.227139
      6          1           0       -5.949371    1.954932    8.839906
      7          6           0       -5.636079    0.786961    7.034713
      8          6           0       -4.205979    2.840162    7.856612
      9          1           0       -3.996992    3.402584    8.774180
     10          1           0       -4.788191    3.510686    7.216213
     11          8           0       -5.477046   -0.440085    7.081073
     12          6           0       -2.918018    2.418001    7.181427
     13          6           0       -1.768747    2.173936    7.953525
     14          1           0       -1.768093    2.414170    9.017085
     15          6           0       -2.867048    2.198540    5.796935
     16          1           0       -3.734255    2.425136    5.183870
     17          6           0       -0.597413    1.697081    7.356311
     18          1           0        0.287267    1.525662    7.962223
     19          6           0       -1.695236    1.728303    5.204570
     20          1           0       -1.660684    1.571616    4.130669
     21          6           0       -0.562293    1.467497    5.980921
     22          1           0        0.345050    1.104849    5.509387
     23          7           0       -6.254413    1.449193    6.060500
     24          1           0       -6.215317    2.465737    6.007814
     25          6           0       -6.581416    0.849989    4.763828
     26          1           0       -6.053795   -0.105723    4.698959
     27          6           0       -6.030518    1.852321    3.725828
     28          6           0       -8.090564    0.635454    4.594312
     29          1           0       -8.302313    0.199591    3.613096
     30          1           0       -8.624301    1.588021    4.671782
     31          1           0       -8.462185   -0.044680    5.365948
     32          8           0       -5.882504    3.038976    4.042975
     33          7           0       -5.749226    1.342650    2.519930
     34          1           0       -5.784141    0.339735    2.345407
     35          6           0       -5.119411    2.090892    1.438789
     36          1           0       -5.768392    2.920222    1.134790
     37          6           0       -4.919905    1.082840    0.295585
     38          6           0       -3.729722    2.628935    1.846517
     39          1           0       -3.230043    3.124677    1.009075
     40          1           0       -3.097345    1.791535    2.162114
     41          1           0       -3.835719    3.337719    2.669421
     42          8           0       -4.959129   -0.124930    0.522211
     43          7           0       -4.591871    1.611707   -0.917585
     44          1           0       -4.432633    2.613960   -0.942276
     45          6           0       -3.653054    0.854422   -1.769807
     46          1           0       -3.963308   -0.191152   -1.734307
     47          6           0       -2.286031    1.066829   -1.099207
     48          6           0       -3.632682    1.346650   -3.221355
     49          1           0       -4.652807    1.296894   -3.618041
     50          1           0       -3.318427    2.396408   -3.228689
     51          8           0       -1.741091    2.176524   -1.151101
     52          6           0       -2.683067    0.501227   -4.047705
     53          6           0       -1.327557    0.843575   -4.180700
     54          1           0       -0.968599    1.756650   -3.715003
     55          6           0       -3.122958   -0.688116   -4.638484
     56          1           0       -4.168891   -0.976849   -4.555441
     57          6           0       -0.436535    0.034748   -4.880884
     58          1           0        0.612730    0.294244   -4.991924
     59          6           0       -2.245803   -1.511359   -5.342992
     60          1           0       -2.608173   -2.428992   -5.802760
     61          8           0        0.009181   -1.912272   -6.142630
     62          1           0       -0.433490   -2.701139   -6.492239
     63          6           0       -0.898633   -1.151706   -5.464493
     64          7           0       -1.817837    0.042620   -0.356444
     65          1           0       -2.276081   -0.857548   -0.411189
     66          6           0       -0.557163    0.142290    0.383804
     67          1           0       -0.493104    1.180892    0.719233
     68          6           0        0.607847   -0.139204   -0.584748
     69          6           0       -0.556145   -0.793894    1.589849
     70          1           0       -1.400980   -0.505084    2.234187
     71          1           0       -0.743239   -1.819629    1.248071
     72          8           0        1.137949   -1.241768   -0.676408
     73          6           0        0.754601   -0.780630    2.406195
     74          1           0        1.505817   -1.311674    1.812299
     75          6           0        1.289555    0.638434    2.659891
     76          1           0        0.512939    1.297096    3.075983
     77          1           0        2.122258    0.611890    3.372298
     78          1           0        1.676108    1.097426    1.743337
     79          6           0        0.543631   -1.545946    3.719542
     80          1           0       -0.194758   -1.040580    4.358191
     81          1           0        0.179364   -2.563791    3.535661
     82          1           0        1.479702   -1.623036    4.284527
     83          7           0        0.966822    0.935788   -1.324177
     84          1           0        0.419708    1.784803   -1.247310
     85          6           0        2.077142    0.862401   -2.250140
     86          1           0        1.888337    0.057607   -2.964562
     87          6           0        3.376558    0.544744   -1.475818
     88          6           0        2.178862    2.204462   -3.012081
     89          1           0        1.314705    2.271020   -3.682591
     90          1           0        2.084832    3.015490   -2.278582
     91          8           0        3.622170    0.992756   -0.362557
     92          6           0        3.470524    2.459378   -3.797997
     93          1           0        4.324285    2.552590   -3.118725
     94          1           0        3.398394    3.422525   -4.318543
     95          6           0        3.850411    1.405412   -4.822322
     96          8           0        5.022239    1.681598   -5.388566
     97          8           0        3.196334    0.396767   -5.059416
     98          7           0        4.232362   -0.211476   -2.210095
     99          1           0        3.904269   -0.516185   -3.118488
    100          6           0        5.641261   -0.456007   -1.931003
    101          1           0        5.778310   -1.372534   -1.346880
    102          6           0        6.298679    0.653358   -1.114597
    103          6           0        6.317103   -0.550676   -3.314471
    104          1           0        6.105505    0.389711   -3.824119
    105          1           0        5.805562   -1.338917   -3.879803
    106          8           0        7.016967    0.460792   -0.162734
    107          6           0        7.822485   -0.786612   -3.377407
    108          1           0        8.092635   -1.762438   -2.950140
    109          1           0        8.360125   -0.030334   -2.791241
    110          6           0        8.305419   -0.696963   -4.837698
    111          1           0        9.398815   -0.771278   -4.873645
    112          1           0        8.026461    0.267372   -5.270873
    113          7           0        7.758607   -1.735875   -5.704741
    114          1           0        7.964528   -2.686874   -5.428136
    115          7           0        5.999012   -0.506130   -6.667954
    116          1           0        5.316652   -0.591638   -7.419735
    117          1           0        5.385702    0.866911   -5.879182
    118          7           0        6.386063   -2.795355   -7.206680
    119          1           0        5.652564   -2.726125   -7.900174
    120          1           0        7.189824   -3.307495   -7.552687
    121          6           0        6.677337   -1.603022   -6.539236
    122          8           0        6.109404    1.879193   -1.664314
    123          1           0        6.565329    2.513334   -1.080753
 ---------------------------------------------------------------------

 SCF Done:  E(RB3LYP) =  -2974.19511301     A.U. after    3 cycles

 Alpha  occ. eigenvalues --  -19.26744 -19.23458 -19.22417 -19.22121 -19.21470
 Alpha  occ. eigenvalues --  -19.20407 -19.18929 -19.17571 -19.16896 -19.15806
 Alpha  occ. eigenvalues --  -19.15093 -14.59167 -14.49387 -14.46125 -14.44687
 Alpha  occ. eigenvalues --  -14.43727 -14.40781 -14.40645 -14.39900 -14.39662
 Alpha  occ. eigenvalues --  -14.35231 -10.43610 -10.40817 -10.39418 -10.38134
 Alpha  occ. eigenvalues --  -10.35864 -10.35837 -10.35090 -10.34890 -10.34834
 Alpha  occ. eigenvalues --  -10.34162 -10.33152 -10.32761 -10.32103 -10.31961
 Alpha  occ. eigenvalues --  -10.30820 -10.30676 -10.30008 -10.29911 -10.29699
 Alpha  occ. eigenvalues --  -10.29433 -10.29383 -10.28928 -10.28443 -10.28041
 Alpha  occ. eigenvalues --  -10.27034 -10.26997 -10.26958 -10.25462 -10.24594
 Alpha  occ. eigenvalues --  -10.24268 -10.24119 -10.24056 -10.23955 -10.23650
 Alpha  occ. eigenvalues --  -10.23589 -10.23589 -10.23500 -10.23231 -10.22935
 Alpha  occ. eigenvalues --  -10.22648 -10.22430  -1.19187  -1.14478  -1.14262
 Alpha  occ. eigenvalues --   -1.13417  -1.13184  -1.12248  -1.10794  -1.10217
 Alpha  occ. eigenvalues --   -1.07949  -1.06620  -1.06174  -1.05246  -1.03781
 Alpha  occ. eigenvalues --   -1.03500  -1.02743  -1.01268  -0.99724  -0.97358
 Alpha  occ. eigenvalues --   -0.96820  -0.96659  -0.94600  -0.93116  -0.90320
 Alpha  occ. eigenvalues --   -0.90304  -0.89251  -0.87148  -0.86655  -0.85659
 Alpha  occ. eigenvalues --   -0.85446  -0.85088  -0.84088  -0.83733  -0.80946
 Alpha  occ. eigenvalues --   -0.79819  -0.79407  -0.79334  -0.78026  -0.76866
 Alpha  occ. eigenvalues --   -0.76357  -0.75167  -0.74289  -0.73648  -0.72807
 Alpha  occ. eigenvalues --   -0.72461  -0.72177  -0.71565  -0.70777  -0.70345
 Alpha  occ. eigenvalues --   -0.69426  -0.69102  -0.68625  -0.67344  -0.66978
 Alpha  occ. eigenvalues --   -0.66910  -0.66099  -0.65853  -0.65172  -0.64108
 Alpha  occ. eigenvalues --   -0.63597  -0.63453  -0.63220  -0.62288  -0.61734
 Alpha  occ. eigenvalues --   -0.61314  -0.61113  -0.60358  -0.59778  -0.59224
 Alpha  occ. eigenvalues --   -0.59113  -0.58816  -0.58315  -0.57632  -0.57454
 Alpha  occ. eigenvalues --   -0.57248  -0.57179  -0.56665  -0.56084  -0.55631
 Alpha  occ. eigenvalues --   -0.55226  -0.55036  -0.54663  -0.54360  -0.53764
 Alpha  occ. eigenvalues --   -0.53543  -0.53392  -0.53039  -0.52814  -0.52604
 Alpha  occ. eigenvalues --   -0.52459  -0.52234  -0.51961  -0.51691  -0.51599
 Alpha  occ. eigenvalues --   -0.51449  -0.51312  -0.51110  -0.50893  -0.50354
 Alpha  occ. eigenvalues --   -0.49871  -0.49632  -0.49250  -0.49213  -0.48838
 Alpha  occ. eigenvalues --   -0.48697  -0.48510  -0.48086  -0.47918  -0.47850
 Alpha  occ. eigenvalues --   -0.47494  -0.47271  -0.47123  -0.46945  -0.46522
 Alpha  occ. eigenvalues --   -0.46373  -0.46327  -0.45934  -0.45556  -0.45432
 Alpha  occ. eigenvalues --   -0.45394  -0.45072  -0.45040  -0.44983  -0.44755
 Alpha  occ. eigenvalues --   -0.44504  -0.44261  -0.43941  -0.43830  -0.43200
 Alpha  occ. eigenvalues --   -0.43073  -0.42666  -0.42178  -0.41968  -0.41842
 Alpha  occ. eigenvalues --   -0.41763  -0.41313  -0.41309  -0.41021  -0.40358
 Alpha  occ. eigenvalues --   -0.40081  -0.39649  -0.39439  -0.39200  -0.38781
 Alpha  occ. eigenvalues --   -0.38380  -0.38176  -0.37976  -0.37853  -0.37455
 Alpha  occ. eigenvalues --   -0.37395  -0.36714  -0.36314  -0.36147  -0.35861
 Alpha  occ. eigenvalues --   -0.35600  -0.35460  -0.34952  -0.34098  -0.33697
 Alpha  occ. eigenvalues --   -0.33624  -0.32027  -0.31427  -0.31207  -0.30610
 Alpha  occ. eigenvalues --   -0.30179  -0.29678  -0.29376  -0.28824  -0.28392
 Alpha  occ. eigenvalues --   -0.28163  -0.26370
 Alpha virt. eigenvalues --   -0.12836  -0.12148  -0.12005  -0.08720  -0.08517
 Alpha virt. eigenvalues --   -0.07701  -0.05578  -0.04452  -0.04305  -0.03746
 Alpha virt. eigenvalues --   -0.03284  -0.03070  -0.02544  -0.02378  -0.02184

 Mulliken charges:
               1
     1  N   -0.757058
     2  H    0.410216
     3  H    0.404559
     4  H    0.433430
     5  C   -0.113294
     6  H    0.227101
     7  C    0.651292
     8  C   -0.394098
     9  H    0.189844
    10  H    0.209296
    11  O   -0.532701
    12  C    0.137959
    13  C   -0.241121
    14  H    0.143380
    15  C   -0.188597
    16  H    0.169252
    17  C   -0.122290
    18  H    0.166548
    19  C   -0.140728
    20  H    0.170013
    21  C   -0.122603
    22  H    0.181767
    23  N   -0.591062
    24  H    0.369597
    25  C   -0.080262
    26  H    0.198189
    27  C    0.642114
    28  C   -0.442038
    29  H    0.179147
    30  H    0.175801
    31  H    0.181390
    32  O   -0.552258
    33  N   -0.620505
    34  H    0.365360
    35  C   -0.028160
    36  H    0.187557
    37  C    0.605853
    38  C   -0.490753
    39  H    0.185415
    40  H    0.165102
    41  H    0.196932
    42  O   -0.526980
    43  N   -0.588536
    44  H    0.342995
    45  C   -0.055743
    46  H    0.179603
    47  C    0.644572
    48  C   -0.364604
    49  H    0.162186
    50  H    0.165121
    51  O   -0.573095
    52  C    0.141668
    53  C   -0.198444
    54  H    0.142974
    55  C   -0.193058
    56  H    0.127631
    57  C   -0.175679
    58  H    0.182999
    59  C   -0.190219
    60  H    0.124430
    61  O   -0.632496
    62  H    0.408250
    63  C    0.345229
    64  N   -0.595559
    65  H    0.350238
    66  C   -0.071673
    67  H    0.170451
    68  C    0.657247
    69  C   -0.278483
    70  H    0.117260
    71  H    0.153986
    72  O   -0.535486
    73  C   -0.075639
    74  H    0.184113
    75  C   -0.482654
    76  H    0.115354
    77  H    0.149213
    78  H    0.192676
    79  C   -0.455530
    80  H    0.116760
    81  H    0.148962
    82  H    0.148388
    83  N   -0.627837
    84  H    0.360291
    85  C   -0.029984
    86  H    0.191742
    87  C    0.643209
    88  C   -0.304649
    89  H    0.167750
    90  H    0.152034
    91  O   -0.542015
    92  C   -0.388430
    93  H    0.217344
    94  H    0.177525
    95  C    0.588800
    96  O   -0.608983
    97  O   -0.502260
    98  N   -0.641516
    99  H    0.360902
   100  C    0.032756
   101  H    0.174237
   102  C    0.598111
   103  C   -0.338426
   104  H    0.189528
   105  H    0.160192
   106  O   -0.468046
   107  C   -0.275062
   108  H    0.139201
   109  H    0.159553
   110  C   -0.143220
   111  H    0.156825
   112  H    0.189796
   113  N   -0.593334
   114  H    0.328805
   115  N   -0.715011
   116  H    0.298936
   117  H    0.469823
   118  N   -0.760762
   119  H    0.335026
   120  H    0.333936
   121  C    0.657143
   122  O   -0.566137
   123  H    0.414196
 Sum of Mulliken charges =   1.00000

 Dipole moment (field-independent basis, Debye):
    X=            -15.6124    Y=              2.5107    Z=             22.5633  Tot=             27.5527
 Quadrupole moment (field-independent basis, Debye-Ang):
   XX=           -203.3165   YY=           -335.1405   ZZ=            -11.7230
   XY=            -47.5277   XZ=           -186.4553   YZ=             74.7737

 Normal termination of Gaussian 16 at Tue Aug  2 21:48:19 2022.
