 Gaussian 16, Revision C.01,
 Gaussian 16:  ES64L-G16RevC.01  3-Jul-2019

 ----------------------------------------------------------------------
 # B3LYP/6-31G* empiricaldispersion=gd3 guess=read geom=check nosymm in
 tegral(ultrafinegrid)
 ----------------------------------------------------------------------

 ------------------------------------------------------
 Candidate Structure: Conf:304 Charge calc in gas phase
 ------------------------------------------------------
 Structure from the checkpoint file:  "conf-304.chk"
 Charge =  1 Multiplicity = 1

                          Input orientation:
 ---------------------------------------------------------------------
 Center     Atomic      Atomic             Coordinates (Angstroms)
 Number     Number       Type             X           Y           Z
 ---------------------------------------------------------------------
      1          7           0       -3.546748    0.456709    0.702200
      2          1           0       -2.810283   -0.294491    0.595870
      3          1           0       -3.270885    1.309067    0.202726
      4          1           0       -4.384693    0.086656    0.239195
      5          6           0       -3.770417    0.700278    2.149741
      6          1           0       -2.817520    1.060789    2.549932
      7          6           0       -4.137007   -0.662578    2.762483
      8          6           0       -4.858781    1.782397    2.343538
      9          1           0       -4.973641    1.957159    3.418448
     10          1           0       -5.812111    1.382024    1.976857
     11          8           0       -4.711146   -1.515571    2.085502
     12          6           0       -4.478964    3.054830    1.612801
     13          6           0       -3.679109    4.022187    2.235825
     14          1           0       -3.407230    3.905248    3.282974
     15          6           0       -4.820925    3.226673    0.262632
     16          1           0       -5.445500    2.489080   -0.237601
     17          6           0       -3.235069    5.138006    1.524788
     18          1           0       -2.621315    5.884182    2.020934
     19          6           0       -4.356965    4.328507   -0.458660
     20          1           0       -4.591496    4.414763   -1.514029
     21          6           0       -3.566378    5.288793    0.175210
     22          1           0       -3.200190    6.145177   -0.382612
     23          7           0       -3.829995   -0.808680    4.071823
     24          1           0       -3.170153   -0.157992    4.475000
     25          6           0       -4.010513   -2.084916    4.779878
     26          1           0       -3.591135   -1.922233    5.778244
     27          6           0       -3.077173   -3.139333    4.130680
     28          6           0       -5.490705   -2.451943    4.924604
     29          1           0       -5.606953   -3.329637    5.569538
     30          1           0       -5.948126   -2.644334    3.951520
     31          1           0       -6.028409   -1.625391    5.397064
     32          8           0       -1.908094   -2.855424    3.888955
     33          7           0       -3.602835   -4.362823    3.854460
     34          1           0       -4.576761   -4.553104    4.041395
     35          6           0       -2.778476   -5.428119    3.283175
     36          1           0       -1.889268   -5.554470    3.907973
     37          6           0       -2.221758   -5.062532    1.895168
     38          6           0       -3.567331   -6.738183    3.215765
     39          1           0       -2.936719   -7.518351    2.782516
     40          1           0       -4.457482   -6.628683    2.585464
     41          1           0       -3.876174   -7.057536    4.216514
     42          8           0       -1.178976   -5.572039    1.494391
     43          7           0       -2.971615   -4.195041    1.155011
     44          1           0       -3.687495   -3.668391    1.646503
     45          6           0       -2.390593   -3.493305    0.001503
     46          1           0       -1.805691   -4.225428   -0.559595
     47          6           0       -1.414116   -2.490370    0.643780
     48          6           0       -3.547834   -2.952657   -0.874753
     49          1           0       -3.812115   -3.761992   -1.567745
     50          1           0       -4.419168   -2.829037   -0.222678
     51          8           0       -1.759468   -1.383535    1.101081
     52          6           0       -3.364099   -1.638938   -1.612131
     53          6           0       -4.507985   -0.866297   -1.886220
     54          1           0       -5.493036   -1.285883   -1.685530
     55          6           0       -2.123680   -1.089562   -1.959117
     56          1           0       -1.211859   -1.666664   -1.822629
     57          6           0       -4.415334    0.441678   -2.358935
     58          1           0       -5.304236    1.039550   -2.538867
     59          6           0       -2.008830    0.218130   -2.430219
     60          1           0       -1.037861    0.645067   -2.657596
     61          8           0       -3.092626    2.341271   -2.836794
     62          1           0       -2.128414    2.678504   -2.745927
     63          6           0       -3.152278    1.034335   -2.564476
     64          7           0       -0.166872   -2.949797    0.823450
     65          1           0       -0.006542   -3.936672    0.643569
     66          6           0        0.747169   -2.275628    1.754567
     67          1           0        0.164840   -2.027917    2.647774
     68          6           0        1.286697   -0.985146    1.102242
     69          6           0        1.915138   -3.194558    2.114184
     70          1           0        1.520819   -4.167083    2.437996
     71          1           0        2.502626   -3.351654    1.202369
     72          8           0        2.216961   -1.005373    0.296354
     73          6           0        2.809021   -2.597031    3.221191
     74          1           0        2.961013   -1.531495    2.995905
     75          6           0        2.148459   -2.700153    4.604540
     76          1           0        2.021894   -3.751226    4.893440
     77          1           0        2.763176   -2.212847    5.369817
     78          1           0        1.158210   -2.232211    4.625308
     79          6           0        4.182240   -3.283572    3.225545
     80          1           0        4.090023   -4.352311    3.454949
     81          1           0        4.668068   -3.208524    2.243034
     82          1           0        4.842918   -2.844930    3.984764
     83          7           0        0.676161    0.149910    1.510072
     84          1           0       -0.181091    0.052544    2.033220
     85          6           0        1.035093    1.433080    0.948155
     86          1           0        1.198542    1.278052   -0.124541
     87          6           0        2.420120    1.877443    1.446583
     88          6           0       -0.088032    2.485141    1.105023
     89          1           0       -0.735447    2.206264    1.950624
     90          1           0        0.340415    3.455652    1.366330
     91          8           0        3.106775    1.182458    2.217132
     92          6           0       -0.898428    2.618502   -0.184075
     93          1           0       -1.747054    3.296639   -0.046739
     94          1           0       -1.302043    1.639048   -0.469237
     95          6           0       -0.068676    3.124519   -1.400273
     96          8           0       -0.645790    3.102422   -2.520293
     97          8           0        1.118987    3.492548   -1.195298
     98          7           0        2.847011    3.003326    0.856686
     99          1           0        2.210291    3.415603    0.147134
    100          6           0        4.233623    3.400384    0.883750
    101          1           0        4.783685    2.631599    1.434486
    102          6           0        4.411492    4.705362    1.656135
    103          6           0        4.816217    3.529861   -0.547382
    104          1           0        5.907280    3.556161   -0.456491
    105          1           0        4.516978    4.494716   -0.972960
    106          8           0        3.524903    5.393473    2.098158
    107          6           0        4.361122    2.440397   -1.535779
    108          1           0        4.929844    2.579085   -2.465496
    109          1           0        3.308491    2.601850   -1.797086
    110          6           0        4.488330    0.981799   -1.082908
    111          1           0        4.284791    0.318283   -1.931671
    112          1           0        3.760677    0.713631   -0.321567
    113          7           0        5.836242    0.661267   -0.568619
    114          1           0        6.614445    0.943291   -1.151740
    115          7           0        5.276727   -0.335668    1.471873
    116          1           0        5.429251   -1.112855    2.099086
    117          1           0        4.420743    0.224708    1.634064
    118          7           0        7.368676   -0.665102    0.545635
    119          1           0        7.740382   -1.002877    1.420969
    120          1           0        7.944102   -0.764840   -0.277092
    121          6           0        6.134356   -0.111463    0.482797
    122          8           0        5.729275    5.005727    1.771998
    123          1           0        5.782523    5.855441    2.249434
 ---------------------------------------------------------------------

 SCF Done:  E(RB3LYP) =  -2974.25160625     A.U. after    1 cycles

 Alpha  occ. eigenvalues --  -19.26403 -19.24171 -19.22738 -19.21749 -19.20750
 Alpha  occ. eigenvalues --  -19.20645 -19.19964 -19.19703 -19.19253 -19.14139
 Alpha  occ. eigenvalues --  -19.13914 -14.52173 -14.49585 -14.49212 -14.48294
 Alpha  occ. eigenvalues --  -14.47286 -14.46674 -14.45589 -14.45092 -14.43603
 Alpha  occ. eigenvalues --  -14.42058 -10.45307 -10.41327 -10.39121 -10.39003
 Alpha  occ. eigenvalues --  -10.38622 -10.37732 -10.36735 -10.36239 -10.36110
 Alpha  occ. eigenvalues --  -10.34868 -10.32951 -10.32795 -10.32349 -10.31576
 Alpha  occ. eigenvalues --  -10.31067 -10.31063 -10.30959 -10.30788 -10.30330
 Alpha  occ. eigenvalues --  -10.28909 -10.28506 -10.27816 -10.27579 -10.27535
 Alpha  occ. eigenvalues --  -10.27409 -10.27056 -10.27005 -10.26718 -10.26716
 Alpha  occ. eigenvalues --  -10.26647 -10.26607 -10.26526 -10.26412 -10.26176
 Alpha  occ. eigenvalues --  -10.26160 -10.26055 -10.25706 -10.25173 -10.24623
 Alpha  occ. eigenvalues --  -10.24411 -10.24232  -1.17155  -1.16259  -1.14439
 Alpha  occ. eigenvalues --   -1.13842  -1.13588  -1.12384  -1.11667  -1.10476
 Alpha  occ. eigenvalues --   -1.09031  -1.08537  -1.08316  -1.07009  -1.04472
 Alpha  occ. eigenvalues --   -1.03165  -1.03020  -1.02218  -1.01404  -1.01135
 Alpha  occ. eigenvalues --   -1.00302  -1.00020  -0.98334  -0.94347  -0.92229
 Alpha  occ. eigenvalues --   -0.90259  -0.89379  -0.88414  -0.88347  -0.86698
 Alpha  occ. eigenvalues --   -0.86357  -0.85131  -0.83655  -0.83138  -0.82914
 Alpha  occ. eigenvalues --   -0.82529  -0.81430  -0.79874  -0.78744  -0.77348
 Alpha  occ. eigenvalues --   -0.77250  -0.75928  -0.75648  -0.75005  -0.74577
 Alpha  occ. eigenvalues --   -0.74041  -0.72141  -0.71333  -0.71061  -0.70260
 Alpha  occ. eigenvalues --   -0.69631  -0.69513  -0.68964  -0.68755  -0.68429
 Alpha  occ. eigenvalues --   -0.68134  -0.68066  -0.67440  -0.66880  -0.66473
 Alpha  occ. eigenvalues --   -0.65909  -0.65233  -0.65067  -0.64839  -0.64067
 Alpha  occ. eigenvalues --   -0.63576  -0.62960  -0.62421  -0.61741  -0.61204
 Alpha  occ. eigenvalues --   -0.59976  -0.59614  -0.59575  -0.59312  -0.59058
 Alpha  occ. eigenvalues --   -0.58493  -0.57841  -0.57736  -0.57337  -0.56843
 Alpha  occ. eigenvalues --   -0.56572  -0.56521  -0.55941  -0.55341  -0.55051
 Alpha  occ. eigenvalues --   -0.54968  -0.54710  -0.54164  -0.53822  -0.53663
 Alpha  occ. eigenvalues --   -0.53583  -0.53273  -0.53108  -0.52713  -0.52442
 Alpha  occ. eigenvalues --   -0.51999  -0.51822  -0.51691  -0.51474  -0.51238
 Alpha  occ. eigenvalues --   -0.50901  -0.50741  -0.50477  -0.50241  -0.50112
 Alpha  occ. eigenvalues --   -0.50072  -0.49773  -0.49702  -0.49440  -0.49199
 Alpha  occ. eigenvalues --   -0.49050  -0.48762  -0.48704  -0.48500  -0.48353
 Alpha  occ. eigenvalues --   -0.48151  -0.47992  -0.47749  -0.47417  -0.47320
 Alpha  occ. eigenvalues --   -0.46898  -0.46677  -0.46498  -0.46158  -0.45855
 Alpha  occ. eigenvalues --   -0.45826  -0.45541  -0.45418  -0.45045  -0.44546
 Alpha  occ. eigenvalues --   -0.44424  -0.44336  -0.43921  -0.43676  -0.43449
 Alpha  occ. eigenvalues --   -0.43007  -0.42791  -0.42529  -0.42242  -0.41998
 Alpha  occ. eigenvalues --   -0.41839  -0.41603  -0.41283  -0.40618  -0.40138
 Alpha  occ. eigenvalues --   -0.40098  -0.39933  -0.39716  -0.38859  -0.38592
 Alpha  occ. eigenvalues --   -0.38507  -0.38121  -0.37949  -0.37652  -0.37399
 Alpha  occ. eigenvalues --   -0.37325  -0.36600  -0.35399  -0.34858  -0.34288
 Alpha  occ. eigenvalues --   -0.34034  -0.33522  -0.33297  -0.33110  -0.32899
 Alpha  occ. eigenvalues --   -0.32448  -0.32156  -0.32068  -0.29637  -0.28607
 Alpha  occ. eigenvalues --   -0.28328  -0.27175
 Alpha virt. eigenvalues --   -0.11163  -0.09745  -0.09102  -0.08901  -0.08562
 Alpha virt. eigenvalues --   -0.07920  -0.07495  -0.06528  -0.06470  -0.06041
 Alpha virt. eigenvalues --   -0.05883  -0.05582  -0.05406  -0.05321  -0.02078

 Mulliken charges:
               1
     1  N   -0.803800
     2  H    0.480869
     3  H    0.430645
     4  H    0.395602
     5  C   -0.110099
     6  H    0.188572
     7  C    0.676436
     8  C   -0.363612
     9  H    0.179160
    10  H    0.182275
    11  O   -0.546468
    12  C    0.149683
    13  C   -0.182623
    14  H    0.130011
    15  C   -0.223069
    16  H    0.137331
    17  C   -0.123516
    18  H    0.157586
    19  C   -0.104404
    20  H    0.178960
    21  C   -0.134710
    22  H    0.165665
    23  N   -0.585790
    24  H    0.350404
    25  C   -0.066190
    26  H    0.190725
    27  C    0.627798
    28  C   -0.486763
    29  H    0.166637
    30  H    0.192369
    31  H    0.181740
    32  O   -0.523819
    33  N   -0.640929
    34  H    0.351002
    35  C   -0.009739
    36  H    0.196658
    37  C    0.628582
    38  C   -0.490756
    39  H    0.202017
    40  H    0.164438
    41  H    0.173766
    42  O   -0.537690
    43  N   -0.609513
    44  H    0.364486
    45  C   -0.061113
    46  H    0.188828
    47  C    0.661704
    48  C   -0.372367
    49  H    0.184010
    50  H    0.167312
    51  O   -0.623268
    52  C    0.141885
    53  C   -0.247521
    54  H    0.136222
    55  C   -0.200662
    56  H    0.136772
    57  C   -0.194180
    58  H    0.146868
    59  C   -0.218425
    60  H    0.175720
    61  O   -0.685984
    62  H    0.466423
    63  C    0.352243
    64  N   -0.592833
    65  H    0.377404
    66  C   -0.056834
    67  H    0.194768
    68  C    0.640083
    69  C   -0.304852
    70  H    0.158693
    71  H    0.163053
    72  O   -0.549669
    73  C   -0.096556
    74  H    0.151721
    75  C   -0.450545
    76  H    0.148143
    77  H    0.149014
    78  H    0.154667
    79  C   -0.466736
    80  H    0.162405
    81  H    0.131128
    82  H    0.140860
    83  N   -0.593342
    84  H    0.335432
    85  C   -0.038777
    86  H    0.203896
    87  C    0.593987
    88  C   -0.302959
    89  H    0.110260
    90  H    0.192365
    91  O   -0.587218
    92  C   -0.430933
    93  H    0.179178
    94  H    0.132528
    95  C    0.622899
    96  O   -0.588544
    97  O   -0.578926
    98  N   -0.582301
    99  H    0.414464
   100  C   -0.056687
   101  H    0.174429
   102  C    0.588451
   103  C   -0.284165
   104  H    0.153043
   105  H    0.180654
   106  O   -0.442865
   107  C   -0.321308
   108  H    0.148286
   109  H    0.223073
   110  C   -0.179229
   111  H    0.188164
   112  H    0.226086
   113  N   -0.603322
   114  H    0.350172
   115  N   -0.798440
   116  H    0.367297
   117  H    0.467066
   118  N   -0.770855
   119  H    0.374227
   120  H    0.371769
   121  C    0.805745
   122  O   -0.572044
   123  H    0.420139
 Sum of Mulliken charges =   1.00000

 Dipole moment (field-independent basis, Debye):
    X=              4.5567    Y=             -7.3539    Z=             14.3430  Tot=             16.7500
 Quadrupole moment (field-independent basis, Debye-Ang):
   XX=           -150.3728   YY=           -324.5643   ZZ=           -322.1034
   XY=             20.6252   XZ=            -45.1298   YZ=            -11.4977

 Normal termination of Gaussian 16 at Tue Aug  2 21:47:34 2022.
