 Gaussian 16, Revision C.01,
 Gaussian 16:  ES64L-G16RevC.01  3-Jul-2019

 ----------------------------------------------------------------------
 # B3LYP/6-31G* empiricaldispersion=gd3 guess=read geom=check nosymm in
 tegral(ultrafinegrid)
 ----------------------------------------------------------------------

 ------------------------------------------------------
 Candidate Structure: Conf:477 Charge calc in gas phase
 ------------------------------------------------------
 Structure from the checkpoint file:  "conf-477.chk"
 Charge =  1 Multiplicity = 1

                          Input orientation:
 ---------------------------------------------------------------------
 Center     Atomic      Atomic             Coordinates (Angstroms)
 Number     Number       Type             X           Y           Z
 ---------------------------------------------------------------------
      1          7           0       -3.514284    4.649007    0.483438
      2          1           0       -4.324211    5.246725    0.671597
      3          1           0       -3.751214    3.939750   -0.232847
      4          1           0       -2.660976    5.191092    0.109510
      5          6           0       -3.096560    3.958853    1.735869
      6          1           0       -2.362226    3.204929    1.437493
      7          6           0       -4.343875    3.266658    2.309403
      8          6           0       -2.444503    4.958965    2.722417
      9          1           0       -1.481965    5.254725    2.297112
     10          1           0       -2.246856    4.421095    3.656620
     11          8           0       -5.468155    3.604533    1.945319
     12          6           0       -3.300418    6.181701    2.970609
     13          6           0       -3.100769    7.339576    2.204384
     14          1           0       -2.298219    7.360066    1.470476
     15          6           0       -4.332452    6.161237    3.917917
     16          1           0       -4.494539    5.267724    4.516384
     17          6           0       -3.919564    8.456069    2.386461
     18          1           0       -3.752271    9.349744    1.791608
     19          6           0       -5.148376    7.277205    4.101062
     20          1           0       -5.942188    7.250340    4.842190
     21          6           0       -4.944222    8.426875    3.334232
     22          1           0       -5.578965    9.296626    3.478083
     23          7           0       -4.044541    2.297416    3.195198
     24          1           0       -3.073234    2.136136    3.446524
     25          6           0       -4.962516    1.412961    3.911168
     26          1           0       -5.391964    1.953215    4.768529
     27          6           0       -4.022166    0.334126    4.495091
     28          6           0       -6.108331    0.879545    3.044565
     29          1           0       -6.807967    0.298157    3.655492
     30          1           0       -5.733733    0.251477    2.230509
     31          1           0       -6.658060    1.713656    2.608893
     32          8           0       -2.867336    0.644692    4.812442
     33          7           0       -4.487884   -0.922968    4.619899
     34          1           0       -5.404084   -1.161465    4.266916
     35          6           0       -3.649516   -2.018168    5.130394
     36          1           0       -2.999583   -1.574864    5.891877
     37          6           0       -2.751083   -2.585625    3.999902
     38          6           0       -4.523100   -3.110315    5.735008
     39          1           0       -3.896083   -3.909199    6.136525
     40          1           0       -5.165700   -3.561686    4.972297
     41          1           0       -5.139967   -2.700944    6.540584
     42          8           0       -2.860260   -3.742787    3.606029
     43          7           0       -1.844888   -1.712193    3.484281
     44          1           0       -1.760465   -0.767062    3.853417
     45          6           0       -0.909531   -2.146759    2.468470
     46          1           0       -0.533260   -3.136926    2.755895
     47          6           0        0.247025   -1.148175    2.419076
     48          6           0       -1.568958   -2.307814    1.061326
     49          1           0       -0.864772   -2.849682    0.416708
     50          1           0       -2.425654   -2.971240    1.213097
     51          8           0        0.157572    0.000874    2.843764
     52          6           0       -1.976313   -1.015892    0.393725
     53          6           0       -3.172566   -0.363468    0.721400
     54          1           0       -3.833319   -0.809972    1.459359
     55          6           0       -1.156481   -0.426630   -0.577202
     56          1           0       -0.226733   -0.909518   -0.861903
     57          6           0       -3.525627    0.845943    0.123682
     58          1           0       -4.458210    1.342310    0.373737
     59          6           0       -1.495711    0.778621   -1.189624
     60          1           0       -0.864150    1.202188   -1.963148
     61          8           0       -3.031394    2.641733   -1.366350
     62          1           0       -2.203367    3.159931   -1.599509
     63          6           0       -2.675348    1.435947   -0.819542
     64          7           0        1.394139   -1.620108    1.844628
     65          1           0        1.381553   -2.517036    1.377993
     66          6           0        2.513452   -0.721252    1.592188
     67          1           0        2.624081   -0.109523    2.490295
     68          6           0        2.170840    0.182071    0.393848
     69          6           0        3.807387   -1.503757    1.349039
     70          1           0        4.035774   -2.075582    2.257284
     71          1           0        3.622203   -2.242126    0.555747
     72          8           0        2.084870   -0.287949   -0.755700
     73          6           0        5.017262   -0.621731    0.972112
     74          1           0        4.780610   -0.089456    0.039207
     75          6           0        5.316646    0.444805    2.036870
     76          1           0        5.454819   -0.011428    3.025097
     77          1           0        6.232963    0.990113    1.787574
     78          1           0        4.512194    1.183414    2.104456
     79          6           0        6.255678   -1.502586    0.742852
     80          1           0        6.565060   -1.990865    1.674548
     81          1           0        6.076930   -2.313425    0.019045
     82          1           0        7.102539   -0.907649    0.383368
     83          7           0        1.968768    1.471765    0.705269
     84          1           0        1.831414    1.667671    1.689906
     85          6           0        1.504951    2.497970   -0.225997
     86          1           0        0.449259    2.312534   -0.428493
     87          6           0        2.293929    2.408885   -1.548243
     88          6           0        1.659642    3.892364    0.409619
     89          1           0        1.134608    3.898241    1.375680
     90          1           0        2.722670    4.067151    0.613495
     91          8           0        3.487589    2.121536   -1.587930
     92          6           0        1.111364    5.043827   -0.463731
     93          1           0        1.651198    5.075412   -1.415596
     94          1           0        1.280512    5.989725    0.055550
     95          6           0       -0.390408    4.896730   -0.733570
     96          8           0       -1.165861    5.647939   -0.083543
     97          8           0       -0.753327    3.993092   -1.556215
     98          7           0        1.510220    2.681316   -2.621415
     99          1           0        0.581517    3.079119   -2.429153
    100          6           0        1.911820    2.451901   -3.998120
    101          1           0        2.620569    3.209688   -4.351451
    102          6           0        0.709794    2.549151   -4.930847
    103          6           0        2.563996    1.049789   -4.122999
    104          1           0        2.042242    0.412807   -3.401688
    105          1           0        3.588836    1.145948   -3.755840
    106          8           0        0.793752    2.865201   -6.094528
    107          6           0        2.541032    0.397276   -5.509473
    108          1           0        2.810250    1.108889   -6.297283
    109          1           0        1.529224    0.048109   -5.750476
    110          6           0        3.527054   -0.781327   -5.564190
    111          1           0        4.549487   -0.399595   -5.621718
    112          1           0        3.352841   -1.416296   -6.437583
    113          7           0        3.433549   -1.607251   -4.339278
    114          1           0        2.494126   -1.816100   -4.020064
    115          7           0        5.670700   -1.632829   -3.715680
    116          1           0        6.380797   -1.422113   -3.029457
    117          1           0        5.971409   -1.846904   -4.655340
    118          7           0        4.015300   -1.775421   -2.096683
    119          1           0        4.740581   -1.991015   -1.425802
    120          1           0        3.194266   -1.283660   -1.695984
    121          6           0        4.368481   -1.653603   -3.377949
    122          8           0       -0.446975    2.169739   -4.340072
    123          1           0       -1.156086    2.266911   -5.004290
 ---------------------------------------------------------------------

 SCF Done:  E(RB3LYP) =  -2974.27336779     A.U. after    3 cycles

 Alpha  occ. eigenvalues --  -19.28487 -19.23283 -19.22434 -19.22406 -19.20960
 Alpha  occ. eigenvalues --  -19.20813 -19.20061 -19.18957 -19.18747 -19.18402
 Alpha  occ. eigenvalues --  -19.18402 -14.51590 -14.50939 -14.49287 -14.48557
 Alpha  occ. eigenvalues --  -14.46082 -14.45669 -14.45549 -14.44207 -14.42639
 Alpha  occ. eigenvalues --  -14.42295 -10.47129 -10.40641 -10.38809 -10.37969
 Alpha  occ. eigenvalues --  -10.37829 -10.37308 -10.36252 -10.36161 -10.35445
 Alpha  occ. eigenvalues --  -10.35099 -10.32974 -10.32935 -10.32600 -10.32594
 Alpha  occ. eigenvalues --  -10.31490 -10.31301 -10.31078 -10.31054 -10.29430
 Alpha  occ. eigenvalues --  -10.29003 -10.28833 -10.28397 -10.27825 -10.27713
 Alpha  occ. eigenvalues --  -10.27350 -10.26736 -10.26258 -10.26058 -10.26030
 Alpha  occ. eigenvalues --  -10.25968 -10.25944 -10.25796 -10.25658 -10.25458
 Alpha  occ. eigenvalues --  -10.25209 -10.25029 -10.24971 -10.24806 -10.24781
 Alpha  occ. eigenvalues --  -10.24720 -10.24665  -1.19208  -1.15605  -1.13865
 Alpha  occ. eigenvalues --   -1.13181  -1.12701  -1.12105  -1.11791  -1.10868
 Alpha  occ. eigenvalues --   -1.10602  -1.10218  -1.10212  -1.05163  -1.04693
 Alpha  occ. eigenvalues --   -1.03429  -1.02557  -1.02439  -1.01872  -1.01639
 Alpha  occ. eigenvalues --   -1.00998  -1.00172  -0.99137  -0.92109  -0.91721
 Alpha  occ. eigenvalues --   -0.91220  -0.90507  -0.88214  -0.87816  -0.86423
 Alpha  occ. eigenvalues --   -0.85433  -0.85014  -0.83962  -0.83195  -0.81506
 Alpha  occ. eigenvalues --   -0.80287  -0.80246  -0.79877  -0.79812  -0.79130
 Alpha  occ. eigenvalues --   -0.77655  -0.77373  -0.75357  -0.74759  -0.73836
 Alpha  occ. eigenvalues --   -0.73202  -0.72777  -0.72185  -0.71341  -0.71243
 Alpha  occ. eigenvalues --   -0.69325  -0.68950  -0.68645  -0.68395  -0.67956
 Alpha  occ. eigenvalues --   -0.67684  -0.66675  -0.66486  -0.65778  -0.65686
 Alpha  occ. eigenvalues --   -0.65213  -0.65142  -0.64725  -0.64270  -0.63884
 Alpha  occ. eigenvalues --   -0.63427  -0.63254  -0.62853  -0.61708  -0.61576
 Alpha  occ. eigenvalues --   -0.60845  -0.59915  -0.59683  -0.58877  -0.58795
 Alpha  occ. eigenvalues --   -0.58566  -0.57648  -0.57421  -0.56900  -0.56544
 Alpha  occ. eigenvalues --   -0.56455  -0.56287  -0.55947  -0.55577  -0.55477
 Alpha  occ. eigenvalues --   -0.55032  -0.54641  -0.54370  -0.54233  -0.53855
 Alpha  occ. eigenvalues --   -0.53718  -0.53241  -0.52896  -0.52730  -0.52466
 Alpha  occ. eigenvalues --   -0.52387  -0.51922  -0.51554  -0.51231  -0.51102
 Alpha  occ. eigenvalues --   -0.50908  -0.50650  -0.50393  -0.50249  -0.50048
 Alpha  occ. eigenvalues --   -0.49920  -0.49676  -0.49260  -0.49066  -0.48931
 Alpha  occ. eigenvalues --   -0.48800  -0.48349  -0.48092  -0.47823  -0.47756
 Alpha  occ. eigenvalues --   -0.47522  -0.47470  -0.47407  -0.47117  -0.46929
 Alpha  occ. eigenvalues --   -0.46802  -0.46547  -0.46392  -0.46241  -0.45940
 Alpha  occ. eigenvalues --   -0.45905  -0.45632  -0.45448  -0.45371  -0.45089
 Alpha  occ. eigenvalues --   -0.45025  -0.44940  -0.44260  -0.44103  -0.43657
 Alpha  occ. eigenvalues --   -0.43586  -0.43173  -0.42873  -0.42727  -0.42698
 Alpha  occ. eigenvalues --   -0.42494  -0.42214  -0.41957  -0.41704  -0.41649
 Alpha  occ. eigenvalues --   -0.41281  -0.40537  -0.40408  -0.39891  -0.39825
 Alpha  occ. eigenvalues --   -0.39696  -0.38723  -0.37290  -0.36262  -0.36130
 Alpha  occ. eigenvalues --   -0.36115  -0.35263  -0.34936  -0.34256  -0.33938
 Alpha  occ. eigenvalues --   -0.33811  -0.33598  -0.33360  -0.32583  -0.32559
 Alpha  occ. eigenvalues --   -0.32325  -0.32302  -0.31640  -0.31349  -0.30876
 Alpha  occ. eigenvalues --   -0.30520  -0.28650
 Alpha virt. eigenvalues --   -0.12516  -0.08577  -0.08146  -0.08038  -0.07426
 Alpha virt. eigenvalues --   -0.07391  -0.06731  -0.06616  -0.06327  -0.05976
 Alpha virt. eigenvalues --   -0.05559  -0.05343  -0.04301  -0.03871  -0.03772

 Mulliken charges:
               1
     1  N   -0.783731
     2  H    0.394436
     3  H    0.418980
     4  H    0.433835
     5  C   -0.116939
     6  H    0.197152
     7  C    0.665441
     8  C   -0.379065
     9  H    0.196264
    10  H    0.171601
    11  O   -0.543440
    12  C    0.128611
    13  C   -0.215360
    14  H    0.169604
    15  C   -0.165114
    16  H    0.128725
    17  C   -0.128754
    18  H    0.145011
    19  C   -0.127654
    20  H    0.143497
    21  C   -0.125981
    22  H    0.145473
    23  N   -0.639135
    24  H    0.369035
    25  C    0.002493
    26  H    0.193832
    27  C    0.611251
    28  C   -0.508709
    29  H    0.154563
    30  H    0.171505
    31  H    0.223646
    32  O   -0.547578
    33  N   -0.605159
    34  H    0.349489
    35  C   -0.065969
    36  H    0.194991
    37  C    0.617933
    38  C   -0.461206
    39  H    0.185658
    40  H    0.168300
    41  H    0.159599
    42  O   -0.520095
    43  N   -0.640744
    44  H    0.392172
    45  C   -0.028605
    46  H    0.175487
    47  C    0.636110
    48  C   -0.376713
    49  H    0.132064
    50  H    0.199183
    51  O   -0.538372
    52  C    0.182577
    53  C   -0.193716
    54  H    0.126949
    55  C   -0.212952
    56  H    0.133654
    57  C   -0.191796
    58  H    0.150483
    59  C   -0.199684
    60  H    0.163116
    61  O   -0.727654
    62  H    0.454898
    63  C    0.336973
    64  N   -0.616657
    65  H    0.336154
    66  C   -0.048939
    67  H    0.179285
    68  C    0.690641
    69  C   -0.293342
    70  H    0.168096
    71  H    0.117915
    72  O   -0.600721
    73  C   -0.107048
    74  H    0.156777
    75  C   -0.451378
    76  H    0.153972
    77  H    0.162307
    78  H    0.152011
    79  C   -0.471033
    80  H    0.173688
    81  H    0.117628
    82  H    0.161639
    83  N   -0.598236
    84  H    0.359395
    85  C   -0.034899
    86  H    0.199322
    87  C    0.635507
    88  C   -0.317161
    89  H    0.151009
    90  H    0.174943
    91  O   -0.560046
    92  C   -0.347028
    93  H    0.166882
    94  H    0.173533
    95  C    0.608028
    96  O   -0.577334
    97  O   -0.605757
    98  N   -0.687178
    99  H    0.420781
   100  C    0.025993
   101  H    0.189818
   102  C    0.563703
   103  C   -0.309263
   104  H    0.159699
   105  H    0.184331
   106  O   -0.457659
   107  C   -0.304528
   108  H    0.197632
   109  H    0.164640
   110  C   -0.171493
   111  H    0.174318
   112  H    0.193900
   113  N   -0.570355
   114  H    0.367047
   115  N   -0.744256
   116  H    0.381493
   117  H    0.383325
   118  N   -0.802499
   119  H    0.371576
   120  H    0.437127
   121  C    0.773023
   122  O   -0.557402
   123  H    0.426604
 Sum of Mulliken charges =   1.00000

 Dipole moment (field-independent basis, Debye):
    X=              9.2110    Y=             -2.2401    Z=             -3.7830  Tot=             10.2065
 Quadrupole moment (field-independent basis, Debye-Ang):
   XX=           -232.8299   YY=           -330.1926   ZZ=           -286.2615
   XY=            -47.7267   XZ=            -76.2670   YZ=             28.9055

 Normal termination of Gaussian 16 at Tue Aug  2 21:48:54 2022.
