 Gaussian 16, Revision C.01,
 Gaussian 16:  ES64L-G16RevC.01  3-Jul-2019

 -------------------------------------------------------------------
 # B3LYP/6-31G* guess=read geom=check nosymm integral(ultrafinegrid)
 -------------------------------------------------------------------

 ------------------------------------------------------
 Candidate Structure: Conf:304 Charge calc in gas phase
 ------------------------------------------------------
 Structure from the checkpoint file:  "conf-304.chk"
 Charge =  1 Multiplicity = 1

                          Input orientation:
 ---------------------------------------------------------------------
 Center     Atomic      Atomic             Coordinates (Angstroms)
 Number     Number       Type             X           Y           Z
 ---------------------------------------------------------------------
      1          7           0        1.109206    1.260358    4.539370
      2          1           0        1.489337    0.771851    5.352274
      3          1           0        0.127543    1.569915    4.710935
      4          1           0        1.122384    0.614562    3.697157
      5          6           0        1.836989    2.520548    4.196624
      6          1           0        2.623701    2.298734    3.473848
      7          1           0        2.270607    2.949952    5.103358
      8          6           0        0.741066    3.442768    3.621511
      9          8           0       -0.428192    3.194455    3.919161
     10          7           0        1.161394    4.444026    2.834899
     11          1           0        2.130586    4.430009    2.513767
     12          6           0        0.199038    5.193095    2.017139
     13          1           0       -0.699975    5.385321    2.600805
     14          1           0        0.659784    6.139602    1.723043
     15          6           0       -0.190943    4.338702    0.797310
     16          8           0       -1.318092    3.869031    0.662233
     17          7           0        0.829691    4.089992   -0.069208
     18          1           0        1.787766    4.286382    0.219641
     19          6           0        0.669666    3.094262   -1.118473
     20          1           0        1.398575    3.277388   -1.909359
     21          1           0       -0.336938    3.192413   -1.533736
     22          6           0        0.895363    1.667646   -0.597130
     23          8           0        1.874087    0.992567   -0.913285
     24          7           0       -0.052025    1.204613    0.268370
     25          1           0       -0.859325    1.796138    0.454657
     26          6           0       -0.091472   -0.203053    0.627586
     27          1           0       -0.913004   -0.345894    1.335696
     28          1           0       -0.301744   -0.820929   -0.254210
     29          6           0        1.192276   -0.700046    1.305013
     30          8           0        1.598655   -0.246886    2.391137
     31          7           0        1.805596   -1.727102    0.686538
     32          1           0        1.616895   -1.835972   -0.304877
     33          6           0        3.117849   -2.210239    1.091619
     34          1           0        3.146879   -3.301338    0.997011
     35          1           0        3.274559   -1.945040    2.138047
     36          6           0        4.164673   -1.593501    0.152422
     37          8           0        3.898070   -1.412759   -1.031620
     38          7           0        5.356029   -1.246531    0.702186
     39          1           0        5.494285   -1.337988    1.699200
     40          6           0        6.378186   -0.560411   -0.080486
     41          1           0        7.365028   -0.781821    0.327395
     42          1           0        6.322778   -0.936285   -1.106405
     43          6           0        6.219444    0.968848   -0.081914
     44          8           0        7.167417    1.700817    0.209250
     45          7           0        4.990182    1.449657   -0.403094
     46          1           0        4.260946    0.824275   -0.738330
     47          6           0        4.762639    2.882806   -0.551178
     48          1           0        5.591728    3.330307   -1.110994
     49          1           0        3.838423    3.010628   -1.112030
     50          6           0        4.608555    3.614857    0.793095
     51          8           0        3.500543    4.032577    1.189329
     52          7           0        5.743123    3.775909    1.487658
     53          1           0        6.583633    3.327344    1.115220
     54          6           0        5.795466    4.474453    2.756432
     55          1           0        5.030906    5.257369    2.762487
     56          1           0        5.576862    3.808490    3.601815
     57          6           0        7.135824    5.130888    3.060469
     58          8           0        7.373508    5.650402    4.122868
     59          8           0        7.998949    5.062055    2.028884
     60          1           0        8.825943    5.496572    2.314684
 ---------------------------------------------------------------------

 SCF Done:  E(RB3LYP) =  -1740.92268579     A.U. after    3 cycles

 Alpha  occ. eigenvalues --  -19.29663 -19.26237 -19.25925 -19.24909 -19.23456
 Alpha  occ. eigenvalues --  -19.23259 -19.23092 -19.22686 -19.22288 -14.57567
 Alpha  occ. eigenvalues --  -14.49145 -14.49057 -14.48385 -14.47617 -14.47302
 Alpha  occ. eigenvalues --  -14.46757 -14.46295 -10.43040 -10.42837 -10.42327
 Alpha  occ. eigenvalues --  -10.41193 -10.40555 -10.39914 -10.39643 -10.39438
 Alpha  occ. eigenvalues --  -10.39388 -10.35456 -10.35034 -10.34666 -10.33914
 Alpha  occ. eigenvalues --  -10.33853 -10.33580 -10.33113  -1.20477  -1.18350
 Alpha  occ. eigenvalues --   -1.17405  -1.15818  -1.15361  -1.14918  -1.14188
 Alpha  occ. eigenvalues --   -1.13917  -1.12136  -1.11508  -1.05798  -1.05355
 Alpha  occ. eigenvalues --   -1.04287  -1.04211  -1.03552  -1.02482  -1.02347
 Alpha  occ. eigenvalues --   -0.89381  -0.88776  -0.87589  -0.85884  -0.84347
 Alpha  occ. eigenvalues --   -0.82618  -0.80802  -0.79639  -0.73436  -0.72925
 Alpha  occ. eigenvalues --   -0.72542  -0.72422  -0.71376  -0.70613  -0.70180
 Alpha  occ. eigenvalues --   -0.69533  -0.68893  -0.68138  -0.65932  -0.65629
 Alpha  occ. eigenvalues --   -0.64528  -0.64243  -0.63444  -0.62822  -0.61979
 Alpha  occ. eigenvalues --   -0.61602  -0.60447  -0.60078  -0.59133  -0.58835
 Alpha  occ. eigenvalues --   -0.58313  -0.58226  -0.57872  -0.57494  -0.56945
 Alpha  occ. eigenvalues --   -0.56586  -0.56555  -0.56140  -0.54969  -0.53801
 Alpha  occ. eigenvalues --   -0.53633  -0.53135  -0.52595  -0.52398  -0.52160
 Alpha  occ. eigenvalues --   -0.51715  -0.51457  -0.51143  -0.51081  -0.50786
 Alpha  occ. eigenvalues --   -0.50658  -0.50024  -0.49319  -0.48928  -0.48496
 Alpha  occ. eigenvalues --   -0.48340  -0.48105  -0.47567  -0.47332  -0.41520
 Alpha  occ. eigenvalues --   -0.40945  -0.40785  -0.40411  -0.40091  -0.39742
 Alpha  occ. eigenvalues --   -0.38928  -0.38453  -0.38437  -0.37183  -0.36924
 Alpha  occ. eigenvalues --   -0.36685  -0.35951  -0.35188  -0.35081  -0.34678
 Alpha virt. eigenvalues --   -0.12381  -0.11898  -0.10698  -0.10214  -0.10071
 Alpha virt. eigenvalues --   -0.08752  -0.08274  -0.08094  -0.07971  -0.04288
 Alpha virt. eigenvalues --   -0.03409  -0.02842  -0.01514  -0.01090  -0.00855

 Mulliken charges:
               1
     1  N   -0.763049
     2  H    0.401391
     3  H    0.417364
     4  H    0.443606
     5  C   -0.283390
     6  H    0.228540
     7  H    0.235069
     8  C    0.630589
     9  O   -0.506301
    10  N   -0.611026
    11  H    0.385661
    12  C   -0.248733
    13  H    0.230614
    14  H    0.199340
    15  C    0.596799
    16  O   -0.509130
    17  N   -0.593833
    18  H    0.375383
    19  C   -0.245862
    20  H    0.191610
    21  H    0.213039
    22  C    0.593816
    23  O   -0.526832
    24  N   -0.593797
    25  H    0.382896
    26  C   -0.223418
    27  H    0.195495
    28  H    0.187949
    29  C    0.650268
    30  O   -0.588215
    31  N   -0.545338
    32  H    0.372702
    33  C   -0.251318
    34  H    0.214895
    35  H    0.183261
    36  C    0.621687
    37  O   -0.509565
    38  N   -0.585069
    39  H    0.342158
    40  C   -0.241189
    41  H    0.202285
    42  H    0.226842
    43  C    0.599287
    44  O   -0.523001
    45  N   -0.606288
    46  H    0.406525
    47  C   -0.231158
    48  H    0.206392
    49  H    0.187461
    50  C    0.602507
    51  O   -0.573562
    52  N   -0.580094
    53  H    0.405262
    54  C   -0.214862
    55  H    0.214020
    56  H    0.186002
    57  C    0.580657
    58  O   -0.435650
    59  O   -0.553729
    60  H    0.433040
 Sum of Mulliken charges =   1.00000

 Dipole moment (field-independent basis, Debye):
    X=             13.9328    Y=              5.0671    Z=             12.3931  Tot=             19.3232
 Quadrupole moment (field-independent basis, Debye-Ang):
   XX=           -126.0835   YY=           -144.9672   ZZ=           -133.8507
   XY=             24.0540   XZ=             29.5448   YZ=              4.3681

 Normal termination of Gaussian 16 at Tue Jul 19 19:38:20 2022.
