 Gaussian 16, Revision C.01,
 Gaussian 16:  ES64L-G16RevC.01  3-Jul-2019

 -------------------------------------------------------------------
 # B3LYP/6-31G* guess=read geom=check nosymm integral(ultrafinegrid)
 -------------------------------------------------------------------

 ------------------------------------------------------
 Candidate Structure: Conf:684 Charge calc in gas phase
 ------------------------------------------------------
 Structure from the checkpoint file:  "conf-684.chk"
 Charge =  1 Multiplicity = 1

                          Input orientation:
 ---------------------------------------------------------------------
 Center     Atomic      Atomic             Coordinates (Angstroms)
 Number     Number       Type             X           Y           Z
 ---------------------------------------------------------------------
      1          7           0        2.788494    4.189839    1.800952
      2          1           0        3.800538    3.912432    1.818554
      3          1           0        2.216730    3.329863    1.907506
      4          1           0        2.599361    4.562429    0.856740
      5          6           0        2.414334    5.160996    2.865815
      6          1           0        2.941894    6.100721    2.681566
      7          1           0        2.734786    4.755040    3.827673
      8          6           0        0.898514    5.361534    2.764631
      9          8           0        0.376578    5.393381    1.650214
     10          7           0        0.223259    5.463145    3.929617
     11          1           0        0.709923    5.262870    4.794294
     12          6           0       -1.242221    5.380014    3.968068
     13          1           0       -1.591412    5.756808    4.929083
     14          1           0       -1.645746    5.997584    3.162593
     15          6           0       -1.645881    3.899868    3.834666
     16          8           0       -1.879607    3.199273    4.804222
     17          7           0       -1.637958    3.442099    2.537922
     18          1           0       -1.257222    4.077059    1.842442
     19          6           0       -1.554895    2.027701    2.270985
     20          1           0       -2.234679    1.738015    1.460408
     21          1           0       -1.878168    1.510382    3.182431
     22          6           0       -0.117667    1.594472    1.950605
     23          8           0        0.864965    2.202489    2.383329
     24          7           0        0.011686    0.500631    1.150829
     25          1           0       -0.826153   -0.003707    0.888608
     26          6           0        1.299850   -0.154680    0.946177
     27          1           0        1.853221   -0.190705    1.889274
     28          1           0        1.123682   -1.185324    0.628100
     29          6           0        2.234813    0.492701   -0.083118
     30          8           0        3.364585    0.039901   -0.250052
     31          7           0        1.763206    1.567824   -0.764874
     32          1           0        0.807068    1.860623   -0.625315
     33          6           0        2.570052    2.212828   -1.794683
     34          1           0        1.926839    2.871079   -2.379749
     35          1           0        2.997210    1.449220   -2.452074
     36          6           0        3.675709    3.087591   -1.177459
     37          8           0        3.482554    4.275195   -0.904329
     38          7           0        4.852296    2.447188   -0.963129
     39          1           0        4.827038    1.430704   -1.000742
     40          6           0        6.023438    3.117582   -0.433512
     41          1           0        6.905768    2.797320   -0.997620
     42          1           0        5.881805    4.190105   -0.598655
     43          6           0        6.221147    2.902072    1.073837
     44          8           0        5.342075    3.182642    1.899656
     45          7           0        7.428073    2.424711    1.445531
     46          1           0        8.076347    2.124979    0.726819
     47          6           0        7.784057    2.125805    2.832068
     48          1           0        7.082871    2.666383    3.473283
     49          1           0        7.680457    1.057106    3.040431
     50          6           0        9.229133    2.506243    3.181625
     51          8           0        9.871545    1.829428    3.965811
     52          7           0        9.697865    3.646474    2.588193
     53          1           0        9.125634    4.081485    1.878171
     54          6           0       11.105745    3.979610    2.617346
     55          1           0       11.259004    5.043132    2.826425
     56          1           0       11.559478    3.415868    3.437655
     57          6           0       11.872701    3.646366    1.342180
     58          8           0       13.024658    3.947420    1.157231
     59          8           0       11.120892    2.973715    0.427256
     60          1           0       11.721143    2.799226   -0.323530
 ---------------------------------------------------------------------

 SCF Done:  E(RB3LYP) =  -1740.92031050     A.U. after    3 cycles

 Alpha  occ. eigenvalues --  -19.28542 -19.26143 -19.25845 -19.25159 -19.24401
 Alpha  occ. eigenvalues --  -19.24025 -19.22089 -19.21993 -19.20696 -14.54468
 Alpha  occ. eigenvalues --  -14.50526 -14.49993 -14.49785 -14.49289 -14.48769
 Alpha  occ. eigenvalues --  -14.46339 -14.45761 -10.42884 -10.42782 -10.42691
 Alpha  occ. eigenvalues --  -10.41582 -10.41512 -10.40538 -10.39216 -10.38450
 Alpha  occ. eigenvalues --  -10.38148 -10.35903 -10.35816 -10.35261 -10.34712
 Alpha  occ. eigenvalues --  -10.34079 -10.33595 -10.32095  -1.18968  -1.17858
 Alpha  occ. eigenvalues --   -1.17414  -1.17270  -1.16372  -1.15604  -1.13914
 Alpha  occ. eigenvalues --   -1.12893  -1.09998  -1.09959  -1.06489  -1.05747
 Alpha  occ. eigenvalues --   -1.05572  -1.05031  -1.04489  -1.02936  -1.01835
 Alpha  occ. eigenvalues --   -0.89655  -0.88837  -0.87759  -0.85809  -0.84172
 Alpha  occ. eigenvalues --   -0.82767  -0.81003  -0.80285  -0.73359  -0.72849
 Alpha  occ. eigenvalues --   -0.72140  -0.71911  -0.70644  -0.70406  -0.69775
 Alpha  occ. eigenvalues --   -0.69173  -0.68736  -0.68547  -0.66904  -0.66571
 Alpha  occ. eigenvalues --   -0.65192  -0.64712  -0.62793  -0.62435  -0.61850
 Alpha  occ. eigenvalues --   -0.61573  -0.60886  -0.60718  -0.59992  -0.59092
 Alpha  occ. eigenvalues --   -0.58257  -0.57446  -0.57129  -0.56885  -0.56502
 Alpha  occ. eigenvalues --   -0.56045  -0.55821  -0.55304  -0.54898  -0.54615
 Alpha  occ. eigenvalues --   -0.54204  -0.53807  -0.53362  -0.53177  -0.52945
 Alpha  occ. eigenvalues --   -0.52331  -0.51905  -0.51201  -0.50752  -0.50638
 Alpha  occ. eigenvalues --   -0.50088  -0.49873  -0.49162  -0.49074  -0.48375
 Alpha  occ. eigenvalues --   -0.48301  -0.47642  -0.47506  -0.46345  -0.41665
 Alpha  occ. eigenvalues --   -0.41087  -0.40490  -0.40270  -0.40132  -0.40010
 Alpha  occ. eigenvalues --   -0.39469  -0.39212  -0.38053  -0.37651  -0.37283
 Alpha  occ. eigenvalues --   -0.36596  -0.36330  -0.34905  -0.34478  -0.33863
 Alpha virt. eigenvalues --   -0.12355  -0.12156  -0.11929  -0.10914  -0.09934
 Alpha virt. eigenvalues --   -0.08017  -0.07607  -0.07091  -0.05566  -0.04629
 Alpha virt. eigenvalues --   -0.04229  -0.03431  -0.01695  -0.00875   0.00231

 Mulliken charges:
               1
     1  N   -0.810115
     2  H    0.443866
     3  H    0.429769
     4  H    0.424105
     5  C   -0.261421
     6  H    0.236141
     7  H    0.208213
     8  C    0.642955
     9  O   -0.528717
    10  N   -0.575994
    11  H    0.357412
    12  C   -0.248761
    13  H    0.210021
    14  H    0.210291
    15  C    0.587705
    16  O   -0.477039
    17  N   -0.572137
    18  H    0.361873
    19  C   -0.250921
    20  H    0.178963
    21  H    0.243334
    22  C    0.603463
    23  O   -0.541726
    24  N   -0.607774
    25  H    0.361306
    26  C   -0.228644
    27  H    0.223050
    28  H    0.214404
    29  C    0.612187
    30  O   -0.519665
    31  N   -0.592600
    32  H    0.351626
    33  C   -0.228454
    34  H    0.204374
    35  H    0.201229
    36  C    0.592433
    37  O   -0.539844
    38  N   -0.559785
    39  H    0.378966
    40  C   -0.248668
    41  H    0.180160
    42  H    0.224282
    43  C    0.636512
    44  O   -0.551125
    45  N   -0.605565
    46  H    0.360519
    47  C   -0.223666
    48  H    0.218752
    49  H    0.213694
    50  C    0.582463
    51  O   -0.480805
    52  N   -0.573765
    53  H    0.329204
    54  C   -0.241298
    55  H    0.207011
    56  H    0.246662
    57  C    0.582960
    58  O   -0.427706
    59  O   -0.586265
    60  H    0.422557
 Sum of Mulliken charges =   1.00000

 Dipole moment (field-independent basis, Debye):
    X=             12.4635    Y=             14.6244    Z=              3.2827  Tot=             19.4933
 Quadrupole moment (field-independent basis, Debye-Ang):
   XX=           -117.8357   YY=           -119.6596   ZZ=           -173.2908
   XY=             52.5872   XZ=             -8.1144   YZ=             37.2216

 Normal termination of Gaussian 16 at Tue Jul 19 19:38:10 2022.
