 Gaussian 16, Revision C.01,
 Gaussian 16:  ES64L-G16RevC.01  3-Jul-2019

 -------------------------------------------------------------------
 # B3LYP/6-31G* guess=read geom=check nosymm integral(ultrafinegrid)
 -------------------------------------------------------------------

 ------------------------------------------------------
 Candidate Structure: Conf:102 Charge calc in gas phase
 ------------------------------------------------------
 Structure from the checkpoint file:  "conf-102.chk"
 Charge =  1 Multiplicity = 1

                          Input orientation:
 ---------------------------------------------------------------------
 Center     Atomic      Atomic             Coordinates (Angstroms)
 Number     Number       Type             X           Y           Z
 ---------------------------------------------------------------------
      1          7           0        1.318829    7.154200    3.269713
      2          1           0        1.710507    7.622554    2.447317
      3          1           0        0.266022    7.054091    3.138484
      4          1           0        1.533605    7.718824    4.095402
      5          6           0        1.748963    5.715280    3.382659
      6          1           0        2.010893    5.503322    4.421039
      7          1           0        2.612136    5.493831    2.754295
      8          6           0        0.491571    4.925116    2.954590
      9          8           0       -0.565363    5.559778    2.840876
     10          7           0        0.658870    3.613991    2.782366
     11          1           0        1.632753    3.288389    2.722254
     12          6           0       -0.389854    2.802969    2.194757
     13          1           0       -0.360531    1.798746    2.630388
     14          1           0       -1.355644    3.252898    2.442966
     15          6           0       -0.225218    2.744726    0.662443
     16          8           0        0.531854    3.514117    0.077463
     17          7           0       -0.937646    1.779981    0.023105
     18          1           0       -1.628629    1.254617    0.544085
     19          6           0       -0.983873    1.732920   -1.441559
     20          1           0       -1.316532    2.690206   -1.850825
     21          1           0       -1.707763    0.965403   -1.729859
     22          6           0        0.366303    1.430078   -2.116831
     23          8           0        0.605066    1.860015   -3.231561
     24          7           0        1.228230    0.652386   -1.393838
     25          1           0        0.937970    0.344099   -0.476430
     26          6           0        2.599314    0.408408   -1.804187
     27          1           0        2.849729   -0.653840   -1.743912
     28          1           0        2.681847    0.720864   -2.850053
     29          6           0        3.635382    1.170814   -0.967077
     30          8           0        4.760525    0.722022   -0.769251
     31          7           0        3.228683    2.374207   -0.473088
     32          1           0        2.283690    2.712182   -0.620692
     33          6           0        4.143509    3.202201    0.292094
     34          1           0        3.799989    4.237101    0.246699
     35          1           0        5.141272    3.132285   -0.150913
     36          6           0        4.183055    2.778694    1.766105
     37          8           0        3.482179    3.344202    2.636481
     38          7           0        4.991626    1.755204    2.050943
     39          1           0        5.483171    1.258103    1.303435
     40          6           0        5.127390    1.205933    3.383621
     41          1           0        5.402327    1.997031    4.091988
     42          1           0        4.176929    0.780136    3.734192
     43          6           0        6.207662    0.114318    3.339957
     44          8           0        6.750969   -0.191865    2.288701
     45          7           0        6.470981   -0.477281    4.539544
     46          1           0        6.031698   -0.105793    5.372053
     47          6           0        7.508720   -1.487496    4.708527
     48          1           0        8.003023   -1.602398    3.739890
     49          1           0        8.260636   -1.156570    5.430876
     50          6           0        7.016074   -2.866391    5.169277
     51          8           0        7.790929   -3.664802    5.675532
     52          7           0        5.700710   -3.129490    4.956363
     53          1           0        5.095914   -2.460672    4.498476
     54          6           0        5.126645   -4.413103    5.282137
     55          1           0        5.566900   -5.224047    4.685965
     56          1           0        5.311616   -4.674452    6.331106
     57          6           0        3.635860   -4.363295    5.025411
     58          8           0        3.041225   -3.400076    4.584578
     59          8           0        3.045222   -5.527334    5.340668
     60          1           0        2.094051   -5.433231    5.143955
 ---------------------------------------------------------------------

 SCF Done:  E(RB3LYP) =  -1740.89581706     A.U. after    3 cycles

 Alpha  occ. eigenvalues --  -19.27975 -19.27947 -19.24801 -19.23423 -19.22673
 Alpha  occ. eigenvalues --  -19.21374 -19.20364 -19.20360 -19.17655 -14.61576
 Alpha  occ. eigenvalues --  -14.50130 -14.49287 -14.46652 -14.46033 -14.45685
 Alpha  occ. eigenvalues --  -14.45180 -14.43053 -10.44660 -10.41965 -10.40802
 Alpha  occ. eigenvalues --  -10.40766 -10.39940 -10.38894 -10.38203 -10.37600
 Alpha  occ. eigenvalues --  -10.36406 -10.35448 -10.33640 -10.33536 -10.32863
 Alpha  occ. eigenvalues --  -10.31408 -10.30927 -10.30481  -1.20406  -1.19079
 Alpha  occ. eigenvalues --   -1.16730  -1.15078  -1.14586  -1.13381  -1.12725
 Alpha  occ. eigenvalues --   -1.12115  -1.10344  -1.09762  -1.07150  -1.05009
 Alpha  occ. eigenvalues --   -1.02985  -1.02206  -1.02046  -1.00580  -0.99258
 Alpha  occ. eigenvalues --   -0.91318  -0.87259  -0.86496  -0.84345  -0.83193
 Alpha  occ. eigenvalues --   -0.81711  -0.79632  -0.77932  -0.75544  -0.74860
 Alpha  occ. eigenvalues --   -0.73061  -0.71609  -0.70166  -0.69631  -0.68277
 Alpha  occ. eigenvalues --   -0.68098  -0.67809  -0.67596  -0.66119  -0.64900
 Alpha  occ. eigenvalues --   -0.64360  -0.63324  -0.63256  -0.61339  -0.60665
 Alpha  occ. eigenvalues --   -0.60417  -0.59535  -0.58917  -0.58621  -0.58095
 Alpha  occ. eigenvalues --   -0.57198  -0.56999  -0.56660  -0.56218  -0.55338
 Alpha  occ. eigenvalues --   -0.55315  -0.55042  -0.54391  -0.53990  -0.53782
 Alpha  occ. eigenvalues --   -0.53136  -0.52148  -0.51858  -0.51508  -0.51207
 Alpha  occ. eigenvalues --   -0.50747  -0.50337  -0.49706  -0.49308  -0.49195
 Alpha  occ. eigenvalues --   -0.48589  -0.48348  -0.47908  -0.47261  -0.46394
 Alpha  occ. eigenvalues --   -0.45994  -0.45668  -0.45122  -0.42937  -0.42481
 Alpha  occ. eigenvalues --   -0.40888  -0.40265  -0.39463  -0.38547  -0.38263
 Alpha  occ. eigenvalues --   -0.37236  -0.36723  -0.36473  -0.35693  -0.35479
 Alpha  occ. eigenvalues --   -0.34108  -0.34081  -0.33028  -0.32446  -0.31149
 Alpha virt. eigenvalues --   -0.13496  -0.12094  -0.10889  -0.09838  -0.07330
 Alpha virt. eigenvalues --   -0.07220  -0.07182  -0.06939  -0.06381  -0.03982
 Alpha virt. eigenvalues --   -0.03925  -0.03671  -0.02488  -0.01899  -0.01283

 Mulliken charges:
               1
     1  N   -0.748892
     2  H    0.423567
     3  H    0.435608
     4  H    0.420863
     5  C   -0.281185
     6  H    0.246408
     7  H    0.262180
     8  C    0.619902
     9  O   -0.525141
    10  N   -0.578994
    11  H    0.401176
    12  C   -0.267060
    13  H    0.195533
    14  H    0.232709
    15  C    0.614173
    16  O   -0.513511
    17  N   -0.610817
    18  H    0.351649
    19  C   -0.232058
    20  H    0.218396
    21  H    0.200406
    22  C    0.602346
    23  O   -0.484055
    24  N   -0.599064
    25  H    0.327755
    26  C   -0.227983
    27  H    0.197995
    28  H    0.235260
    29  C    0.585775
    30  O   -0.511672
    31  N   -0.616694
    32  H    0.397542
    33  C   -0.214051
    34  H    0.162618
    35  H    0.205937
    36  C    0.599364
    37  O   -0.593046
    38  N   -0.578779
    39  H    0.406463
    40  C   -0.206505
    41  H    0.189924
    42  H    0.184894
    43  C    0.596869
    44  O   -0.484956
    45  N   -0.623607
    46  H    0.338696
    47  C   -0.232003
    48  H    0.234403
    49  H    0.196979
    50  C    0.599093
    51  O   -0.502536
    52  N   -0.613809
    53  H    0.345483
    54  C   -0.173437
    55  H    0.213772
    56  H    0.215096
    57  C    0.565571
    58  O   -0.477296
    59  O   -0.549061
    60  H    0.421810
 Sum of Mulliken charges =   1.00000

 Dipole moment (field-independent basis, Debye):
    X=              3.5202    Y=             21.2157    Z=             17.8126  Tot=             27.9247
 Quadrupole moment (field-independent basis, Debye-Ang):
   XX=           -190.9907   YY=            -21.2687   ZZ=           -133.0993
   XY=             57.4364   XZ=             30.8254   YZ=             81.0837

 Normal termination of Gaussian 16 at Tue Jul 19 19:38:11 2022.
