 Gaussian 16, Revision C.01,
 Gaussian 16:  ES64L-G16RevC.01  3-Jul-2019

 -------------------------------------------------------------------
 # B3LYP/6-31G* guess=read geom=check nosymm integral(ultrafinegrid)
 -------------------------------------------------------------------

 ------------------------------------------------------
 Candidate Structure: Conf:578 Charge calc in gas phase
 ------------------------------------------------------
 Structure from the checkpoint file:  "conf-578.chk"
 Charge =  1 Multiplicity = 1

                          Input orientation:
 ---------------------------------------------------------------------
 Center     Atomic      Atomic             Coordinates (Angstroms)
 Number     Number       Type             X           Y           Z
 ---------------------------------------------------------------------
      1          7           0       -0.922181   -0.260427   -0.040250
      2          1           0       -1.355356   -0.733729   -0.837771
      3          1           0       -0.990494    0.762393   -0.211040
      4          1           0        0.093514   -0.466950    0.067777
      5          6           0       -1.675156   -0.564471    1.215393
      6          1           0       -1.099534   -0.145877    2.043111
      7          1           0       -1.738141   -1.649481    1.334819
      8          6           0       -3.058917    0.079914    1.034556
      9          8           0       -3.498957    0.214545   -0.098522
     10          7           0       -3.678280    0.542299    2.149530
     11          1           0       -3.292503    0.352110    3.064962
     12          6           0       -4.835273    1.429246    2.018607
     13          1           0       -5.578411    0.989063    1.352285
     14          1           0       -5.286049    1.560552    3.005980
     15          6           0       -4.463400    2.804225    1.420090
     16          8           0       -5.247035    3.431522    0.734944
     17          7           0       -3.209052    3.261625    1.760591
     18          1           0       -2.588337    2.587143    2.184760
     19          6           0       -2.558832    4.288018    0.983017
     20          1           0       -2.249227    5.137125    1.607158
     21          1           0       -3.292593    4.663421    0.259296
     22          6           0       -1.340391    3.716232    0.247716
     23          8           0       -1.123338    2.489473    0.222277
     24          7           0       -0.516179    4.597593   -0.338925
     25          1           0       -0.721230    5.584393   -0.241495
     26          6           0        0.581150    4.224821   -1.238227
     27          1           0        0.222492    3.436569   -1.910542
     28          1           0        0.833614    5.096433   -1.841302
     29          6           0        1.900917    3.746442   -0.593818
     30          8           0        2.969784    4.170339   -1.002603
     31          7           0        1.771910    2.798042    0.380479
     32          1           0        0.854008    2.403642    0.552037
     33          6           0        2.918792    2.089479    0.905543
     34          1           0        3.060651    2.302835    1.975288
     35          1           0        3.805258    2.450463    0.377833
     36          6           0        2.741784    0.575840    0.754173
     37          8           0        1.606260    0.058561    0.766521
     38          7           0        3.864337   -0.137693    0.669828
     39          1           0        4.789841    0.293752    0.659389
     40          6           0        3.916559   -1.585030    0.624754
     41          1           0        3.407327   -2.020532    1.492977
     42          1           0        3.419394   -1.967488   -0.275492
     43          6           0        5.408465   -1.969522    0.617015
     44          8           0        6.274085   -1.095228    0.636169
     45          7           0        5.663326   -3.287055    0.586309
     46          1           0        4.934889   -3.997992    0.568000
     47          6           0        7.005277   -3.829662    0.565997
     48          1           0        7.561727   -3.464746   -0.306503
     49          1           0        7.566398   -3.520901    1.457056
     50          6           0        6.865838   -5.357975    0.518352
     51          8           0        5.756960   -5.891803    0.506537
     52          7           0        8.023832   -6.046605    0.491685
     53          1           0        8.928137   -5.585947    0.501533
     54          6           0        8.057309   -7.493476    0.445320
     55          1           0        7.551570   -7.935171    1.312603
     56          1           0        7.544925   -7.879096   -0.444529
     57          6           0        9.508164   -7.934416    0.425677
     58          8           0       10.450600   -7.172372    0.446384
     59          8           0        9.613000   -9.270987    0.382566
     60          1           0       10.565024   -9.488132    0.371663
 ---------------------------------------------------------------------

 SCF Done:  E(RB3LYP) =  -1740.91395102     A.U. after    2 cycles

 Alpha  occ. eigenvalues --  -19.27836 -19.26603 -19.25389 -19.24465 -19.22511
 Alpha  occ. eigenvalues --  -19.21860 -19.21383 -19.21261 -19.20540 -14.57013
 Alpha  occ. eigenvalues --  -14.50169 -14.50134 -14.47639 -14.46730 -14.45760
 Alpha  occ. eigenvalues --  -14.45236 -14.44729 -10.43068 -10.43068 -10.41167
 Alpha  occ. eigenvalues --  -10.40713 -10.39346 -10.39317 -10.38935 -10.38753
 Alpha  occ. eigenvalues --  -10.37816 -10.34810 -10.34514 -10.34357 -10.33832
 Alpha  occ. eigenvalues --  -10.33435 -10.31883 -10.31745  -1.18987  -1.18174
 Alpha  occ. eigenvalues --   -1.17720  -1.15710  -1.13938  -1.13496  -1.13259
 Alpha  occ. eigenvalues --   -1.12387  -1.11879  -1.10173  -1.06120  -1.05866
 Alpha  occ. eigenvalues --   -1.03928  -1.03051  -1.02186  -1.01786  -1.01098
 Alpha  occ. eigenvalues --   -0.89463  -0.88031  -0.86850  -0.85048  -0.84039
 Alpha  occ. eigenvalues --   -0.82142  -0.80608  -0.78670  -0.73264  -0.73098
 Alpha  occ. eigenvalues --   -0.72718  -0.71131  -0.70642  -0.70037  -0.69119
 Alpha  occ. eigenvalues --   -0.68583  -0.68398  -0.67236  -0.66587  -0.65703
 Alpha  occ. eigenvalues --   -0.65158  -0.62765  -0.62054  -0.61291  -0.60841
 Alpha  occ. eigenvalues --   -0.60122  -0.59491  -0.58747  -0.58385  -0.57878
 Alpha  occ. eigenvalues --   -0.57533  -0.57133  -0.57117  -0.56762  -0.56050
 Alpha  occ. eigenvalues --   -0.55860  -0.55403  -0.55150  -0.54480  -0.54401
 Alpha  occ. eigenvalues --   -0.53833  -0.53535  -0.53240  -0.52851  -0.52446
 Alpha  occ. eigenvalues --   -0.51556  -0.51069  -0.50052  -0.49957  -0.49669
 Alpha  occ. eigenvalues --   -0.49516  -0.49121  -0.48558  -0.47737  -0.46916
 Alpha  occ. eigenvalues --   -0.46825  -0.46675  -0.46073  -0.44165  -0.41185
 Alpha  occ. eigenvalues --   -0.40296  -0.40219  -0.40087  -0.39530  -0.39100
 Alpha  occ. eigenvalues --   -0.37991  -0.36678  -0.36599  -0.35958  -0.35425
 Alpha  occ. eigenvalues --   -0.35228  -0.35109  -0.34507  -0.34407  -0.33776
 Alpha virt. eigenvalues --   -0.12137  -0.11900  -0.09900  -0.08336  -0.07767
 Alpha virt. eigenvalues --   -0.07230  -0.06998  -0.06882  -0.05719  -0.05602
 Alpha virt. eigenvalues --   -0.03855  -0.02110  -0.00542  -0.00153   0.00144

 Mulliken charges:
               1
     1  N   -0.757084
     2  H    0.407302
     3  H    0.444424
     4  H    0.436761
     5  C   -0.278119
     6  H    0.217614
     7  H    0.235479
     8  C    0.634912
     9  O   -0.488233
    10  N   -0.619798
    11  H    0.349845
    12  C   -0.234703
    13  H    0.234777
    14  H    0.206079
    15  C    0.597305
    16  O   -0.467988
    17  N   -0.564544
    18  H    0.317915
    19  C   -0.236762
    20  H    0.194347
    21  H    0.241353
    22  C    0.617702
    23  O   -0.586300
    24  N   -0.568536
    25  H    0.365906
    26  C   -0.247767
    27  H    0.198043
    28  H    0.212736
    29  C    0.590659
    30  O   -0.478094
    31  N   -0.606221
    32  H    0.354025
    33  C   -0.228084
    34  H    0.197874
    35  H    0.220244
    36  C    0.629222
    37  O   -0.609162
    38  N   -0.591433
    39  H    0.380322
    40  C   -0.204202
    41  H    0.193465
    42  H    0.189752
    43  C    0.615176
    44  O   -0.521916
    45  N   -0.624555
    46  H    0.361236
    47  C   -0.196561
    48  H    0.201970
    49  H    0.201259
    50  C    0.611692
    51  O   -0.529013
    52  N   -0.625181
    53  H    0.363607
    54  C   -0.179241
    55  H    0.213688
    56  H    0.213875
    57  C    0.571039
    58  O   -0.454563
    59  O   -0.553225
    60  H    0.429680
 Sum of Mulliken charges =   1.00000

 Dipole moment (field-independent basis, Debye):
    X=              4.6054    Y=             -3.6269    Z=              6.2653  Tot=              8.5801
 Quadrupole moment (field-independent basis, Debye-Ang):
   XX=           -121.0212   YY=            -99.7624   ZZ=           -165.6914
   XY=            -76.0810   XZ=            -10.6533   YZ=              2.2133

 Normal termination of Gaussian 16 at Tue Jul 19 19:38:01 2022.
