 Gaussian 16, Revision C.01,
 Gaussian 16:  ES64L-G16RevC.01  3-Jul-2019

 -------------------------------------------------------------------
 # B3LYP/6-31G* guess=read geom=check nosymm integral(ultrafinegrid)
 -------------------------------------------------------------------

 ------------------------------------------------------
 Candidate Structure: Conf:472 Charge calc in gas phase
 ------------------------------------------------------
 Structure from the checkpoint file:  "conf-472.chk"
 Charge =  1 Multiplicity = 1

                          Input orientation:
 ---------------------------------------------------------------------
 Center     Atomic      Atomic             Coordinates (Angstroms)
 Number     Number       Type             X           Y           Z
 ---------------------------------------------------------------------
      1          7           0        1.357790    7.993287    1.731800
      2          1           0        2.399360    7.977421    1.818278
      3          1           0        1.020060    7.058706    1.399590
      4          1           0        1.085548    8.673031    1.015819
      5          6           0        0.688434    8.323304    3.048271
      6          1           0        0.658256    9.405194    3.170488
      7          1           0        1.282736    7.855117    3.831384
      8          6           0       -0.724964    7.744707    2.922647
      9          8           0       -1.638985    8.408508    2.464146
     10          7           0       -0.792372    6.406544    3.210157
     11          1           0        0.091575    5.948184    3.432835
     12          6           0       -1.733262    5.612730    2.452990
     13          1           0       -1.911260    4.657936    2.958458
     14          1           0       -2.683362    6.150590    2.394671
     15          6           0       -1.187637    5.360660    1.030134
     16          8           0       -0.089033    5.806491    0.657658
     17          7           0       -1.972557    4.632751    0.219196
     18          1           0       -2.835678    4.248783    0.583008
     19          6           0       -1.595329    4.287584   -1.151801
     20          1           0       -0.986363    5.105611   -1.544684
     21          1           0       -2.500580    4.189087   -1.751531
     22          6           0       -0.844117    2.947916   -1.236265
     23          8           0       -1.354431    1.961397   -1.750053
     24          7           0        0.399278    2.934058   -0.685032
     25          1           0        0.829362    3.761634   -0.285066
     26          6           0        1.162499    1.708170   -0.686470
     27          1           0        0.567953    0.895296   -0.249883
     28          1           0        1.397006    1.395296   -1.714204
     29          6           0        2.464846    1.888435    0.086348
     30          8           0        2.879856    2.984510    0.453974
     31          7           0        3.156594    0.726516    0.272831
     32          1           0        2.663981   -0.144976    0.129145
     33          6           0        4.345822    0.689748    1.085022
     34          1           0        4.985864    1.532808    0.805221
     35          1           0        4.897257   -0.231933    0.871571
     36          6           0        4.034956    0.778401    2.590403
     37          8           0        2.887284    0.785862    3.026978
     38          7           0        5.130587    0.849764    3.394977
     39          1           0        6.048870    0.949061    2.982620
     40          6           0        4.999592    1.063742    4.834919
     41          1           0        4.230549    0.391033    5.222151
     42          1           0        5.953240    0.840841    5.314293
     43          6           0        4.659308    2.535025    5.101540
     44          8           0        5.539549    3.382307    5.276107
     45          7           0        3.336183    2.838577    5.046822
     46          1           0        2.724689    2.138981    4.630756
     47          6           0        2.865426    4.211427    5.160133
     48          1           0        1.808877    4.205374    5.430964
     49          1           0        3.431016    4.700389    5.960668
     50          6           0        3.013257    5.031188    3.868200
     51          8           0        2.052483    5.598800    3.331870
     52          7           0        4.268837    5.079242    3.368644
     53          1           0        5.013539    4.652938    3.924761
     54          6           0        4.562746    5.634803    2.057115
     55          1           0        5.406979    5.092772    1.626193
     56          1           0        3.691241    5.506989    1.413719
     57          6           0        4.918198    7.114215    2.163435
     58          8           0        4.134484    8.045466    2.041733
     59          8           0        6.206119    7.299175    2.449889
     60          1           0        6.368584    8.258614    2.548130
 ---------------------------------------------------------------------

 SCF Done:  E(RB3LYP) =  -1740.92645422     A.U. after    3 cycles

 Alpha  occ. eigenvalues --  -19.32866 -19.28262 -19.24993 -19.24856 -19.23392
 Alpha  occ. eigenvalues --  -19.23153 -19.22999 -19.22552 -19.19855 -14.55492
 Alpha  occ. eigenvalues --  -14.48536 -14.48318 -14.47909 -14.47214 -14.46768
 Alpha  occ. eigenvalues --  -14.46724 -14.44583 -10.45910 -10.41548 -10.41341
 Alpha  occ. eigenvalues --  -10.40633 -10.40150 -10.39939 -10.39557 -10.37300
 Alpha  occ. eigenvalues --  -10.36687 -10.35599 -10.34448 -10.34429 -10.34121
 Alpha  occ. eigenvalues --  -10.33739 -10.32718 -10.32238  -1.24236  -1.16489
 Alpha  occ. eigenvalues --   -1.16253  -1.15382  -1.15209  -1.15090  -1.14534
 Alpha  occ. eigenvalues --   -1.13950  -1.11872  -1.10216  -1.04885  -1.04316
 Alpha  occ. eigenvalues --   -1.03835  -1.03698  -1.03184  -1.03025  -1.00774
 Alpha  occ. eigenvalues --   -0.88813  -0.87965  -0.87083  -0.85508  -0.84242
 Alpha  occ. eigenvalues --   -0.82150  -0.80460  -0.78338  -0.75133  -0.71777
 Alpha  occ. eigenvalues --   -0.71223  -0.71004  -0.70560  -0.69653  -0.69214
 Alpha  occ. eigenvalues --   -0.68853  -0.68423  -0.67584  -0.65375  -0.65193
 Alpha  occ. eigenvalues --   -0.64763  -0.63542  -0.63111  -0.62579  -0.62234
 Alpha  occ. eigenvalues --   -0.61413  -0.59693  -0.59604  -0.59306  -0.59063
 Alpha  occ. eigenvalues --   -0.58352  -0.57794  -0.57311  -0.57104  -0.56344
 Alpha  occ. eigenvalues --   -0.56189  -0.55255  -0.54690  -0.54604  -0.54062
 Alpha  occ. eigenvalues --   -0.53620  -0.53394  -0.52762  -0.52626  -0.52504
 Alpha  occ. eigenvalues --   -0.52126  -0.51582  -0.51243  -0.50434  -0.49938
 Alpha  occ. eigenvalues --   -0.49713  -0.49027  -0.48848  -0.48805  -0.48497
 Alpha  occ. eigenvalues --   -0.48022  -0.47822  -0.47195  -0.45318  -0.44730
 Alpha  occ. eigenvalues --   -0.42870  -0.40274  -0.39424  -0.38998  -0.38841
 Alpha  occ. eigenvalues --   -0.38062  -0.37987  -0.37427  -0.36753  -0.36527
 Alpha  occ. eigenvalues --   -0.36249  -0.35848  -0.35322  -0.33872  -0.33099
 Alpha virt. eigenvalues --   -0.13347  -0.11392  -0.10926  -0.10132  -0.09538
 Alpha virt. eigenvalues --   -0.08419  -0.08084  -0.06405  -0.05432  -0.03851
 Alpha virt. eigenvalues --   -0.02720  -0.02311  -0.02020  -0.01076   0.00006

 Mulliken charges:
               1
     1  N   -0.802312
     2  H    0.448957
     3  H    0.449512
     4  H    0.400345
     5  C   -0.253134
     6  H    0.225766
     7  H    0.219583
     8  C    0.554302
     9  O   -0.465360
    10  N   -0.569876
    11  H    0.375146
    12  C   -0.264737
    13  H    0.197670
    14  H    0.231944
    15  C    0.637807
    16  O   -0.570456
    17  N   -0.574404
    18  H    0.358719
    19  C   -0.239618
    20  H    0.199871
    21  H    0.204925
    22  C    0.598970
    23  O   -0.494244
    24  N   -0.614198
    25  H    0.360090
    26  C   -0.192510
    27  H    0.192650
    28  H    0.205571
    29  C    0.605893
    30  O   -0.539506
    31  N   -0.572315
    32  H    0.351032
    33  C   -0.247874
    34  H    0.197738
    35  H    0.199793
    36  C    0.621782
    37  O   -0.522658
    38  N   -0.586227
    39  H    0.349156
    40  C   -0.228471
    41  H    0.203957
    42  H    0.203746
    43  C    0.589768
    44  O   -0.528008
    45  N   -0.567483
    46  H    0.379996
    47  C   -0.243282
    48  H    0.189914
    49  H    0.216266
    50  C    0.609582
    51  O   -0.553972
    52  N   -0.592986
    53  H    0.396079
    54  C   -0.208850
    55  H    0.203687
    56  H    0.220745
    57  C    0.603525
    58  O   -0.487509
    59  O   -0.520993
    60  H    0.436496
 Sum of Mulliken charges =   1.00000

 Dipole moment (field-independent basis, Debye):
    X=             14.1646    Y=             22.9899    Z=             11.1245  Tot=             29.2049
 Quadrupole moment (field-independent basis, Debye-Ang):
   XX=           -106.3811   YY=            -19.0140   ZZ=           -150.8048
   XY=             56.0118   XZ=             30.5843   YZ=             47.6684

 Normal termination of Gaussian 16 at Tue Jul 19 19:38:17 2022.
