 Gaussian 16, Revision C.01,
 Gaussian 16:  ES64L-G16RevC.01  3-Jul-2019

 -------------------------------------------------------------------
 # B3LYP/6-31G* guess=read geom=check nosymm integral(ultrafinegrid)
 -------------------------------------------------------------------

 ------------------------------------------------------
 Candidate Structure: Conf:302 Charge calc in gas phase
 ------------------------------------------------------
 Structure from the checkpoint file:  "conf-302.chk"
 Charge =  1 Multiplicity = 1

                          Input orientation:
 ---------------------------------------------------------------------
 Center     Atomic      Atomic             Coordinates (Angstroms)
 Number     Number       Type             X           Y           Z
 ---------------------------------------------------------------------
      1          7           0       -5.511596   11.557627    0.674251
      2          1           0       -5.360038   12.565092    0.575320
      3          1           0       -5.688594   11.112160   -0.290430
      4          1           0       -6.320258   11.411152    1.284456
      5          6           0       -4.284683   10.801985    1.105892
      6          1           0       -4.490521   10.261718    2.031498
      7          1           0       -3.461324   11.498789    1.271854
      8          6           0       -4.013535    9.843790   -0.087014
      9          8           0       -4.801785    9.911779   -1.043766
     10          7           0       -2.970984    9.041155    0.017873
     11          1           0       -2.341700    9.015767    0.829630
     12          6           0       -2.560327    8.078077   -0.993280
     13          1           0       -3.357999    7.351459   -1.183402
     14          1           0       -2.331921    8.582142   -1.938885
     15          6           0       -1.307147    7.392787   -0.407778
     16          8           0       -0.896202    7.734637    0.705435
     17          7           0       -0.748166    6.454457   -1.175228
     18          1           0       -1.107797    6.188980   -2.092979
     19          6           0        0.431833    5.703217   -0.793977
     20          1           0        0.258604    5.149896    0.136922
     21          1           0        1.282679    6.373325   -0.621315
     22          6           0        0.724064    4.738394   -1.956671
     23          8           0       -0.000258    4.729687   -2.954037
     24          7           0        1.791923    3.943409   -1.792436
     25          1           0        2.378891    3.960936   -0.960277
     26          6           0        2.214138    2.973322   -2.780260
     27          1           0        1.415720    2.248543   -2.983266
     28          1           0        2.453251    3.462632   -3.732907
     29          6           0        3.453581    2.266846   -2.210436
     30          8           0        3.900971    2.572976   -1.104640
     31          7           0        3.990484    1.317018   -2.997227
     32          1           0        3.610633    1.068878   -3.907562
     33          6           0        5.155952    0.552585   -2.611493
     34          1           0        4.977339    0.013403   -1.672270
     35          1           0        6.018050    1.210387   -2.441190
     36          6           0        5.451609   -0.433770   -3.748372
     37          8           0        4.753291   -0.468176   -4.761067
     38          7           0        6.515113   -1.239462   -3.553465
     39          1           0        7.079542   -1.216863   -2.708781
     40          6           0        6.915584   -2.232226   -4.523498
     41          1           0        6.105740   -2.952411   -4.703891
     42          1           0        7.142186   -1.765083   -5.490981
     43          6           0        8.149962   -2.954122   -3.971093
     44          8           0        8.605510   -2.678620   -2.867322
     45          7           0        8.690253   -3.890804   -4.802774
     46          1           0        8.190780   -4.123198   -5.652634
     47          6           0        9.767725   -4.781144   -4.387797
     48          1           0       10.073836   -4.464777   -3.386573
     49          1           0        9.421078   -5.816866   -4.323277
     50          6           0       10.994609   -4.781685   -5.307996
     51          8           0       11.727008   -5.757874   -5.359879
     52          7           0       11.214935   -3.622900   -5.996750
     53          1           0       10.502709   -2.907719   -5.958034
     54          6           0       12.256738   -3.521027   -6.990975
     55          1           0       12.904246   -2.655462   -6.811667
     56          1           0       12.878638   -4.417089   -6.897073
     57          6           0       11.779465   -3.433437   -8.434798
     58          8           0       12.513991   -3.217102   -9.368316
     59          8           0       10.441707   -3.620149   -8.568503
     60          1           0       10.263725   -3.560142   -9.526794
 ---------------------------------------------------------------------

 SCF Done:  E(RB3LYP) =  -1740.88678105     A.U. after    1 cycles

 Alpha  occ. eigenvalues --  -19.28679 -19.25065 -19.22777 -19.20099 -19.19558
 Alpha  occ. eigenvalues --  -19.18919 -19.18744 -19.18742 -19.16330 -14.62113
 Alpha  occ. eigenvalues --  -14.50994 -14.46141 -14.44051 -14.43851 -14.42900
 Alpha  occ. eigenvalues --  -14.42897 -14.41547 -10.45489 -10.42587 -10.40024
 Alpha  occ. eigenvalues --  -10.37381 -10.37190 -10.36847 -10.36201 -10.36012
 Alpha  occ. eigenvalues --  -10.35465 -10.34012 -10.32096 -10.30498 -10.30438
 Alpha  occ. eigenvalues --  -10.29935 -10.28755 -10.28469  -1.21145  -1.15734
 Alpha  occ. eigenvalues --   -1.15657  -1.14720  -1.12116  -1.11704  -1.10998
 Alpha  occ. eigenvalues --   -1.10283  -1.08483  -1.07500  -1.06594  -1.02637
 Alpha  occ. eigenvalues --   -1.00358  -1.00169  -0.99537  -0.99147  -0.97576
 Alpha  occ. eigenvalues --   -0.92019  -0.86671  -0.84303  -0.83186  -0.81406
 Alpha  occ. eigenvalues --   -0.79651  -0.77497  -0.76038  -0.75894  -0.75265
 Alpha  occ. eigenvalues --   -0.73439  -0.69556  -0.68076  -0.67490  -0.67073
 Alpha  occ. eigenvalues --   -0.66730  -0.65897  -0.65226  -0.64839  -0.64255
 Alpha  occ. eigenvalues --   -0.62988  -0.62509  -0.61394  -0.59976  -0.59341
 Alpha  occ. eigenvalues --   -0.59033  -0.57845  -0.56630  -0.56543  -0.55604
 Alpha  occ. eigenvalues --   -0.55528  -0.54992  -0.54636  -0.54478  -0.53838
 Alpha  occ. eigenvalues --   -0.53392  -0.53148  -0.53001  -0.52585  -0.52374
 Alpha  occ. eigenvalues --   -0.51874  -0.50789  -0.50681  -0.50004  -0.49829
 Alpha  occ. eigenvalues --   -0.48314  -0.47983  -0.47758  -0.47415  -0.46526
 Alpha  occ. eigenvalues --   -0.46337  -0.45739  -0.45584  -0.44913  -0.44489
 Alpha  occ. eigenvalues --   -0.43857  -0.43777  -0.43282  -0.41985  -0.41655
 Alpha  occ. eigenvalues --   -0.40930  -0.37440  -0.36747  -0.36049  -0.34696
 Alpha  occ. eigenvalues --   -0.34413  -0.34106  -0.33867  -0.33820  -0.33340
 Alpha  occ. eigenvalues --   -0.32860  -0.32298  -0.31695  -0.30105  -0.29864
 Alpha virt. eigenvalues --   -0.13708  -0.13341  -0.08364  -0.07694  -0.06245
 Alpha virt. eigenvalues --   -0.05642  -0.05309  -0.04548  -0.03919  -0.03591
 Alpha virt. eigenvalues --   -0.02767  -0.02652  -0.01859   0.00238   0.00386

 Mulliken charges:
               1
     1  N   -0.750792
     2  H    0.423730
     3  H    0.441241
     4  H    0.423735
     5  C   -0.276964
     6  H    0.249869
     7  H    0.249857
     8  C    0.640429
     9  O   -0.524204
    10  N   -0.605133
    11  H    0.381844
    12  C   -0.212020
    13  H    0.216038
    14  H    0.216045
    15  C    0.620652
    16  O   -0.534571
    17  N   -0.621821
    18  H    0.369584
    19  C   -0.200471
    20  H    0.202060
    21  H    0.202091
    22  C    0.612690
    23  O   -0.533290
    24  N   -0.623490
    25  H    0.364677
    26  C   -0.195002
    27  H    0.197150
    28  H    0.196999
    29  C    0.609482
    30  O   -0.531655
    31  N   -0.624448
    32  H    0.362390
    33  C   -0.192240
    34  H    0.196607
    35  H    0.196217
    36  C    0.607782
    37  O   -0.530098
    38  N   -0.625105
    39  H    0.363861
    40  C   -0.193340
    41  H    0.195843
    42  H    0.192120
    43  C    0.593753
    44  O   -0.504240
    45  N   -0.627730
    46  H    0.346307
    47  C   -0.228482
    48  H    0.230313
    49  H    0.197006
    50  C    0.589539
    51  O   -0.498012
    52  N   -0.577803
    53  H    0.335214
    54  C   -0.231580
    55  H    0.198883
    56  H    0.239845
    57  C    0.576797
    58  O   -0.442579
    59  O   -0.572611
    60  H    0.417026
 Sum of Mulliken charges =   1.00000

 Dipole moment (field-independent basis, Debye):
    X=            -15.5447    Y=             43.3409    Z=             -1.1061  Tot=             46.0575
 Quadrupole moment (field-independent basis, Debye-Ang):
   XX=            -99.6482   YY=            308.6743   ZZ=           -166.8711
   XY=           -207.9573   XZ=            -43.3001   YZ=             47.9809

 Normal termination of Gaussian 16 at Tue Jul 19 19:37:50 2022.
