 Gaussian 16, Revision C.01,
 Gaussian 16:  ES64L-G16RevC.01  3-Jul-2019

 -------------------------------------------------------------------
 # B3LYP/6-31G* guess=read geom=check nosymm integral(ultrafinegrid)
 -------------------------------------------------------------------

 ------------------------------------------------------
 Candidate Structure: Conf:306 Charge calc in gas phase
 ------------------------------------------------------
 Structure from the checkpoint file:  "conf-306.chk"
 Charge =  1 Multiplicity = 1

                          Input orientation:
 ---------------------------------------------------------------------
 Center     Atomic      Atomic             Coordinates (Angstroms)
 Number     Number       Type             X           Y           Z
 ---------------------------------------------------------------------
      1          7           0        5.771999    4.969618   -0.182583
      2          1           0        6.504777    5.344486   -0.789369
      3          1           0        5.482030    5.637114    0.552181
      4          1           0        6.174531    4.106780    0.255881
      5          6           0        4.542627    4.629114   -0.964572
      6          1           0        4.675660    3.658886   -1.436486
      7          1           0        4.401586    5.396986   -1.730054
      8          6           0        3.376511    4.685629    0.029294
      9          8           0        3.457009    5.447681    0.995539
     10          7           0        2.320110    3.913916   -0.268582
     11          1           0        2.412597    3.154646   -0.945582
     12          6           0        1.124139    3.916382    0.551291
     13          1           0        1.349643    3.591576    1.577472
     14          1           0        0.717358    4.931094    0.621368
     15          6           0        0.109175    2.949567   -0.061293
     16          8           0        0.449662    2.058287   -0.838320
     17          7           0       -1.180403    3.159428    0.300901
     18          1           0       -1.377571    3.798778    1.058916
     19          6           0       -2.211883    2.221926   -0.087519
     20          1           0       -2.203423    2.110710   -1.176618
     21          1           0       -3.182009    2.639906    0.198409
     22          6           0       -2.033277    0.851558    0.588589
     23          8           0       -1.388162    0.722651    1.627883
     24          7           0       -2.657333   -0.176475   -0.034758
     25          1           0       -3.094843   -0.020871   -0.932957
     26          6           0       -2.685488   -1.531463    0.512122
     27          1           0       -2.835729   -1.460899    1.594716
     28          1           0       -3.524234   -2.070652    0.071721
     29          6           0       -1.414856   -2.350226    0.218734
     30          8           0       -1.450654   -3.386675   -0.423379
     31          7           0       -0.263487   -1.815487    0.746265
     32          1           0       -0.365932   -1.012700    1.364122
     33          6           0        0.982579   -2.551930    0.705299
     34          1           0        0.764322   -3.552659    0.318324
     35          1           0        1.403268   -2.672461    1.709364
     36          6           0        2.082901   -1.966747   -0.176169
     37          8           0        3.213880   -2.467951   -0.164669
     38          7           0        1.763245   -0.910446   -0.961133
     39          1           0        0.861485   -0.461249   -0.855521
     40          6           0        2.696309   -0.379938   -1.946131
     41          1           0        3.187132   -1.218926   -2.451672
     42          1           0        2.140993    0.211016   -2.673685
     43          6           0        3.749153    0.534879   -1.312560
     44          8           0        3.778158    1.749924   -1.518438
     45          7           0        4.645483   -0.079096   -0.488148
     46          1           0        4.437362   -1.061598   -0.270852
     47          6           0        5.376258    0.722918    0.480115
     48          1           0        4.712850    1.423105    0.998246
     49          1           0        5.798523    0.049314    1.233396
     50          6           0        6.532283    1.556562   -0.071814
     51          8           0        6.921008    2.562455    0.538617
     52          7           0        7.141403    1.100807   -1.183240
     53          1           0        6.743083    0.290012   -1.640220
     54          6           0        8.359819    1.684705   -1.702398
     55          1           0        9.056066    1.875404   -0.876096
     56          1           0        8.841457    0.974970   -2.377752
     57          6           0        8.174915    3.016406   -2.426188
     58          8           0        7.246125    3.787815   -2.291592
     59          8           0        9.232450    3.255425   -3.212747
     60          1           0        9.116760    4.133713   -3.624107
 ---------------------------------------------------------------------

 SCF Done:  E(RB3LYP) =  -1740.93977870     A.U. after    3 cycles

 Alpha  occ. eigenvalues --  -19.31835 -19.26779 -19.24462 -19.24000 -19.23597
 Alpha  occ. eigenvalues --  -19.23444 -19.22284 -19.21358 -19.19986 -14.55688
 Alpha  occ. eigenvalues --  -14.49213 -14.47669 -14.47211 -14.47083 -14.46992
 Alpha  occ. eigenvalues --  -14.46289 -14.44282 -10.44947 -10.41768 -10.40805
 Alpha  occ. eigenvalues --  -10.40567 -10.40383 -10.39500 -10.38513 -10.37231
 Alpha  occ. eigenvalues --  -10.36008 -10.35989 -10.34668 -10.34125 -10.34103
 Alpha  occ. eigenvalues --  -10.33234 -10.32096 -10.31323  -1.23045  -1.16443
 Alpha  occ. eigenvalues --   -1.15900  -1.15422  -1.15258  -1.14028  -1.13991
 Alpha  occ. eigenvalues --   -1.13186  -1.11805  -1.10211  -1.05509  -1.03897
 Alpha  occ. eigenvalues --   -1.03732  -1.03306  -1.02874  -1.02327  -1.00194
 Alpha  occ. eigenvalues --   -0.88735  -0.88175  -0.86258  -0.85579  -0.83563
 Alpha  occ. eigenvalues --   -0.82039  -0.80155  -0.78350  -0.74952  -0.71411
 Alpha  occ. eigenvalues --   -0.71345  -0.70825  -0.70065  -0.69796  -0.69152
 Alpha  occ. eigenvalues --   -0.69004  -0.68026  -0.66705  -0.65410  -0.64291
 Alpha  occ. eigenvalues --   -0.63823  -0.63043  -0.62745  -0.62327  -0.61164
 Alpha  occ. eigenvalues --   -0.60573  -0.60350  -0.60130  -0.59611  -0.58737
 Alpha  occ. eigenvalues --   -0.58049  -0.58011  -0.57179  -0.56354  -0.56271
 Alpha  occ. eigenvalues --   -0.55634  -0.55340  -0.54724  -0.54131  -0.53756
 Alpha  occ. eigenvalues --   -0.53509  -0.52780  -0.52278  -0.52122  -0.51826
 Alpha  occ. eigenvalues --   -0.51478  -0.51057  -0.50828  -0.50457  -0.50116
 Alpha  occ. eigenvalues --   -0.49251  -0.49007  -0.48842  -0.48633  -0.47505
 Alpha  occ. eigenvalues --   -0.47260  -0.46379  -0.45672  -0.45166  -0.44324
 Alpha  occ. eigenvalues --   -0.41452  -0.39938  -0.38943  -0.38518  -0.38237
 Alpha  occ. eigenvalues --   -0.38033  -0.37579  -0.37276  -0.37154  -0.36788
 Alpha  occ. eigenvalues --   -0.36525  -0.35777  -0.34882  -0.33498  -0.32735
 Alpha virt. eigenvalues --   -0.11865  -0.10832  -0.10397  -0.10007  -0.09088
 Alpha virt. eigenvalues --   -0.08474  -0.07238  -0.06227  -0.04681  -0.03561
 Alpha virt. eigenvalues --   -0.02797  -0.02438  -0.01927  -0.00129   0.00029

 Mulliken charges:
               1
     1  N   -0.756262
     2  H    0.408278
     3  H    0.407569
     4  H    0.452583
     5  C   -0.296859
     6  H    0.266775
     7  H    0.223662
     8  C    0.622506
     9  O   -0.526411
    10  N   -0.631542
    11  H    0.403204
    12  C   -0.207392
    13  H    0.210523
    14  H    0.197922
    15  C    0.617210
    16  O   -0.541300
    17  N   -0.571821
    18  H    0.354597
    19  C   -0.247434
    20  H    0.195182
    21  H    0.204623
    22  C    0.632766
    23  O   -0.534740
    24  N   -0.587563
    25  H    0.349912
    26  C   -0.243373
    27  H    0.205346
    28  H    0.200699
    29  C    0.586967
    30  O   -0.477122
    31  N   -0.633866
    32  H    0.373309
    33  C   -0.220213
    34  H    0.237740
    35  H    0.193027
    36  C    0.604332
    37  O   -0.546148
    38  N   -0.585436
    39  H    0.369903
    40  C   -0.226006
    41  H    0.201784
    42  H    0.199931
    43  C    0.588277
    44  O   -0.529488
    45  N   -0.614812
    46  H    0.398439
    47  C   -0.225765
    48  H    0.188349
    49  H    0.213146
    50  C    0.631723
    51  O   -0.571726
    52  N   -0.558357
    53  H    0.365040
    54  C   -0.228188
    55  H    0.233483
    56  H    0.214940
    57  C    0.596974
    58  O   -0.488167
    59  O   -0.531282
    60  H    0.430553
 Sum of Mulliken charges =   1.00000

 Dipole moment (field-independent basis, Debye):
    X=             17.2746    Y=             14.6602    Z=             -4.5616  Tot=             23.1115
 Quadrupole moment (field-independent basis, Debye-Ang):
   XX=            -10.3896   YY=           -133.7834   ZZ=           -172.8703
   XY=             61.4108   XZ=            -38.4462   YZ=            -20.7500

 Normal termination of Gaussian 16 at Tue Jul 19 19:38:16 2022.
