 Gaussian 16, Revision C.01,
 Gaussian 16:  ES64L-G16RevC.01  3-Jul-2019

 -------------------------------------------------------------------
 # B3LYP/6-31G* guess=read geom=check nosymm integral(ultrafinegrid)
 -------------------------------------------------------------------

 ------------------------------------------------------
 Candidate Structure: Conf:137 Charge calc in gas phase
 ------------------------------------------------------
 Structure from the checkpoint file:  "conf-137.chk"
 Charge =  1 Multiplicity = 1

                          Input orientation:
 ---------------------------------------------------------------------
 Center     Atomic      Atomic             Coordinates (Angstroms)
 Number     Number       Type             X           Y           Z
 ---------------------------------------------------------------------
      1          7           0       -1.007473    1.832574   -8.171761
      2          1           0       -0.227521    1.456051   -7.560966
      3          1           0       -1.477970    1.089828   -8.693980
      4          1           0       -0.559648    2.518520   -8.801979
      5          6           0       -1.918539    2.625117   -7.284612
      6          1           0       -2.226140    1.995703   -6.448613
      7          1           0       -2.792045    2.940704   -7.861132
      8          6           0       -1.046752    3.825275   -6.864284
      9          8           0       -0.167006    4.187774   -7.649551
     10          7           0       -1.293917    4.349671   -5.660285
     11          1           0       -1.983431    3.930655   -5.041810
     12          6           0       -0.340951    5.220733   -4.973597
     13          1           0        0.590785    5.242533   -5.540897
     14          1           0       -0.736377    6.239661   -4.892014
     15          6           0       -0.185977    4.631712   -3.565853
     16          8           0       -1.180053    4.297330   -2.924645
     17          7           0        1.080179    4.484938   -3.115561
     18          1           0        1.862160    4.653148   -3.748907
     19          6           0        1.320300    3.942837   -1.799384
     20          1           0        0.847348    4.573363   -1.037716
     21          1           0        2.400423    3.939909   -1.619485
     22          6           0        0.854923    2.493870   -1.612069
     23          8           0        0.753835    1.670925   -2.542923
     24          7           0        0.636086    2.133870   -0.337035
     25          1           0        0.783616    2.822174    0.390079
     26          6           0        0.502811    0.735821    0.082981
     27          1           0        0.052182    0.710914    1.074796
     28          1           0       -0.149532    0.222176   -0.627308
     29          6           0        1.894848    0.079178    0.163021
     30          8           0        2.473554   -0.091138    1.222525
     31          7           0        2.413990   -0.249625   -1.063659
     32          1           0        1.900365    0.082019   -1.872920
     33          6           0        3.819054   -0.528132   -1.221950
     34          1           0        3.970355   -1.406248   -1.862017
     35          1           0        4.210664   -0.767489   -0.226787
     36          6           0        4.600650    0.677524   -1.767721
     37          8           0        4.246026    1.843539   -1.588761
     38          7           0        5.741800    0.356293   -2.432354
     39          1           0        5.975195   -0.615366   -2.581312
     40          6           0        6.710966    1.368657   -2.830232
     41          1           0        6.907035    2.032045   -1.981929
     42          1           0        7.638655    0.863482   -3.103989
     43          6           0        6.267534    2.181162   -4.058206
     44          8           0        6.460214    1.780086   -5.207452
     45          7           0        5.698176    3.380017   -3.770360
     46          1           0        5.317318    3.487416   -2.836419
     47          6           0        5.323490    4.328515   -4.811867
     48          1           0        5.219228    5.318824   -4.366469
     49          1           0        6.130416    4.354116   -5.550737
     50          6           0        3.996369    3.982818   -5.500231
     51          8           0        2.969094    4.643168   -5.311653
     52          7           0        4.042533    2.901056   -6.313998
     53          1           0        4.895203    2.338890   -6.276176
     54          6           0        2.831654    2.347474   -6.873079
     55          1           0        2.281634    3.119629   -7.423596
     56          1           0        3.093255    1.554579   -7.580124
     57          6           0        1.846270    1.788067   -5.845803
     58          8           0        0.726659    1.377120   -6.170460
     59          8           0        2.287018    1.810129   -4.616946
     60          1           0        1.563113    1.692931   -3.916444
 ---------------------------------------------------------------------

 SCF Done:  E(RB3LYP) =  -1740.93092622     A.U. after    1 cycles

 Alpha  occ. eigenvalues --  -19.29467 -19.26572 -19.25360 -19.24575 -19.22794
 Alpha  occ. eigenvalues --  -19.22347 -19.22173 -19.21855 -19.20175 -14.58551
 Alpha  occ. eigenvalues --  -14.49170 -14.48134 -14.47008 -14.46492 -14.46295
 Alpha  occ. eigenvalues --  -14.46243 -14.44467 -10.44453 -10.42947 -10.41161
 Alpha  occ. eigenvalues --  -10.39597 -10.39518 -10.39208 -10.39097 -10.39094
 Alpha  occ. eigenvalues --  -10.37458 -10.34570 -10.34014 -10.33380 -10.33094
 Alpha  occ. eigenvalues --  -10.32966 -10.32570 -10.32235  -1.21790  -1.17936
 Alpha  occ. eigenvalues --   -1.15969  -1.14536  -1.14072  -1.13839  -1.13388
 Alpha  occ. eigenvalues --   -1.13206  -1.12306  -1.12003  -1.05358  -1.04035
 Alpha  occ. eigenvalues --   -1.03238  -1.02856  -1.02613  -1.02202  -1.01001
 Alpha  occ. eigenvalues --   -0.89371  -0.87464  -0.86918  -0.85312  -0.83652
 Alpha  occ. eigenvalues --   -0.81977  -0.80135  -0.78142  -0.74543  -0.73772
 Alpha  occ. eigenvalues --   -0.72293  -0.71495  -0.70708  -0.70403  -0.69302
 Alpha  occ. eigenvalues --   -0.68415  -0.67748  -0.67055  -0.65930  -0.64413
 Alpha  occ. eigenvalues --   -0.64275  -0.63736  -0.62710  -0.62399  -0.61093
 Alpha  occ. eigenvalues --   -0.60469  -0.60024  -0.59485  -0.58809  -0.58631
 Alpha  occ. eigenvalues --   -0.58401  -0.58205  -0.57660  -0.57004  -0.56795
 Alpha  occ. eigenvalues --   -0.56148  -0.55507  -0.54701  -0.54661  -0.53398
 Alpha  occ. eigenvalues --   -0.53158  -0.52780  -0.52253  -0.51845  -0.51231
 Alpha  occ. eigenvalues --   -0.50880  -0.50614  -0.50378  -0.49727  -0.49454
 Alpha  occ. eigenvalues --   -0.49041  -0.48712  -0.48242  -0.47978  -0.47964
 Alpha  occ. eigenvalues --   -0.47377  -0.46592  -0.46313  -0.45617  -0.43309
 Alpha  occ. eigenvalues --   -0.41434  -0.39967  -0.39375  -0.39100  -0.38546
 Alpha  occ. eigenvalues --   -0.38484  -0.38045  -0.36755  -0.36460  -0.35833
 Alpha  occ. eigenvalues --   -0.35462  -0.34820  -0.34372  -0.34110  -0.33183
 Alpha virt. eigenvalues --   -0.12198  -0.10882  -0.10065  -0.09721  -0.08708
 Alpha virt. eigenvalues --   -0.08560  -0.07925  -0.07828  -0.06369  -0.03703
 Alpha virt. eigenvalues --   -0.02694  -0.02279  -0.01445  -0.00983  -0.00784

 Mulliken charges:
               1
     1  N   -0.749024
     2  H    0.441087
     3  H    0.406368
     4  H    0.414379
     5  C   -0.279659
     6  H    0.231432
     7  H    0.239851
     8  C    0.644901
     9  O   -0.524355
    10  N   -0.584984
    11  H    0.364626
    12  C   -0.244008
    13  H    0.233672
    14  H    0.209999
    15  C    0.593374
    16  O   -0.523331
    17  N   -0.615834
    18  H    0.398045
    19  C   -0.251428
    20  H    0.195049
    21  H    0.216899
    22  C    0.686917
    23  O   -0.595266
    24  N   -0.563726
    25  H    0.360762
    26  C   -0.245473
    27  H    0.204739
    28  H    0.202532
    29  C    0.590322
    30  O   -0.480836
    31  N   -0.576657
    32  H    0.354864
    33  C   -0.247927
    34  H    0.167723
    35  H    0.235125
    36  C    0.614780
    37  O   -0.541636
    38  N   -0.581386
    39  H    0.351138
    40  C   -0.229108
    41  H    0.192530
    42  H    0.200678
    43  C    0.608654
    44  O   -0.523160
    45  N   -0.569769
    46  H    0.363325
    47  C   -0.246376
    48  H    0.193427
    49  H    0.208505
    50  C    0.618332
    51  O   -0.543881
    52  N   -0.573428
    53  H    0.388829
    54  C   -0.260009
    55  H    0.226557
    56  H    0.197949
    57  C    0.639187
    58  O   -0.546599
    59  O   -0.570947
    60  H    0.472254
 Sum of Mulliken charges =   1.00000

 Dipole moment (field-independent basis, Debye):
    X=              4.8986    Y=              9.4099    Z=            -27.4769  Tot=             29.4537
 Quadrupole moment (field-independent basis, Debye-Ang):
   XX=           -122.8627   YY=           -151.3327   ZZ=              9.5760
   XY=              7.8400   XZ=              6.7357   YZ=            -41.2907

 Normal termination of Gaussian 16 at Tue Jul 19 19:37:59 2022.
