 Gaussian 16, Revision C.01,
 Gaussian 16:  ES64L-G16RevC.01  3-Jul-2019

 -------------------------------------------------------------------
 # B3LYP/6-31G* guess=read geom=check nosymm integral(ultrafinegrid)
 -------------------------------------------------------------------

 ------------------------------------------------------
 Candidate Structure: Conf:617 Charge calc in gas phase
 ------------------------------------------------------
 Structure from the checkpoint file:  "conf-617.chk"
 Charge =  1 Multiplicity = 1

                          Input orientation:
 ---------------------------------------------------------------------
 Center     Atomic      Atomic             Coordinates (Angstroms)
 Number     Number       Type             X           Y           Z
 ---------------------------------------------------------------------
      1          7           0        3.626017    6.584378   -3.310376
      2          1           0        3.540300    7.560112   -3.608259
      3          1           0        4.587784    6.426217   -2.997657
      4          1           0        3.386633    5.927299   -4.128426
      5          6           0        2.586828    6.168130   -2.305683
      6          1           0        1.970226    7.026610   -2.034122
      7          1           0        3.076198    5.779312   -1.410944
      8          6           0        1.778896    5.071843   -3.054450
      9          8           0        2.155035    4.792349   -4.203692
     10          7           0        0.760105    4.535010   -2.407970
     11          1           0        0.488279    4.804447   -1.458346
     12          6           0       -0.113381    3.503455   -2.952690
     13          1           0       -0.456302    3.782229   -3.953771
     14          1           0        0.408516    2.540895   -3.003309
     15          6           0       -1.266780    3.367595   -1.951637
     16          8           0       -1.185057    3.918966   -0.848932
     17          7           0       -2.323045    2.635746   -2.355290
     18          1           0       -2.222156    2.083781   -3.199325
     19          6           0       -3.335691    2.171761   -1.397865
     20          1           0       -4.244484    1.916227   -1.942779
     21          1           0       -3.539684    2.985650   -0.699387
     22          6           0       -2.798822    0.911289   -0.701917
     23          8           0       -3.089197   -0.210116   -1.087453
     24          7           0       -1.909846    1.161452    0.311789
     25          1           0       -1.580534    2.117201    0.396771
     26          6           0       -0.982574    0.115136    0.679460
     27          1           0       -0.492775    0.384096    1.621554
     28          1           0       -1.540753   -0.810512    0.841657
     29          6           0        0.088775   -0.101873   -0.410827
     30          8           0        0.306407    0.726418   -1.297782
     31          7           0        0.779927   -1.255475   -0.297309
     32          1           0        0.593773   -1.928121    0.440446
     33          6           0        1.835620   -1.629376   -1.208567
     34          1           0        2.558837   -0.810411   -1.314925
     35          1           0        1.439348   -1.836604   -2.212337
     36          6           0        2.526168   -2.878030   -0.651525
     37          8           0        2.139713   -3.405849    0.394106
     38          7           0        3.557989   -3.356412   -1.382714
     39          1           0        3.889067   -2.830212   -2.180180
     40          6           0        4.318904   -4.538865   -0.975217
     41          1           0        3.612226   -5.277534   -0.586643
     42          1           0        4.822247   -4.945718   -1.852566
     43          6           0        5.399297   -4.193912    0.068021
     44          8           0        6.573008   -4.067158   -0.246160
     45          7           0        4.913090   -4.037083    1.339693
     46          1           0        3.901834   -3.994758    1.438113
     47          6           0        5.738050   -3.501558    2.411666
     48          1           0        6.768634   -3.485027    2.043768
     49          1           0        5.456754   -2.472208    2.660126
     50          6           0        5.707127   -4.291774    3.723653
     51          8           0        6.026030   -3.752256    4.773339
     52          7           0        5.314532   -5.596279    3.622431
     53          1           0        5.206868   -5.978167    2.692622
     54          6           0        5.427170   -6.501399    4.743049
     55          1           0        5.559789   -5.888514    5.639834
     56          1           0        4.510764   -7.086472    4.876801
     57          6           0        6.586247   -7.490206    4.687087
     58          8           0        6.736799   -8.380578    5.489595
     59          8           0        7.422868   -7.268344    3.647420
     60          1           0        8.127402   -7.940390    3.719974
 ---------------------------------------------------------------------

 SCF Done:  E(RB3LYP) =  -1740.87723123     A.U. after    2 cycles

 Alpha  occ. eigenvalues --  -19.29294 -19.24709 -19.24422 -19.22244 -19.20794
 Alpha  occ. eigenvalues --  -19.19980 -19.18687 -19.18477 -19.16452 -14.62734
 Alpha  occ. eigenvalues --  -14.51797 -14.48168 -14.46620 -14.45005 -14.44018
 Alpha  occ. eigenvalues --  -14.42963 -14.41608 -10.46148 -10.43226 -10.41479
 Alpha  occ. eigenvalues --  -10.39346 -10.37800 -10.37089 -10.36960 -10.36002
 Alpha  occ. eigenvalues --  -10.35855 -10.34114 -10.32881 -10.32392 -10.31430
 Alpha  occ. eigenvalues --  -10.31321 -10.28621 -10.28484  -1.21773  -1.16552
 Alpha  occ. eigenvalues --   -1.16052  -1.15405  -1.14168  -1.12591  -1.11601
 Alpha  occ. eigenvalues --   -1.10536  -1.08558  -1.08272  -1.06337  -1.04195
 Alpha  occ. eigenvalues --   -1.02416  -1.01411  -1.00485  -0.99370  -0.97463
 Alpha  occ. eigenvalues --   -0.92664  -0.87374  -0.85807  -0.83466  -0.81901
 Alpha  occ. eigenvalues --   -0.80214  -0.78055  -0.76643  -0.76519  -0.76171
 Alpha  occ. eigenvalues --   -0.74217  -0.70625  -0.69373  -0.68755  -0.68000
 Alpha  occ. eigenvalues --   -0.66962  -0.66621  -0.65406  -0.65281  -0.64145
 Alpha  occ. eigenvalues --   -0.63578  -0.63141  -0.62597  -0.60968  -0.60375
 Alpha  occ. eigenvalues --   -0.60312  -0.59385  -0.58397  -0.58086  -0.57491
 Alpha  occ. eigenvalues --   -0.57118  -0.56578  -0.55528  -0.55337  -0.54564
 Alpha  occ. eigenvalues --   -0.53732  -0.53633  -0.53198  -0.52240  -0.52153
 Alpha  occ. eigenvalues --   -0.51694  -0.50962  -0.50625  -0.50106  -0.49772
 Alpha  occ. eigenvalues --   -0.49502  -0.49031  -0.48663  -0.48368  -0.48139
 Alpha  occ. eigenvalues --   -0.47486  -0.46748  -0.45753  -0.45710  -0.44899
 Alpha  occ. eigenvalues --   -0.44402  -0.44341  -0.44205  -0.43684  -0.41547
 Alpha  occ. eigenvalues --   -0.41540  -0.38952  -0.38262  -0.37184  -0.36659
 Alpha  occ. eigenvalues --   -0.36434  -0.35342  -0.34655  -0.33859  -0.33849
 Alpha  occ. eigenvalues --   -0.33457  -0.32824  -0.31830  -0.30212  -0.29774
 Alpha virt. eigenvalues --   -0.14324  -0.13896  -0.10158  -0.08478  -0.08095
 Alpha virt. eigenvalues --   -0.07024  -0.06523  -0.06028  -0.05364  -0.03665
 Alpha virt. eigenvalues --   -0.03419  -0.02611  -0.02493  -0.01843  -0.01206

 Mulliken charges:
               1
     1  N   -0.750434
     2  H    0.424843
     3  H    0.424291
     4  H    0.441257
     5  C   -0.277621
     6  H    0.249949
     7  H    0.250086
     8  C    0.641959
     9  O   -0.524161
    10  N   -0.605136
    11  H    0.379973
    12  C   -0.217150
    13  H    0.207476
    14  H    0.250119
    15  C    0.637158
    16  O   -0.548696
    17  N   -0.580359
    18  H    0.357150
    19  C   -0.250456
    20  H    0.202551
    21  H    0.205370
    22  C    0.592792
    23  O   -0.491327
    24  N   -0.564543
    25  H    0.356113
    26  C   -0.257139
    27  H    0.188753
    28  H    0.210855
    29  C    0.628881
    30  O   -0.564101
    31  N   -0.606929
    32  H    0.365610
    33  C   -0.187706
    34  H    0.183844
    35  H    0.196767
    36  C    0.607855
    37  O   -0.534392
    38  N   -0.589506
    39  H    0.347432
    40  C   -0.238730
    41  H    0.197201
    42  H    0.195157
    43  C    0.582227
    44  O   -0.487184
    45  N   -0.623313
    46  H    0.366837
    47  C   -0.228357
    48  H    0.225423
    49  H    0.178805
    50  C    0.592191
    51  O   -0.506607
    52  N   -0.578672
    53  H    0.338527
    54  C   -0.232618
    55  H    0.234896
    56  H    0.194071
    57  C    0.576967
    58  O   -0.445715
    59  O   -0.560790
    60  H    0.418256
 Sum of Mulliken charges =   1.00000

 Dipole moment (field-independent basis, Debye):
    X=             11.0061    Y=             24.2068    Z=            -15.8081  Tot=             30.9354
 Quadrupole moment (field-independent basis, Debye-Ang):
   XX=           -154.8409   YY=             -4.0105   ZZ=           -172.4637
   XY=             74.0502   XZ=            -57.8974   YZ=            -55.3760

 Normal termination of Gaussian 16 at Tue Jul 19 19:38:00 2022.
