 Gaussian 16, Revision C.01,
 Gaussian 16:  ES64L-G16RevC.01  3-Jul-2019

 -------------------------------------------------------------------
 # B3LYP/6-31G* guess=read geom=check nosymm integral(ultrafinegrid)
 -------------------------------------------------------------------

 ------------------------------------------------------
 Candidate Structure: Conf:315 Charge calc in gas phase
 ------------------------------------------------------
 Structure from the checkpoint file:  "conf-315.chk"
 Charge =  1 Multiplicity = 1

                          Input orientation:
 ---------------------------------------------------------------------
 Center     Atomic      Atomic             Coordinates (Angstroms)
 Number     Number       Type             X           Y           Z
 ---------------------------------------------------------------------
      1          7           0       -1.237578   -0.219199    2.313569
      2          1           0       -1.522549   -1.151215    1.999794
      3          1           0       -1.226458    0.397428    1.476658
      4          1           0       -0.272996   -0.191541    2.705583
      5          6           0       -2.246900    0.332643    3.269839
      6          1           0       -1.842537    1.267197    3.663236
      7          1           0       -2.378582   -0.376026    4.091944
      8          6           0       -3.534442    0.514355    2.448413
      9          8           0       -3.717751   -0.212197    1.481828
     10          7           0       -4.356130    1.535127    2.797904
     11          1           0       -4.185702    2.063184    3.643557
     12          6           0       -5.425176    1.947214    1.886114
     13          1           0       -6.030506    1.087526    1.595437
     14          1           0       -6.065116    2.666327    2.404503
     15          6           0       -4.880261    2.567119    0.580018
     16          8           0       -5.463148    2.435637   -0.477888
     17          7           0       -3.721786    3.300493    0.728215
     18          1           0       -3.238678    3.195420    1.609117
     19          6           0       -2.872637    3.572836   -0.405581
     20          1           0       -2.646187    4.643685   -0.496441
     21          1           0       -3.425174    3.275955   -1.305166
     22          6           0       -1.565443    2.776629   -0.303881
     23          8           0       -1.400636    1.931573    0.598138
     24          7           0       -0.609775    3.050175   -1.204475
     25          1           0       -0.788974    3.776624   -1.887010
     26          6           0        0.607899    2.250515   -1.381445
     27          1           0        0.331908    1.189549   -1.353421
     28          1           0        1.011626    2.467437   -2.369887
     29          6           0        1.767210    2.469350   -0.385157
     30          8           0        2.915371    2.535442   -0.792597
     31          7           0        1.418194    2.507363    0.936129
     32          1           0        0.457332    2.302215    1.184437
     33          6           0        2.417496    2.486832    1.980949
     34          1           0        2.315115    3.362896    2.637444
     35          1           0        3.396776    2.544128    1.499666
     36          6           0        2.290228    1.236954    2.858590
     37          8           0        1.185181    0.706655    3.079569
     38          7           0        3.425301    0.800357    3.412374
     39          1           0        4.326760    1.232780    3.214619
     40          6           0        3.503598   -0.303681    4.346778
     41          1           0        2.883311   -0.110766    5.230809
     42          1           0        3.139070   -1.230644    3.885646
     43          6           0        4.980895   -0.452993    4.745358
     44          8           0        5.831061    0.304942    4.272703
     45          7           0        5.257120   -1.431747    5.628949
     46          1           0        4.527026   -2.077244    5.900072
     47          6           0        6.616748   -1.699430    6.105814
     48          1           0        7.117903   -0.737904    6.249590
     49          1           0        6.549767   -2.216677    7.062947
     50          6           0        7.428072   -2.599532    5.153149
     51          8           0        7.702486   -3.752512    5.450091
     52          7           0        7.769344   -2.002704    3.974380
     53          1           0        7.556128   -1.018237    3.859657
     54          6           0        8.623814   -2.661174    3.012037
     55          1           0        8.675918   -3.717563    3.293581
     56          1           0        8.204171   -2.608109    2.002129
     57          6           0       10.054263   -2.138214    2.929571
     58          8           0       10.813222   -2.432457    2.037144
     59          8           0       10.382615   -1.327627    3.960137
     60          1           0       11.316909   -1.079610    3.821555
 ---------------------------------------------------------------------

 SCF Done:  E(RB3LYP) =  -1740.90112800     A.U. after    1 cycles

 Alpha  occ. eigenvalues --  -19.27371 -19.25953 -19.25917 -19.25455 -19.23773
 Alpha  occ. eigenvalues --  -19.22399 -19.22131 -19.19746 -19.18822 -14.57698
 Alpha  occ. eigenvalues --  -14.50904 -14.50678 -14.48857 -14.47957 -14.47248
 Alpha  occ. eigenvalues --  -14.46687 -14.43256 -10.43790 -10.43647 -10.42187
 Alpha  occ. eigenvalues --  -10.40965 -10.40031 -10.39840 -10.39824 -10.38240
 Alpha  occ. eigenvalues --  -10.36269 -10.35486 -10.35404 -10.35308 -10.34858
 Alpha  occ. eigenvalues --  -10.34397 -10.31952 -10.30017  -1.18844  -1.18389
 Alpha  occ. eigenvalues --   -1.16809  -1.16648  -1.15523  -1.14481  -1.14163
 Alpha  occ. eigenvalues --   -1.12557  -1.10756  -1.07604  -1.06664  -1.06579
 Alpha  occ. eigenvalues --   -1.05150  -1.03740  -1.03602  -1.03086  -0.99578
 Alpha  occ. eigenvalues --   -0.90086  -0.88912  -0.87789  -0.85279  -0.83930
 Alpha  occ. eigenvalues --   -0.82191  -0.80828  -0.78896  -0.73996  -0.73703
 Alpha  occ. eigenvalues --   -0.73421  -0.71922  -0.71286  -0.70285  -0.69626
 Alpha  occ. eigenvalues --   -0.69432  -0.68205  -0.67266  -0.66815  -0.66022
 Alpha  occ. eigenvalues --   -0.65749  -0.63553  -0.62773  -0.61952  -0.61663
 Alpha  occ. eigenvalues --   -0.61071  -0.60605  -0.60134  -0.59468  -0.59212
 Alpha  occ. eigenvalues --   -0.58525  -0.58391  -0.56902  -0.56617  -0.56089
 Alpha  occ. eigenvalues --   -0.55848  -0.55343  -0.55099  -0.54245  -0.54188
 Alpha  occ. eigenvalues --   -0.53832  -0.53546  -0.52631  -0.52486  -0.52057
 Alpha  occ. eigenvalues --   -0.51733  -0.51041  -0.50878  -0.50461  -0.50171
 Alpha  occ. eigenvalues --   -0.49768  -0.49154  -0.48479  -0.47568  -0.47425
 Alpha  occ. eigenvalues --   -0.47134  -0.46372  -0.45093  -0.44563  -0.41942
 Alpha  occ. eigenvalues --   -0.41016  -0.40800  -0.40167  -0.40066  -0.39286
 Alpha  occ. eigenvalues --   -0.38166  -0.37661  -0.37493  -0.37162  -0.36311
 Alpha  occ. eigenvalues --   -0.35644  -0.35328  -0.35265  -0.32123  -0.31659
 Alpha virt. eigenvalues --   -0.12755  -0.12599  -0.10969  -0.09289  -0.08955
 Alpha virt. eigenvalues --   -0.08567  -0.07595  -0.06292  -0.05719  -0.04879
 Alpha virt. eigenvalues --   -0.04547  -0.02813  -0.02595  -0.01176  -0.00924

 Mulliken charges:
               1
     1  N   -0.761385
     2  H    0.408257
     3  H    0.442434
     4  H    0.440875
     5  C   -0.277759
     6  H    0.215394
     7  H    0.236176
     8  C    0.638103
     9  O   -0.488513
    10  N   -0.620084
    11  H    0.350153
    12  C   -0.235261
    13  H    0.235566
    14  H    0.207005
    15  C    0.597209
    16  O   -0.465875
    17  N   -0.562563
    18  H    0.317757
    19  C   -0.241024
    20  H    0.197380
    21  H    0.242041
    22  C    0.619164
    23  O   -0.588630
    24  N   -0.567921
    25  H    0.367752
    26  C   -0.248327
    27  H    0.199259
    28  H    0.215297
    29  C    0.592390
    30  O   -0.476977
    31  N   -0.603965
    32  H    0.353002
    33  C   -0.234946
    34  H    0.198873
    35  H    0.219683
    36  C    0.634347
    37  O   -0.604036
    38  N   -0.593722
    39  H    0.380405
    40  C   -0.200963
    41  H    0.198680
    42  H    0.193117
    43  C    0.617241
    44  O   -0.532643
    45  N   -0.589232
    46  H    0.349285
    47  C   -0.246874
    48  H    0.206267
    49  H    0.199260
    50  C    0.595109
    51  O   -0.488368
    52  N   -0.588484
    53  H    0.360677
    54  C   -0.233014
    55  H    0.234663
    56  H    0.191506
    57  C    0.578231
    58  O   -0.443616
    59  O   -0.558688
    60  H    0.420311
 Sum of Mulliken charges =   1.00000

 Dipole moment (field-independent basis, Debye):
    X=             -3.3277    Y=              7.7550    Z=             15.4852  Tot=             17.6354
 Quadrupole moment (field-independent basis, Debye-Ang):
   XX=           -175.5513   YY=           -167.7107   ZZ=           -112.4533
   XY=              0.5700   XZ=              1.2436   YZ=              7.1005

 Normal termination of Gaussian 16 at Tue Jul 19 19:37:53 2022.
