 Gaussian 16, Revision C.01,
 Gaussian 16:  ES64L-G16RevC.01  3-Jul-2019

 -------------------------------------------------------------------
 # B3LYP/6-31G* guess=read geom=check nosymm integral(ultrafinegrid)
 -------------------------------------------------------------------

 ------------------------------------------------------
 Candidate Structure: Conf:123 Charge calc in gas phase
 ------------------------------------------------------
 Structure from the checkpoint file:  "conf-123.chk"
 Charge =  1 Multiplicity = 1

                          Input orientation:
 ---------------------------------------------------------------------
 Center     Atomic      Atomic             Coordinates (Angstroms)
 Number     Number       Type             X           Y           Z
 ---------------------------------------------------------------------
      1          7           0        4.142040    6.428588   -0.402470
      2          1           0        5.150087    6.602208   -0.410635
      3          1           0        3.816605    6.358622   -1.370743
      4          1           0        3.620114    7.227184    0.083015
      5          6           0        3.727038    5.254068    0.442545
      6          1           0        4.587175    4.899235    1.013076
      7          1           0        3.340703    4.436881   -0.168441
      8          6           0        2.631199    5.843398    1.363941
      9          8           0        2.465381    7.068645    1.328847
     10          7           0        1.984365    4.962167    2.127828
     11          1           0        2.119964    3.976438    1.876219
     12          6           0        0.697158    5.298466    2.732784
     13          1           0        0.640793    4.876408    3.740450
     14          1           0        0.620531    6.385544    2.799313
     15          6           0       -0.383351    4.750251    1.784490
     16          8           0       -0.326967    5.008302    0.582349
     17          7           0       -1.305232    3.921977    2.329515
     18          1           0       -1.215692    3.657416    3.301829
     19          6           0       -2.158597    3.081398    1.482840
     20          1           0       -2.526140    3.688701    0.652750
     21          1           0       -2.999060    2.717569    2.073464
     22          6           0       -1.336870    1.870472    0.999275
     23          8           0       -1.419848    0.772769    1.528846
     24          7           0       -0.463989    2.159846   -0.017604
     25          1           0       -0.343993    3.137432   -0.265780
     26          6           0        0.575542    1.218501   -0.375783
     27          1           0        0.162737    0.209995   -0.306876
     28          1           0        0.875507    1.396877   -1.414631
     29          6           0        1.827553    1.360840    0.504631
     30          8           0        2.324565    2.476798    0.760042
     31          7           0        2.365907    0.217051    0.936685
     32          1           0        1.928348   -0.688351    0.768779
     33          6           0        3.566565    0.136557    1.740640
     34          1           0        3.443837    0.685843    2.682882
     35          1           0        4.419889    0.581026    1.213316
     36          6           0        3.820843   -1.354936    2.020782
     37          8           0        3.052299   -2.213361    1.592843
     38          7           0        4.918118   -1.624993    2.751433
     39          1           0        5.547231   -0.906061    3.099679
     40          6           0        5.294669   -2.971194    3.122906
     41          1           0        4.506336   -3.446776    3.721366
     42          1           0        5.438739   -3.596874    2.232603
     43          6           0        6.595130   -2.872690    3.931854
     44          8           0        7.115726   -1.784053    4.154124
     45          7           0        7.109976   -4.061427    4.349099
     46          1           0        6.559849   -4.900209    4.207444
     47          6           0        8.259060   -4.150876    5.244160
     48          1           0        8.634675   -3.133546    5.383828
     49          1           0        7.963725   -4.538562    6.223596
     50          6           0        9.403129   -5.041588    4.743109
     51          8           0       10.180142   -5.546000    5.538326
     52          7           0        9.501908   -5.172463    3.387055
     53          1           0        8.755387   -4.796685    2.820068
     54          6           0       10.441144   -6.089342    2.783400
     55          1           0       11.063872   -5.593399    2.030580
     56          1           0       11.108210   -6.436234    3.579025
     57          6           0        9.824795   -7.314910    2.121272
     58          8           0       10.456878   -8.107033    1.466007
     59          8           0        8.489053   -7.424907    2.339026
     60          1           0        8.217028   -8.248048    1.889229
 ---------------------------------------------------------------------

 SCF Done:  E(RB3LYP) =  -1740.88873873     A.U. after    2 cycles

 Alpha  occ. eigenvalues --  -19.27702 -19.26422 -19.23496 -19.23250 -19.21817
 Alpha  occ. eigenvalues --  -19.21706 -19.20761 -19.20080 -19.17930 -14.61259
 Alpha  occ. eigenvalues --  -14.49775 -14.48324 -14.47304 -14.46171 -14.45761
 Alpha  occ. eigenvalues --  -14.45064 -14.43177 -10.44350 -10.40804 -10.40671
 Alpha  occ. eigenvalues --  -10.40301 -10.39103 -10.39086 -10.38547 -10.37995
 Alpha  occ. eigenvalues --  -10.35668 -10.35295 -10.33873 -10.32985 -10.32850
 Alpha  occ. eigenvalues --  -10.32803 -10.30589 -10.29919  -1.20155  -1.16993
 Alpha  occ. eigenvalues --   -1.15478  -1.14835  -1.14687  -1.14040  -1.13298
 Alpha  occ. eigenvalues --   -1.12577  -1.10121  -1.07954  -1.06753  -1.03930
 Alpha  occ. eigenvalues --   -1.03454  -1.02362  -1.02069  -1.01422  -0.99218
 Alpha  occ. eigenvalues --   -0.90915  -0.87358  -0.86244  -0.84617  -0.82827
 Alpha  occ. eigenvalues --   -0.81287  -0.79345  -0.77591  -0.75272  -0.74640
 Alpha  occ. eigenvalues --   -0.72428  -0.70824  -0.70362  -0.69161  -0.68502
 Alpha  occ. eigenvalues --   -0.67970  -0.67697  -0.67014  -0.65955  -0.64962
 Alpha  occ. eigenvalues --   -0.64124  -0.62717  -0.62567  -0.61100  -0.60529
 Alpha  occ. eigenvalues --   -0.60230  -0.59672  -0.58709  -0.58657  -0.57945
 Alpha  occ. eigenvalues --   -0.57193  -0.56810  -0.56666  -0.56013  -0.54890
 Alpha  occ. eigenvalues --   -0.54634  -0.54302  -0.54007  -0.53573  -0.53392
 Alpha  occ. eigenvalues --   -0.52386  -0.52273  -0.51794  -0.51595  -0.50952
 Alpha  occ. eigenvalues --   -0.50144  -0.49945  -0.49763  -0.49237  -0.48732
 Alpha  occ. eigenvalues --   -0.48422  -0.48198  -0.47509  -0.46892  -0.46679
 Alpha  occ. eigenvalues --   -0.46098  -0.45426  -0.45052  -0.43289  -0.42634
 Alpha  occ. eigenvalues --   -0.40683  -0.38586  -0.38335  -0.38097  -0.37590
 Alpha  occ. eigenvalues --   -0.36820  -0.36568  -0.36429  -0.35349  -0.35232
 Alpha  occ. eigenvalues --   -0.34931  -0.34875  -0.33538  -0.31660  -0.31518
 Alpha virt. eigenvalues --   -0.13557  -0.12086  -0.09934  -0.09713  -0.07717
 Alpha virt. eigenvalues --   -0.07062  -0.06713  -0.06631  -0.05280  -0.04274
 Alpha virt. eigenvalues --   -0.03708  -0.03020  -0.01551  -0.01404  -0.00708

 Mulliken charges:
               1
     1  N   -0.750354
     2  H    0.419361
     3  H    0.422995
     4  H    0.437926
     5  C   -0.284028
     6  H    0.241786
     7  H    0.263501
     8  C    0.628776
     9  O   -0.517865
    10  N   -0.583467
    11  H    0.400576
    12  C   -0.252399
    13  H    0.182618
    14  H    0.237477
    15  C    0.611521
    16  O   -0.524764
    17  N   -0.573431
    18  H    0.351626
    19  C   -0.240992
    20  H    0.208797
    21  H    0.204116
    22  C    0.581875
    23  O   -0.490955
    24  N   -0.581126
    25  H    0.366514
    26  C   -0.240137
    27  H    0.205847
    28  H    0.187626
    29  C    0.624591
    30  O   -0.597337
    31  N   -0.582866
    32  H    0.381245
    33  C   -0.199291
    34  H    0.190327
    35  H    0.185117
    36  C    0.613298
    37  O   -0.517765
    38  N   -0.625536
    39  H    0.360612
    40  C   -0.196789
    41  H    0.201324
    42  H    0.197984
    43  C    0.596788
    44  O   -0.510457
    45  N   -0.626799
    46  H    0.349784
    47  C   -0.229598
    48  H    0.229466
    49  H    0.201309
    50  C    0.590282
    51  O   -0.493851
    52  N   -0.578970
    53  H    0.332571
    54  C   -0.232427
    55  H    0.199178
    56  H    0.242168
    57  C    0.577110
    58  O   -0.438718
    59  O   -0.575187
    60  H    0.419015
 Sum of Mulliken charges =   1.00000

 Dipole moment (field-independent basis, Debye):
    X=             16.2696    Y=             18.5078    Z=              2.8431  Tot=             24.8057
 Quadrupole moment (field-independent basis, Debye-Ang):
   XX=           -135.3636   YY=            -63.8374   ZZ=           -170.6879
   XY=             77.5744   XZ=            -14.8213   YZ=             -3.2686

 Normal termination of Gaussian 16 at Tue Jul 19 19:37:59 2022.
