 Gaussian 16, Revision C.01,
 Gaussian 16:  ES64L-G16RevC.01  3-Jul-2019

 -------------------------------------------------------------------
 # B3LYP/6-31G* guess=read geom=check nosymm integral(ultrafinegrid)
 -------------------------------------------------------------------

 ------------------------------------------------------
 Candidate Structure: Conf:607 Charge calc in gas phase
 ------------------------------------------------------
 Structure from the checkpoint file:  "conf-607.chk"
 Charge =  1 Multiplicity = 1

                          Input orientation:
 ---------------------------------------------------------------------
 Center     Atomic      Atomic             Coordinates (Angstroms)
 Number     Number       Type             X           Y           Z
 ---------------------------------------------------------------------
      1          7           0       -0.577017    1.555791   -4.567945
      2          1           0        0.158142    1.249108   -3.883183
      3          1           0       -1.478590    1.203627   -4.206634
      4          1           0       -0.376460    1.015455   -5.432731
      5          6           0       -0.584239    3.026981   -4.770573
      6          1           0       -1.355065    3.277415   -5.505016
      7          1           0        0.388610    3.326248   -5.167711
      8          6           0       -0.913877    3.667711   -3.417623
      9          8           0       -1.728649    3.136370   -2.679188
     10          7           0       -0.255539    4.825922   -3.112869
     11          1           0        0.557900    5.055738   -3.668829
     12          6           0       -0.209019    5.218858   -1.718166
     13          1           0        0.276940    6.195834   -1.634148
     14          1           0       -1.229996    5.314150   -1.338332
     15          6           0        0.552195    4.149397   -0.899188
     16          8           0        1.142934    3.235583   -1.467061
     17          7           0        0.523651    4.286538    0.455461
     18          1           0       -0.080828    5.009763    0.828487
     19          6           0        0.741329    3.137214    1.345966
     20          1           0       -0.100113    2.439826    1.290663
     21          1           0        0.799427    3.523435    2.369011
     22          6           0        1.992398    2.295223    1.065627
     23          8           0        1.922034    1.072897    1.050360
     24          7           0        3.170858    2.957177    0.896049
     25          1           0        3.195876    3.965879    0.948490
     26          6           0        4.402875    2.202242    0.705317
     27          1           0        5.233424    2.910610    0.632727
     28          1           0        4.589615    1.537968    1.552856
     29          6           0        4.392488    1.309681   -0.545372
     30          8           0        5.008019    0.248038   -0.568327
     31          7           0        3.706943    1.799536   -1.619879
     32          1           0        2.993691    2.502807   -1.445225
     33          6           0        3.471050    0.937336   -2.771573
     34          1           0        4.381771    0.366755   -2.966856
     35          1           0        3.234937    1.551843   -3.642198
     36          6           0        2.286431    0.012600   -2.482713
     37          8           0        1.137648    0.251038   -2.893351
     38          7           0        2.552366   -1.039137   -1.687562
     39          1           0        3.483152   -1.077642   -1.276109
     40          6           0        1.479519   -1.764645   -1.014492
     41          1           0        1.926453   -2.628841   -0.517483
     42          1           0        1.027521   -1.122312   -0.248994
     43          6           0        0.427510   -2.300963   -1.993504
     44          8           0        0.686877   -3.158253   -2.834028
     45          7           0       -0.829769   -1.808032   -1.804487
     46          1           0       -0.922577   -0.939166   -1.296506
     47          6           0       -1.922569   -2.200641   -2.680093
     48          1           0       -1.958689   -3.292736   -2.720435
     49          1           0       -2.857579   -1.831527   -2.255785
     50          6           0       -1.811406   -1.620050   -4.102435
     51          8           0       -2.360750   -0.561406   -4.422940
     52          7           0       -1.101065   -2.384005   -4.970776
     53          1           0       -0.509259   -3.106498   -4.563992
     54          6           0       -1.025724   -2.093181   -6.390302
     55          1           0       -1.072766   -3.026531   -6.955105
     56          1           0       -1.885908   -1.468308   -6.644840
     57          6           0        0.236191   -1.330508   -6.788065
     58          8           0        0.477579   -0.164551   -6.514370
     59          8           0        1.076539   -2.087500   -7.496079
     60          1           0        1.857866   -1.546739   -7.725996
 ---------------------------------------------------------------------

 SCF Done:  E(RB3LYP) =  -1740.92830241     A.U. after    2 cycles

 Alpha  occ. eigenvalues --  -19.31693 -19.26760 -19.25090 -19.24606 -19.23380
 Alpha  occ. eigenvalues --  -19.22723 -19.22081 -19.21498 -19.21021 -14.53154
 Alpha  occ. eigenvalues --  -14.49310 -14.49081 -14.46945 -14.46919 -14.46204
 Alpha  occ. eigenvalues --  -14.46191 -14.45211 -10.44589 -10.42037 -10.42027
 Alpha  occ. eigenvalues --  -10.39711 -10.39677 -10.39596 -10.38741 -10.38284
 Alpha  occ. eigenvalues --  -10.37480 -10.35825 -10.34639 -10.34344 -10.32806
 Alpha  occ. eigenvalues --  -10.32771 -10.32689 -10.32345  -1.22920  -1.17575
 Alpha  occ. eigenvalues --   -1.16327  -1.14826  -1.14371  -1.14152  -1.13714
 Alpha  occ. eigenvalues --   -1.13065  -1.12701  -1.08776  -1.05354  -1.05134
 Alpha  occ. eigenvalues --   -1.03190  -1.03061  -1.02583  -1.02106  -1.01037
 Alpha  occ. eigenvalues --   -0.88902  -0.87361  -0.86545  -0.85411  -0.83459
 Alpha  occ. eigenvalues --   -0.81947  -0.80407  -0.78550  -0.73851  -0.72597
 Alpha  occ. eigenvalues --   -0.71302  -0.70535  -0.69487  -0.69224  -0.68923
 Alpha  occ. eigenvalues --   -0.67828  -0.67590  -0.66936  -0.65838  -0.64093
 Alpha  occ. eigenvalues --   -0.63601  -0.62982  -0.62861  -0.62065  -0.61636
 Alpha  occ. eigenvalues --   -0.60505  -0.60199  -0.59995  -0.59495  -0.58568
 Alpha  occ. eigenvalues --   -0.58139  -0.57714  -0.57231  -0.56752  -0.56245
 Alpha  occ. eigenvalues --   -0.55670  -0.55048  -0.54680  -0.54189  -0.53768
 Alpha  occ. eigenvalues --   -0.52913  -0.52737  -0.52419  -0.52197  -0.51672
 Alpha  occ. eigenvalues --   -0.51539  -0.51286  -0.50336  -0.50301  -0.50094
 Alpha  occ. eigenvalues --   -0.49748  -0.49021  -0.48735  -0.48414  -0.47895
 Alpha  occ. eigenvalues --   -0.47713  -0.47674  -0.46424  -0.45700  -0.43944
 Alpha  occ. eigenvalues --   -0.41296  -0.40085  -0.39275  -0.38675  -0.38508
 Alpha  occ. eigenvalues --   -0.38252  -0.37874  -0.37308  -0.37111  -0.36323
 Alpha  occ. eigenvalues --   -0.35904  -0.35124  -0.34651  -0.34007  -0.33861
 Alpha virt. eigenvalues --   -0.12038  -0.11898  -0.10764  -0.09510  -0.09381
 Alpha virt. eigenvalues --   -0.08734  -0.07779  -0.07065  -0.05409  -0.03711
 Alpha virt. eigenvalues --   -0.02924  -0.01885  -0.01148  -0.00513   0.00734

 Mulliken charges:
               1
     1  N   -0.796893
     2  H    0.434083
     3  H    0.427122
     4  H    0.430943
     5  C   -0.264599
     6  H    0.234144
     7  H    0.195080
     8  C    0.635865
     9  O   -0.493658
    10  N   -0.562803
    11  H    0.343849
    12  C   -0.261696
    13  H    0.203709
    14  H    0.220154
    15  C    0.621489
    16  O   -0.519445
    17  N   -0.603137
    18  H    0.350886
    19  C   -0.234403
    20  H    0.205726
    21  H    0.197690
    22  C    0.618201
    23  O   -0.507082
    24  N   -0.602025
    25  H    0.342635
    26  C   -0.214167
    27  H    0.192516
    28  H    0.214904
    29  C    0.607483
    30  O   -0.523317
    31  N   -0.595845
    32  H    0.386668
    33  C   -0.234609
    34  H    0.208757
    35  H    0.161694
    36  C    0.622713
    37  O   -0.576639
    38  N   -0.561125
    39  H    0.386125
    40  C   -0.231135
    41  H    0.204740
    42  H    0.198166
    43  C    0.620990
    44  O   -0.522446
    45  N   -0.566515
    46  H    0.347918
    47  C   -0.231947
    48  H    0.199810
    49  H    0.198105
    50  C    0.598471
    51  O   -0.551619
    52  N   -0.572092
    53  H    0.384941
    54  C   -0.216146
    55  H    0.209666
    56  H    0.216520
    57  C    0.601653
    58  O   -0.489325
    59  O   -0.520887
    60  H    0.430138
 Sum of Mulliken charges =   1.00000

 Dipole moment (field-independent basis, Debye):
    X=              2.5875    Y=             12.7755    Z=            -14.0949  Tot=             19.1983
 Quadrupole moment (field-independent basis, Debye-Ang):
   XX=           -177.2695   YY=           -105.1125   ZZ=            -82.5437
   XY=             23.6182   XZ=             -4.8608   YZ=             -3.3784

 Normal termination of Gaussian 16 at Tue Jul 19 19:38:12 2022.
