 Gaussian 16, Revision C.01,
 Gaussian 16:  ES64L-G16RevC.01  3-Jul-2019

 -------------------------------------------------------------------
 # B3LYP/6-31G* guess=read geom=check nosymm integral(ultrafinegrid)
 -------------------------------------------------------------------

 ------------------------------------------------------
 Candidate Structure: Conf:156 Charge calc in gas phase
 ------------------------------------------------------
 Structure from the checkpoint file:  "conf-156.chk"
 Charge =  1 Multiplicity = 1

                          Input orientation:
 ---------------------------------------------------------------------
 Center     Atomic      Atomic             Coordinates (Angstroms)
 Number     Number       Type             X           Y           Z
 ---------------------------------------------------------------------
      1          7           0       -4.529814    7.361316   -8.006740
      2          1           0       -4.976849    8.268883   -7.851121
      3          1           0       -4.464045    7.202536   -9.015787
      4          1           0       -5.107572    6.578435   -7.544153
      5          6           0       -3.220637    7.201195   -7.283558
      6          1           0       -2.976813    8.123078   -6.752832
      7          1           0       -2.428068    6.978373   -7.999929
      8          6           0       -3.487523    6.016595   -6.313884
      9          8           0       -4.621524    5.512611   -6.352492
     10          7           0       -2.488807    5.647945   -5.533696
     11          1           0       -1.563298    6.094138   -5.531477
     12          6           0       -2.550132    4.565266   -4.562793
     13          1           0       -3.335163    4.752888   -3.821938
     14          1           0       -2.774218    3.613344   -5.056840
     15          6           0       -1.153976    4.538380   -3.904739
     16          8           0       -0.297597    5.349042   -4.271546
     17          7           0       -0.976321    3.611338   -2.960964
     18          1           0       -1.703190    2.955891   -2.670696
     19          6           0        0.262587    3.438339   -2.227945
     20          1           0        0.537968    4.361629   -1.704215
     21          1           0        1.087440    3.190127   -2.906878
     22          6           0        0.016531    2.294282   -1.228422
     23          8           0       -1.076511    1.725843   -1.191830
     24          7           0        1.054801    1.986146   -0.436876
     25          1           0        1.946866    2.476162   -0.470853
     26          6           0        0.999420    0.948078    0.570659
     27          1           0        0.176537    1.129790    1.273065
     28          1           0        0.821306   -0.034186    0.114806
     29          6           0        2.350199    0.962661    1.301080
     30          8           0        3.240361    1.745959    0.967965
     31          7           0        2.475827    0.073105    2.302600
     32          1           0        1.727806   -0.556322    2.582748
     33          6           0        3.679790   -0.034561    3.095972
     34          1           0        3.914844    0.921924    3.581001
     35          1           0        4.541562   -0.292595    2.466475
     36          6           0        3.440410   -1.120250    4.150073
     37          8           0        2.342208   -1.668922    4.255088
     38          7           0        4.492651   -1.414754    4.945748
     39          1           0        5.396076   -1.006173    4.746588
     40          6           0        4.408754   -2.424039    6.000835
     41          1           0        5.153417   -2.195312    6.763913
     42          1           0        3.409059   -2.361416    6.440237
     43          6           0        4.687549   -3.857288    5.509831
     44          8           0        5.671326   -4.482392    5.890287
     45          7           0        3.771545   -4.358590    4.644350
     46          1           0        2.983751   -3.805444    4.313572
     47          6           0        3.940741   -5.673626    4.072319
     48          1           0        4.956369   -5.786938    3.670137
     49          1           0        3.825690   -6.455204    4.836577
     50          6           0        2.909280   -5.871543    2.960474
     51          8           0        2.148373   -4.976573    2.603089
     52          7           0        2.904717   -7.106540    2.400714
     53          1           0        3.514759   -7.848191    2.725477
     54          6           0        1.976509   -7.458193    1.351089
     55          1           0        0.937443   -7.288063    1.660424
     56          1           0        2.131890   -6.849691    0.450813
     57          6           0        2.164892   -8.920178    1.002714
     58          8           0        2.969364   -9.655560    1.532370
     59          8           0        1.324559   -9.304634    0.024949
     60          1           0        1.499528  -10.250179   -0.143557
 ---------------------------------------------------------------------

 SCF Done:  E(RB3LYP) =  -1740.89101951     A.U. after    3 cycles

 Alpha  occ. eigenvalues --  -19.28670 -19.25932 -19.22758 -19.20510 -19.20053
 Alpha  occ. eigenvalues --  -19.19265 -19.18959 -19.16888 -19.15386 -14.62099
 Alpha  occ. eigenvalues --  -14.50982 -14.46116 -14.43816 -14.43697 -14.42959
 Alpha  occ. eigenvalues --  -14.41471 -14.39715 -10.45479 -10.42578 -10.40004
 Alpha  occ. eigenvalues --  -10.38660 -10.37340 -10.36435 -10.36225 -10.35447
 Alpha  occ. eigenvalues --  -10.34213 -10.32773 -10.32070 -10.30430 -10.30262
 Alpha  occ. eigenvalues --  -10.29349 -10.28352 -10.27610  -1.21136  -1.17007
 Alpha  occ. eigenvalues --   -1.15720  -1.14700  -1.12087  -1.11412  -1.10572
 Alpha  occ. eigenvalues --   -1.09033  -1.08093  -1.07488  -1.07214  -1.02612
 Alpha  occ. eigenvalues --   -1.00329  -0.99626  -0.99289  -0.97961  -0.96069
 Alpha  occ. eigenvalues --   -0.92007  -0.86651  -0.84088  -0.82502  -0.81704
 Alpha  occ. eigenvalues --   -0.79473  -0.77083  -0.76027  -0.75881  -0.74768
 Alpha  occ. eigenvalues --   -0.73417  -0.69533  -0.68076  -0.67906  -0.67216
 Alpha  occ. eigenvalues --   -0.66274  -0.65399  -0.64822  -0.64616  -0.63001
 Alpha  occ. eigenvalues --   -0.62561  -0.62498  -0.60666  -0.59667  -0.59325
 Alpha  occ. eigenvalues --   -0.58716  -0.56826  -0.56597  -0.56415  -0.55344
 Alpha  occ. eigenvalues --   -0.54963  -0.54939  -0.54560  -0.54378  -0.54184
 Alpha  occ. eigenvalues --   -0.53654  -0.53273  -0.52934  -0.52467  -0.52131
 Alpha  occ. eigenvalues --   -0.51444  -0.50973  -0.50773  -0.49941  -0.49509
 Alpha  occ. eigenvalues --   -0.48013  -0.47798  -0.47279  -0.46921  -0.46255
 Alpha  occ. eigenvalues --   -0.45897  -0.45489  -0.45165  -0.44833  -0.44073
 Alpha  occ. eigenvalues --   -0.43769  -0.43628  -0.42476  -0.42397  -0.40919
 Alpha  occ. eigenvalues --   -0.39983  -0.38165  -0.37422  -0.36026  -0.34695
 Alpha  occ. eigenvalues --   -0.34522  -0.34346  -0.33878  -0.33537  -0.32667
 Alpha  occ. eigenvalues --   -0.32104  -0.31298  -0.31002  -0.29261  -0.28524
 Alpha virt. eigenvalues --   -0.13698  -0.13331  -0.08347  -0.07681  -0.06235
 Alpha virt. eigenvalues --   -0.05627  -0.05246  -0.05139  -0.04015  -0.02753
 Alpha virt. eigenvalues --   -0.02667  -0.01847  -0.01788   0.00263   0.01209

 Mulliken charges:
               1
     1  N   -0.750842
     2  H    0.423709
     3  H    0.423656
     4  H    0.441274
     5  C   -0.276936
     6  H    0.249816
     7  H    0.249807
     8  C    0.640445
     9  O   -0.524252
    10  N   -0.605129
    11  H    0.381805
    12  C   -0.212053
    13  H    0.216070
    14  H    0.216134
    15  C    0.620591
    16  O   -0.534777
    17  N   -0.621737
    18  H    0.369753
    19  C   -0.200562
    20  H    0.201740
    21  H    0.201999
    22  C    0.612820
    23  O   -0.532602
    24  N   -0.623655
    25  H    0.364240
    26  C   -0.195715
    27  H    0.198147
    28  H    0.200621
    29  C    0.609878
    30  O   -0.532914
    31  N   -0.623863
    32  H    0.368398
    33  C   -0.189730
    34  H    0.198949
    35  H    0.192963
    36  C    0.607264
    37  O   -0.529870
    38  N   -0.592492
    39  H    0.346057
    40  C   -0.237422
    41  H    0.188749
    42  H    0.200856
    43  C    0.592692
    44  O   -0.509456
    45  N   -0.616875
    46  H    0.382043
    47  C   -0.191550
    48  H    0.192540
    49  H    0.185831
    50  C    0.599305
    51  O   -0.525052
    52  N   -0.624722
    53  H    0.358466
    54  C   -0.171651
    55  H    0.208719
    56  H    0.202524
    57  C    0.566392
    58  O   -0.455340
    59  O   -0.559116
    60  H    0.424060
 Sum of Mulliken charges =   1.00000

 Dipole moment (field-independent basis, Debye):
    X=            -12.6224    Y=             25.6269    Z=            -28.9258  Tot=             40.6542
 Quadrupole moment (field-independent basis, Debye-Ang):
   XX=           -127.6143   YY=             63.9207   ZZ=             55.3466
   XY=           -112.9750   XZ=            123.1022   YZ=           -207.9754

 Normal termination of Gaussian 16 at Tue Jul 19 19:38:01 2022.
