 Gaussian 16, Revision C.01,
 Gaussian 16:  ES64L-G16RevC.01  3-Jul-2019

 -------------------------------------------------------------------
 # B3LYP/6-31G* guess=read geom=check nosymm integral(ultrafinegrid)
 -------------------------------------------------------------------

 ------------------------------------------------------
 Candidate Structure: Conf:962 Charge calc in gas phase
 ------------------------------------------------------
 Structure from the checkpoint file:  "conf-962.chk"
 Charge =  1 Multiplicity = 1

                          Input orientation:
 ---------------------------------------------------------------------
 Center     Atomic      Atomic             Coordinates (Angstroms)
 Number     Number       Type             X           Y           Z
 ---------------------------------------------------------------------
      1          7           0        1.008927    1.518446   -0.463534
      2          1           0        1.675897    1.414170    0.346223
      3          1           0        1.506620    1.625472   -1.358732
      4          1           0        0.427187    2.376063   -0.359825
      5          6           0        0.101818    0.343358   -0.613359
      6          1           0       -0.616624    0.351535    0.207432
      7          1           0        0.703313   -0.568411   -0.562866
      8          6           0       -0.543074    0.499528   -1.996429
      9          8           0        0.126579    1.019566   -2.892258
     10          7           0       -1.813203    0.075889   -2.136893
     11          1           0       -2.329324   -0.177057   -1.302817
     12          6           0       -2.620793    0.493622   -3.292688
     13          1           0       -2.006126    0.413936   -4.191391
     14          1           0       -3.485440   -0.163955   -3.377308
     15          6           0       -3.102996    1.930378   -3.019891
     16          8           0       -4.199042    2.164244   -2.540760
     17          7           0       -2.153878    2.892825   -3.272681
     18          1           0       -1.227859    2.564013   -3.526461
     19          6           0       -2.249091    4.178497   -2.628669
     20          1           0       -3.309103    4.358331   -2.416898
     21          1           0       -1.896862    4.973420   -3.296182
     22          6           0       -1.476404    4.215305   -1.299015
     23          8           0       -1.187455    3.186077   -0.676447
     24          7           0       -1.182849    5.451528   -0.833833
     25          1           0       -1.380779    6.253289   -1.417982
     26          6           0       -0.510196    5.670086    0.428756
     27          1           0       -0.818389    6.639202    0.831976
     28          1           0       -0.841937    4.894447    1.127816
     29          6           0        1.021469    5.571346    0.308181
     30          8           0        1.552582    4.830825   -0.524753
     31          7           0        1.719939    6.311840    1.199857
     32          1           0        1.218856    6.882607    1.867580
     33          6           0        3.184928    6.360928    1.231838
     34          1           0        3.483151    7.206333    1.851521
     35          1           0        3.553606    6.515605    0.212805
     36          6           0        3.807783    5.093432    1.843243
     37          8           0        4.228700    5.054732    2.994975
     38          7           0        3.850097    4.031668    0.991727
     39          1           0        3.317289    4.108849    0.129249
     40          6           0        4.349060    2.740310    1.436452
     41          1           0        4.568653    2.122992    0.563286
     42          1           0        5.276545    2.895540    1.994369
     43          6           0        3.323326    2.000044    2.301650
     44          8           0        2.507682    1.187243    1.803799
     45          7           0        3.333013    2.299299    3.602477
     46          1           0        3.968045    3.033276    3.904804
     47          6           0        2.403526    1.721493    4.574071
     48          1           0        2.310000    2.409287    5.413983
     49          1           0        1.429694    1.595098    4.090866
     50          6           0        2.910668    0.375829    5.131578
     51          8           0        3.290449    0.266390    6.284788
     52          7           0        2.878270   -0.648414    4.225603
     53          1           0        2.651399   -0.418296    3.264600
     54          6           0        3.512750   -1.916739    4.509331
     55          1           0        3.669500   -1.966978    5.591536
     56          1           0        2.867467   -2.756556    4.233108
     57          6           0        4.863086   -2.144543    3.839841
     58          8           0        5.411940   -3.218321    3.797654
     59          8           0        5.394710   -1.015145    3.305008
     60          1           0        6.267431   -1.281207    2.956127
 ---------------------------------------------------------------------

 SCF Done:  E(RB3LYP) =  -1740.91886415     A.U. after    2 cycles

 Alpha  occ. eigenvalues --  -19.27916 -19.26085 -19.26041 -19.25979 -19.25869
 Alpha  occ. eigenvalues --  -19.23861 -19.22172 -19.21600 -19.20308 -14.56033
 Alpha  occ. eigenvalues --  -14.50686 -14.50352 -14.50300 -14.49182 -14.48145
 Alpha  occ. eigenvalues --  -14.46477 -14.44752 -10.43455 -10.43106 -10.42699
 Alpha  occ. eigenvalues --  -10.42255 -10.40914 -10.40026 -10.39422 -10.38964
 Alpha  occ. eigenvalues --  -10.37772 -10.37068 -10.35540 -10.35383 -10.34665
 Alpha  occ. eigenvalues --  -10.34365 -10.33466 -10.31501  -1.18493  -1.18411
 Alpha  occ. eigenvalues --   -1.17958  -1.17071  -1.16934  -1.15457  -1.14123
 Alpha  occ. eigenvalues --   -1.12290  -1.11152  -1.09450  -1.06369  -1.06239
 Alpha  occ. eigenvalues --   -1.06194  -1.05233  -1.04229  -1.03053  -1.01104
 Alpha  occ. eigenvalues --   -0.90184  -0.89157  -0.87870  -0.85882  -0.84273
 Alpha  occ. eigenvalues --   -0.82857  -0.81008  -0.80151  -0.73868  -0.73094
 Alpha  occ. eigenvalues --   -0.72640  -0.72249  -0.71095  -0.70310  -0.70058
 Alpha  occ. eigenvalues --   -0.69636  -0.69066  -0.67518  -0.67416  -0.65878
 Alpha  occ. eigenvalues --   -0.65392  -0.64757  -0.63578  -0.62654  -0.62040
 Alpha  occ. eigenvalues --   -0.61805  -0.61277  -0.60852  -0.59636  -0.59554
 Alpha  occ. eigenvalues --   -0.59152  -0.57754  -0.57593  -0.57524  -0.56759
 Alpha  occ. eigenvalues --   -0.56186  -0.55680  -0.55258  -0.54599  -0.54371
 Alpha  occ. eigenvalues --   -0.54131  -0.53920  -0.53630  -0.53454  -0.53003
 Alpha  occ. eigenvalues --   -0.52224  -0.51371  -0.50943  -0.50859  -0.50549
 Alpha  occ. eigenvalues --   -0.50213  -0.50005  -0.49780  -0.49330  -0.48631
 Alpha  occ. eigenvalues --   -0.48084  -0.47951  -0.46857  -0.46087  -0.41980
 Alpha  occ. eigenvalues --   -0.41401  -0.41039  -0.40711  -0.40241  -0.40003
 Alpha  occ. eigenvalues --   -0.39727  -0.39575  -0.38726  -0.37235  -0.37009
 Alpha  occ. eigenvalues --   -0.36558  -0.36537  -0.35129  -0.33638  -0.33272
 Alpha virt. eigenvalues --   -0.13010  -0.12405  -0.12121  -0.11212  -0.10379
 Alpha virt. eigenvalues --   -0.08175  -0.07037  -0.06588  -0.06358  -0.05032
 Alpha virt. eigenvalues --   -0.04589  -0.04073  -0.01143  -0.00869  -0.00624

 Mulliken charges:
               1
     1  N   -0.794138
     2  H    0.437460
     3  H    0.402291
     4  H    0.436744
     5  C   -0.263526
     6  H    0.216830
     7  H    0.235879
     8  C    0.652004
     9  O   -0.534079
    10  N   -0.572046
    11  H    0.358868
    12  C   -0.251240
    13  H    0.213215
    14  H    0.211849
    15  C    0.588092
    16  O   -0.477787
    17  N   -0.571065
    18  H    0.361921
    19  C   -0.253060
    20  H    0.241105
    21  H    0.184234
    22  C    0.636024
    23  O   -0.569092
    24  N   -0.564334
    25  H    0.358237
    26  C   -0.249059
    27  H    0.187707
    28  H    0.219397
    29  C    0.626521
    30  O   -0.543378
    31  N   -0.582338
    32  H    0.358746
    33  C   -0.239783
    34  H    0.210900
    35  H    0.206408
    36  C    0.596994
    37  O   -0.503903
    38  N   -0.586856
    39  H    0.369083
    40  C   -0.236768
    41  H    0.186221
    42  H    0.213504
    43  C    0.624038
    44  O   -0.599411
    45  N   -0.545439
    46  H    0.387627
    47  C   -0.251090
    48  H    0.207563
    49  H    0.183180
    50  C    0.600975
    51  O   -0.475585
    52  N   -0.589316
    53  H    0.350905
    54  C   -0.236622
    55  H    0.242596
    56  H    0.197558
    57  C    0.576321
    58  O   -0.435837
    59  O   -0.573309
    60  H    0.418062
 Sum of Mulliken charges =   1.00000

 Dipole moment (field-independent basis, Debye):
    X=              3.0633    Y=             17.4490    Z=             -2.1582  Tot=             17.8468
 Quadrupole moment (field-independent basis, Debye-Ang):
   XX=           -173.0847   YY=            -81.9548   ZZ=           -194.2663
   XY=             19.2743   XZ=             -2.8945   YZ=              9.3919

 Normal termination of Gaussian 16 at Tue Jul 19 19:46:17 2022.
