 Gaussian 16, Revision C.01,
 Gaussian 16:  ES64L-G16RevC.01  3-Jul-2019

 -------------------------------------------------------------------
 # B3LYP/6-31G* guess=read geom=check nosymm integral(ultrafinegrid)
 -------------------------------------------------------------------

 -----------------------------------------------------
 Candidate Structure: Conf:90 Charge calc in gas phase
 -----------------------------------------------------
 Structure from the checkpoint file:  "conf-90.chk"
 Charge =  1 Multiplicity = 1

                          Input orientation:
 ---------------------------------------------------------------------
 Center     Atomic      Atomic             Coordinates (Angstroms)
 Number     Number       Type             X           Y           Z
 ---------------------------------------------------------------------
      1          7           0       -1.645185   11.236133    3.070894
      2          1           0       -2.174660   12.062968    3.360227
      3          1           0       -0.861993   11.539324    2.485104
      4          1           0       -2.272424   10.570026    2.514316
      5          6           0       -1.222791   10.352868    4.212890
      6          1           0       -1.532600   10.796388    5.160860
      7          1           0       -0.139044   10.226091    4.194226
      8          6           0       -1.919563    9.004524    3.911807
      9          8           0       -2.612929    8.947012    2.893820
     10          7           0       -1.732510    8.009426    4.793387
     11          1           0       -1.015882    8.171753    5.492880
     12          6           0       -1.788013    6.637760    4.297916
     13          1           0       -1.834738    5.951557    5.147159
     14          1           0       -2.698347    6.515189    3.706683
     15          6           0       -0.534122    6.395725    3.414729
     16          8           0        0.180142    7.345628    3.087839
     17          7           0       -0.329683    5.122351    3.059295
     18          1           0       -0.935290    4.353258    3.348345
     19          6           0        0.759627    4.687143    2.208239
     20          1           0        1.729355    4.937115    2.655649
     21          1           0        0.714604    5.182547    1.230616
     22          6           0        0.608017    3.163109    2.053809
     23          8           0       -0.319336    2.571609    2.610174
     24          7           0        1.536502    2.565903    1.292308
     25          1           0        2.296578    3.069801    0.838392
     26          6           0        1.553647    1.141794    1.033571
     27          1           0        1.638124    0.574523    1.968972
     28          1           0        0.624460    0.820931    0.546176
     29          6           0        2.762949    0.869530    0.124933
     30          8           0        3.495924    1.790923   -0.239098
     31          7           0        2.943051   -0.415324   -0.224203
     32          1           0        2.330405   -1.167533    0.083926
     33          6           0        4.028810   -0.855796   -1.072349
     34          1           0        5.000293   -0.602628   -0.628919
     35          1           0        3.986622   -0.362209   -2.051708
     36          6           0        3.889290   -2.377060   -1.230289
     37          8           0        2.971949   -2.988577   -0.681509
     38          7           0        4.826258   -2.965540   -1.996034
     39          1           0        5.580602   -2.451798   -2.445074
     40          6           0        4.845939   -4.388708   -2.250385
     41          1           0        4.927766   -4.953654   -1.312802
     42          1           0        3.916795   -4.713238   -2.736486
     43          6           0        6.052037   -4.673979   -3.155090
     44          8           0        6.795239   -3.767158   -3.530297
     45          7           0        6.225095   -5.966031   -3.495612
     46          1           0        5.607566   -6.709889   -3.181302
     47          6           0        7.311889   -6.405837   -4.340494
     48          1           0        7.271217   -5.912801   -5.320690
     49          1           0        8.282611   -6.148323   -3.896812
     50          6           0        7.184079   -7.925085   -4.501241
     51          8           0        6.275724   -8.552790   -3.961027
     52          7           0        8.130670   -8.508491   -5.269073
     53          1           0        8.874225   -7.976835   -5.708343
     54          6           0        8.141162   -9.934353   -5.512420
     55          1           0        8.221721  -10.501892   -4.576909
     56          1           0        7.214439  -10.267029   -5.996434
     57          6           0        9.321484  -10.262044   -6.404163
     58          8           0       10.108503   -9.442626   -6.827050
     59          8           0        9.386657  -11.577516   -6.668038
     60          1           0       10.163654  -11.717100   -7.242440
 ---------------------------------------------------------------------

 SCF Done:  E(RB3LYP) =  -1740.89274623     A.U. after    2 cycles

 Alpha  occ. eigenvalues --  -19.28687 -19.25935 -19.21929 -19.20570 -19.19683
 Alpha  occ. eigenvalues --  -19.18335 -19.17716 -19.17576 -19.17359 -14.61970
 Alpha  occ. eigenvalues --  -14.50971 -14.45579 -14.43416 -14.42194 -14.42115
 Alpha  occ. eigenvalues --  -14.41563 -14.41450 -10.45423 -10.42139 -10.39206
 Alpha  occ. eigenvalues --  -10.38737 -10.36970 -10.35605 -10.35037 -10.35002
 Alpha  occ. eigenvalues --  -10.34854 -10.34629 -10.31745 -10.29980 -10.29514
 Alpha  occ. eigenvalues --  -10.29074 -10.28777 -10.28636  -1.21224  -1.17054
 Alpha  occ. eigenvalues --   -1.15649  -1.13747  -1.11651  -1.10346  -1.10000
 Alpha  occ. eigenvalues --   -1.09503  -1.08855  -1.08178  -1.07529  -1.01992
 Alpha  occ. eigenvalues --   -0.99907  -0.98708  -0.98631  -0.98107  -0.97738
 Alpha  occ. eigenvalues --   -0.91658  -0.85960  -0.83476  -0.82810  -0.81385
 Alpha  occ. eigenvalues --   -0.79506  -0.77210  -0.75852  -0.75626  -0.74519
 Alpha  occ. eigenvalues --   -0.73086  -0.69122  -0.68140  -0.67637  -0.66742
 Alpha  occ. eigenvalues --   -0.65765  -0.65230  -0.64545  -0.64320  -0.63837
 Alpha  occ. eigenvalues --   -0.63458  -0.62122  -0.60914  -0.59624  -0.58910
 Alpha  occ. eigenvalues --   -0.57065  -0.56578  -0.55885  -0.55071  -0.55041
 Alpha  occ. eigenvalues --   -0.54917  -0.54812  -0.54104  -0.54003  -0.53742
 Alpha  occ. eigenvalues --   -0.53392  -0.53174  -0.52929  -0.52383  -0.52166
 Alpha  occ. eigenvalues --   -0.51946  -0.50984  -0.50931  -0.50583  -0.49911
 Alpha  occ. eigenvalues --   -0.48846  -0.47514  -0.47276  -0.47172  -0.46017
 Alpha  occ. eigenvalues --   -0.45599  -0.45185  -0.45077  -0.44805  -0.44164
 Alpha  occ. eigenvalues --   -0.43926  -0.43600  -0.42711  -0.41548  -0.41078
 Alpha  occ. eigenvalues --   -0.40490  -0.38182  -0.36346  -0.35582  -0.34630
 Alpha  occ. eigenvalues --   -0.34212  -0.33386  -0.32917  -0.32441  -0.32423
 Alpha  occ. eigenvalues --   -0.31967  -0.31727  -0.31120  -0.30843  -0.30176
 Alpha virt. eigenvalues --   -0.13905  -0.12953  -0.07923  -0.07448  -0.06859
 Alpha virt. eigenvalues --   -0.05219  -0.05196  -0.03962  -0.03550  -0.02978
 Alpha virt. eigenvalues --   -0.02959  -0.02133  -0.01744  -0.00746   0.01344

 Mulliken charges:
               1
     1  N   -0.749552
     2  H    0.422977
     3  H    0.427796
     4  H    0.441638
     5  C   -0.283379
     6  H    0.244081
     7  H    0.261581
     8  C    0.645196
     9  O   -0.506756
    10  N   -0.544830
    11  H    0.354384
    12  C   -0.277870
    13  H    0.206235
    14  H    0.235577
    15  C    0.626059
    16  O   -0.544908
    17  N   -0.613098
    18  H    0.368467
    19  C   -0.198220
    20  H    0.197083
    21  H    0.197081
    22  C    0.611437
    23  O   -0.532784
    24  N   -0.622866
    25  H    0.362846
    26  C   -0.195403
    27  H    0.196845
    28  H    0.196995
    29  C    0.608859
    30  O   -0.535354
    31  N   -0.623348
    32  H    0.362873
    33  C   -0.192929
    34  H    0.194136
    35  H    0.193981
    36  C    0.607761
    37  O   -0.532626
    38  N   -0.624162
    39  H    0.361266
    40  C   -0.191580
    41  H    0.194212
    42  H    0.194177
    43  C    0.607132
    44  O   -0.531992
    45  N   -0.624742
    46  H    0.361895
    47  C   -0.191142
    48  H    0.194210
    49  H    0.194292
    50  C    0.608168
    51  O   -0.524430
    52  N   -0.626625
    53  H    0.359707
    54  C   -0.175845
    55  H    0.211902
    56  H    0.211894
    57  C    0.568123
    58  O   -0.457235
    59  O   -0.555093
    60  H    0.425903
 Sum of Mulliken charges =   1.00000

 Dipole moment (field-independent basis, Debye):
    X=              1.8674    Y=             34.5421    Z=             11.2340  Tot=             36.3710
 Quadrupole moment (field-independent basis, Debye-Ang):
   XX=           -121.4022   YY=            356.5677   ZZ=            -85.6110
   XY=           -140.1374   XZ=            -61.2135   YZ=            216.7246

 Normal termination of Gaussian 16 at Tue Jul 19 19:37:49 2022.
