 Gaussian 16, Revision C.01,
 Gaussian 16:  ES64L-G16RevC.01  3-Jul-2019

 -------------------------------------------------------------------
 # B3LYP/6-31G* guess=read geom=check nosymm integral(ultrafinegrid)
 -------------------------------------------------------------------

 -----------------------------------------------------
 Candidate Structure: Conf:34 Charge calc in gas phase
 -----------------------------------------------------
 Structure from the checkpoint file:  "conf-34.chk"
 Charge =  1 Multiplicity = 1

                          Input orientation:
 ---------------------------------------------------------------------
 Center     Atomic      Atomic             Coordinates (Angstroms)
 Number     Number       Type             X           Y           Z
 ---------------------------------------------------------------------
      1          7           0       -3.910730    0.984266    3.027211
      2          1           0       -2.978283    1.119707    2.536769
      3          1           0       -4.059347    0.007026    3.288910
      4          1           0       -4.631459    1.309910    2.357785
      5          6           0       -3.981114    1.933888    4.184124
      6          1           0       -3.059463    1.851452    4.762021
      7          1           0       -4.838533    1.670350    4.809231
      8          6           0       -4.178813    3.304961    3.508051
      9          8           0       -4.761659    3.325870    2.427484
     10          7           0       -3.639013    4.386488    4.102788
     11          1           0       -3.180170    4.294499    4.999877
     12          6           0       -3.505961    5.636232    3.346233
     13          1           0       -4.478316    5.957076    2.970234
     14          1           0       -3.121447    6.405639    4.020492
     15          6           0       -2.579685    5.486631    2.115570
     16          8           0       -2.751179    6.166680    1.121989
     17          7           0       -1.569284    4.573237    2.266176
     18          1           0       -1.594660    3.973285    3.077787
     19          6           0       -0.864502    4.011167    1.138226
     20          1           0        0.215649    4.192917    1.207836
     21          1           0       -1.211410    4.503266    0.225540
     22          6           0       -1.084676    2.493477    1.071893
     23          8           0       -1.615048    1.884861    2.031083
     24          7           0       -0.647100    1.905035   -0.043300
     25          1           0       -0.152398    2.504759   -0.722943
     26          6           0       -0.529464    0.470999   -0.191740
     27          1           0       -1.237604   -0.014702    0.484997
     28          1           0       -0.794520    0.189151   -1.216668
     29          6           0        0.897233   -0.003764    0.153209
     30          8           0        1.666180    0.690618    0.803768
     31          7           0        1.219610   -1.260245   -0.279596
     32          1           0        0.684700   -1.637171   -1.051920
     33          6           0        2.617729   -1.668004   -0.220346
     34          1           0        2.686577   -2.711444   -0.541442
     35          1           0        2.964910   -1.602451    0.813521
     36          6           0        3.456670   -0.786950   -1.162047
     37          8           0        2.989852   -0.432927   -2.246654
     38          7           0        4.691939   -0.435223   -0.730143
     39          1           0        4.919692   -0.589241    0.243882
     40          6           0        5.500605    0.558385   -1.446942
     41          1           0        6.538065    0.471001   -1.123992
     42          1           0        5.428799    0.348371   -2.516784
     43          6           0        4.992449    1.972528   -1.103553
     44          8           0        5.554246    2.693831   -0.296472
     45          7           0        3.811972    2.295743   -1.733418
     46          1           0        3.353179    1.516769   -2.204412
     47          6           0        2.935856    3.291982   -1.129602
     48          1           0        2.436111    2.895159   -0.238600
     49          1           0        3.550918    4.143903   -0.822300
     50          6           0        1.855556    3.744306   -2.106089
     51          8           0        0.647387    3.708818   -1.815330
     52          7           0        2.286815    4.191998   -3.296054
     53          1           0        3.274122    4.165170   -3.533697
     54          6           0        1.387841    4.652184   -4.333211
     55          1           0        0.636123    3.891450   -4.575725
     56          1           0        0.836215    5.546651   -4.019093
     57          6           0        2.206173    4.971616   -5.570125
     58          8           0        3.408398    4.843181   -5.642456
     59          8           0        1.426062    5.413962   -6.568448
     60          1           0        2.007828    5.605468   -7.329085
 ---------------------------------------------------------------------

 SCF Done:  E(RB3LYP) =  -1740.90392898     A.U. after    1 cycles

 Alpha  occ. eigenvalues --  -19.28137 -19.26716 -19.25059 -19.22787 -19.22501
 Alpha  occ. eigenvalues --  -19.21615 -19.21391 -19.20973 -19.19274 -14.59030
 Alpha  occ. eigenvalues --  -14.50949 -14.47043 -14.46596 -14.46228 -14.45742
 Alpha  occ. eigenvalues --  -14.45345 -14.43170 -10.44157 -10.41259 -10.41022
 Alpha  occ. eigenvalues --  -10.40697 -10.39491 -10.38679 -10.38618 -10.38355
 Alpha  occ. eigenvalues --  -10.36287 -10.34348 -10.34326 -10.33064 -10.32808
 Alpha  occ. eigenvalues --  -10.32255 -10.31140 -10.30613  -1.19373  -1.19277
 Alpha  occ. eigenvalues --   -1.15924  -1.14534  -1.13520  -1.13169  -1.12956
 Alpha  occ. eigenvalues --   -1.12885  -1.10974  -1.10476  -1.06895  -1.03943
 Alpha  occ. eigenvalues --   -1.02657  -1.02107  -1.01944  -1.01809  -0.99458
 Alpha  occ. eigenvalues --   -0.90213  -0.87407  -0.85565  -0.84770  -0.83514
 Alpha  occ. eigenvalues --   -0.81334  -0.79475  -0.77645  -0.74466  -0.73632
 Alpha  occ. eigenvalues --   -0.72863  -0.70822  -0.70068  -0.69100  -0.68373
 Alpha  occ. eigenvalues --   -0.67976  -0.67566  -0.66524  -0.65593  -0.65334
 Alpha  occ. eigenvalues --   -0.63396  -0.62888  -0.62324  -0.61140  -0.60927
 Alpha  occ. eigenvalues --   -0.59961  -0.59166  -0.58784  -0.58559  -0.57355
 Alpha  occ. eigenvalues --   -0.57270  -0.57125  -0.56549  -0.56009  -0.55140
 Alpha  occ. eigenvalues --   -0.54932  -0.54707  -0.54653  -0.54194  -0.53527
 Alpha  occ. eigenvalues --   -0.53239  -0.53052  -0.52265  -0.51582  -0.51083
 Alpha  occ. eigenvalues --   -0.50609  -0.50233  -0.50163  -0.49466  -0.49032
 Alpha  occ. eigenvalues --   -0.48510  -0.48051  -0.47305  -0.47258  -0.47153
 Alpha  occ. eigenvalues --   -0.45999  -0.45896  -0.45703  -0.44155  -0.41342
 Alpha  occ. eigenvalues --   -0.40726  -0.40379  -0.39528  -0.38211  -0.37448
 Alpha  occ. eigenvalues --   -0.36958  -0.36781  -0.36068  -0.35469  -0.35358
 Alpha  occ. eigenvalues --   -0.35121  -0.34739  -0.34461  -0.33525  -0.31730
 Alpha virt. eigenvalues --   -0.13462  -0.10058  -0.09423  -0.08817  -0.08100
 Alpha virt. eigenvalues --   -0.07785  -0.07673  -0.07085  -0.06085  -0.05382
 Alpha virt. eigenvalues --   -0.03346  -0.02048  -0.01718  -0.01172  -0.00544

 Mulliken charges:
               1
     1  N   -0.755091
     2  H    0.452600
     3  H    0.405486
     4  H    0.419651
     5  C   -0.278674
     6  H    0.223494
     7  H    0.241661
     8  C    0.640620
     9  O   -0.494888
    10  N   -0.608020
    11  H    0.354741
    12  C   -0.236695
    13  H    0.233780
    14  H    0.207346
    15  C    0.596425
    16  O   -0.472929
    17  N   -0.573806
    18  H    0.318763
    19  C   -0.238442
    20  H    0.209913
    21  H    0.239641
    22  C    0.619871
    23  O   -0.617884
    24  N   -0.582409
    25  H    0.421607
    26  C   -0.252508
    27  H    0.184746
    28  H    0.189244
    29  C    0.609973
    30  O   -0.501261
    31  N   -0.564263
    32  H    0.344930
    33  C   -0.240795
    34  H    0.200312
    35  H    0.189693
    36  C    0.625887
    37  O   -0.541790
    38  N   -0.573352
    39  H    0.351802
    40  C   -0.245673
    41  H    0.197796
    42  H    0.204144
    43  C    0.591551
    44  O   -0.485423
    45  N   -0.623371
    46  H    0.369799
    47  C   -0.220968
    48  H    0.190944
    49  H    0.211775
    50  C    0.590972
    51  O   -0.565305
    52  N   -0.579182
    53  H    0.375006
    54  C   -0.182895
    55  H    0.208436
    56  H    0.215676
    57  C    0.570867
    58  O   -0.449687
    59  O   -0.554027
    60  H    0.430186
 Sum of Mulliken charges =   1.00000

 Dipole moment (field-independent basis, Debye):
    X=             -8.7977    Y=              3.7416    Z=              9.2984  Tot=             13.3364
 Quadrupole moment (field-independent basis, Debye-Ang):
   XX=           -138.7948   YY=           -157.0897   ZZ=            -91.3733
   XY=            -16.7441   XZ=            -64.3724   YZ=             10.4900

 Normal termination of Gaussian 16 at Tue Jul 19 19:37:49 2022.
