 Gaussian 16, Revision C.01,
 Gaussian 16:  ES64L-G16RevC.01  3-Jul-2019

 -------------------------------------------------------------------
 # B3LYP/6-31G* guess=read geom=check nosymm integral(ultrafinegrid)
 -------------------------------------------------------------------

 ------------------------------------------------------
 Candidate Structure: Conf:231 Charge calc in gas phase
 ------------------------------------------------------
 Structure from the checkpoint file:  "conf-231.chk"
 Charge =  1 Multiplicity = 1

                          Input orientation:
 ---------------------------------------------------------------------
 Center     Atomic      Atomic             Coordinates (Angstroms)
 Number     Number       Type             X           Y           Z
 ---------------------------------------------------------------------
      1          7           0       -8.063320    5.706749   -4.430823
      2          1           0       -8.112281    6.727668   -4.376318
      3          1           0       -8.798245    5.381393   -5.064551
      4          1           0       -8.197362    5.275281   -3.452067
      5          6           0       -6.694888    5.185435   -4.774224
      6          1           0       -6.013523    6.020522   -4.945481
      7          1           0       -6.748461    4.574145   -5.676686
      8          6           0       -6.302973    4.352683   -3.522040
      9          8           0       -7.137248    4.307037   -2.603363
     10          7           0       -5.120704    3.767159   -3.541995
     11          1           0       -4.456326    3.834024   -4.323321
     12          6           0       -4.576935    2.953889   -2.464221
     13          1           0       -4.514732    3.532030   -1.535737
     14          1           0       -5.213667    2.082291   -2.276217
     15          6           0       -3.176236    2.527472   -2.954327
     16          8           0       -2.789505    2.894626   -4.068567
     17          7           0       -2.472538    1.772333   -2.108993
     18          1           0       -2.809433    1.494765   -1.185701
     19          6           0       -1.132279    1.291541   -2.382799
     20          1           0       -0.457296    2.126433   -2.605517
     21          1           0       -1.125238    0.624708   -3.253617
     22          6           0       -0.678912    0.539734   -1.117922
     23          8           0       -1.442372    0.429137   -0.156480
     24          7           0        0.563600    0.037514   -1.161113
     25          1           0        1.194208    0.181008   -1.948226
     26          6           0        1.180187   -0.654297   -0.048129
     27          1           0        1.118737   -0.053783    0.867340
     28          1           0        0.670351   -1.603715    0.159125
     29          6           0        2.646415   -0.902896   -0.437998
     30          8           0        3.067789   -0.560930   -1.543203
     31          7           0        3.395410   -1.510988    0.504140
     32          1           0        3.006007   -1.702197    1.428382
     33          6           0        4.842850   -1.681569    0.340403
     34          1           0        5.244845   -0.846743   -0.234609
     35          1           0        5.068605   -2.615211   -0.192515
     36          6           0        5.441172   -1.673636    1.747471
     37          8           0        5.956028   -0.686005    2.242806
     38          7           0        5.254734   -2.856750    2.432332
     39          1           0        4.704917   -3.576053    1.971662
     40          6           0        5.089454   -2.805542    3.867370
     41          1           0        5.541276   -3.679930    4.349601
     42          1           0        5.608790   -1.909637    4.223360
     43          6           0        3.589945   -2.706724    4.194353
     44          8           0        2.782036   -2.204562    3.414394
     45          7           0        3.183439   -3.266229    5.367618
     46          1           0        3.870283   -3.612709    6.023396
     47          6           0        1.765834   -3.313443    5.705446
     48          1           0        1.664246   -3.714752    6.717996
     49          1           0        1.323746   -2.314849    5.682906
     50          6           0        0.937826   -4.172801    4.730143
     51          8           0       -0.242019   -3.941252    4.529608
     52          7           0        1.617278   -5.223773    4.166564
     53          1           0        2.624360   -5.212529    4.260807
     54          6           0        1.115511   -5.876169    2.981771
     55          1           0        0.952548   -6.951842    3.132978
     56          1           0        0.143883   -5.438878    2.730183
     57          6           0        2.086190   -5.705114    1.824301
     58          8           0        3.181576   -5.182749    1.903485
     59          8           0        1.601446   -6.238154    0.691833
     60          1           0        2.282702   -6.128046    0.001203
 ---------------------------------------------------------------------

 SCF Done:  E(RB3LYP) =  -1740.88585672     A.U. after    2 cycles

 Alpha  occ. eigenvalues --  -19.28422 -19.27799 -19.22701 -19.22404 -19.19893
 Alpha  occ. eigenvalues --  -19.19489 -19.18158 -19.17591 -19.17351 -14.61858
 Alpha  occ. eigenvalues --  -14.50702 -14.45715 -14.44657 -14.43185 -14.42306
 Alpha  occ. eigenvalues --  -14.42046 -14.41562 -10.45218 -10.42337 -10.40564
 Alpha  occ. eigenvalues --  -10.39642 -10.36772 -10.36695 -10.35342 -10.35130
 Alpha  occ. eigenvalues --  -10.35108 -10.34508 -10.31601 -10.30392 -10.29977
 Alpha  occ. eigenvalues --  -10.29658 -10.29639 -10.28387  -1.20887  -1.18930
 Alpha  occ. eigenvalues --   -1.15465  -1.14344  -1.11833  -1.11482  -1.10075
 Alpha  occ. eigenvalues --   -1.10000  -1.09498  -1.09115  -1.07210  -1.02211
 Alpha  occ. eigenvalues --   -1.00655  -0.99680  -0.98824  -0.98618  -0.97664
 Alpha  occ. eigenvalues --   -0.91750  -0.86285  -0.83755  -0.83068  -0.81491
 Alpha  occ. eigenvalues --   -0.79836  -0.77524  -0.75801  -0.75640  -0.74877
 Alpha  occ. eigenvalues --   -0.73107  -0.69760  -0.69089  -0.67726  -0.67177
 Alpha  occ. eigenvalues --   -0.66342  -0.64822  -0.64658  -0.64607  -0.64226
 Alpha  occ. eigenvalues --   -0.62268  -0.62239  -0.60944  -0.59666  -0.59017
 Alpha  occ. eigenvalues --   -0.58928  -0.58326  -0.57376  -0.56200  -0.56167
 Alpha  occ. eigenvalues --   -0.56069  -0.55819  -0.55249  -0.54349  -0.54099
 Alpha  occ. eigenvalues --   -0.53594  -0.53207  -0.53006  -0.52599  -0.52252
 Alpha  occ. eigenvalues --   -0.51449  -0.51006  -0.50740  -0.49749  -0.49544
 Alpha  occ. eigenvalues --   -0.48986  -0.48269  -0.47681  -0.47296  -0.47016
 Alpha  occ. eigenvalues --   -0.46454  -0.45741  -0.45520  -0.45340  -0.44320
 Alpha  occ. eigenvalues --   -0.43697  -0.43527  -0.42729  -0.42128  -0.41967
 Alpha  occ. eigenvalues --   -0.40647  -0.40186  -0.37071  -0.36527  -0.35626
 Alpha  occ. eigenvalues --   -0.35056  -0.34234  -0.34013  -0.33295  -0.32367
 Alpha  occ. eigenvalues --   -0.32270  -0.32130  -0.31553  -0.30871  -0.29965
 Alpha virt. eigenvalues --   -0.13445  -0.13116  -0.08047  -0.07395  -0.07175
 Alpha virt. eigenvalues --   -0.06115  -0.05987  -0.05058  -0.04296  -0.03885
 Alpha virt. eigenvalues --   -0.02565  -0.02504  -0.01598  -0.00046   0.00189

 Mulliken charges:
               1
     1  N   -0.751037
     2  H    0.423340
     3  H    0.423220
     4  H    0.441185
     5  C   -0.276914
     6  H    0.249607
     7  H    0.249523
     8  C    0.640429
     9  O   -0.524846
    10  N   -0.604947
    11  H    0.381771
    12  C   -0.212276
    13  H    0.215988
    14  H    0.216074
    15  C    0.620382
    16  O   -0.535705
    17  N   -0.621308
    18  H    0.369977
    19  C   -0.201125
    20  H    0.201678
    21  H    0.200843
    22  C    0.611399
    23  O   -0.531777
    24  N   -0.623720
    25  H    0.363764
    26  C   -0.196993
    27  H    0.205014
    28  H    0.194077
    29  C    0.601692
    30  O   -0.530142
    31  N   -0.652943
    32  H    0.392876
    33  C   -0.189338
    34  H    0.209582
    35  H    0.166546
    36  C    0.543115
    37  O   -0.476082
    38  N   -0.574851
    39  H    0.368225
    40  C   -0.255765
    41  H    0.166044
    42  H    0.229621
    43  C    0.616030
    44  O   -0.516340
    45  N   -0.618169
    46  H    0.346083
    47  C   -0.219168
    48  H    0.189680
    49  H    0.213672
    50  C    0.598959
    51  O   -0.493943
    52  N   -0.573089
    53  H    0.334559
    54  C   -0.217288
    55  H    0.202933
    56  H    0.231343
    57  C    0.580194
    58  O   -0.480004
    59  O   -0.544469
    60  H    0.422815
 Sum of Mulliken charges =   1.00000

 Dipole moment (field-independent basis, Debye):
    X=            -24.4466    Y=             12.7782    Z=            -13.3383  Tot=             30.6404
 Quadrupole moment (field-independent basis, Debye-Ang):
   XX=             32.1545   YY=            -17.6936   ZZ=            -67.8722
   XY=           -201.4044   XZ=            169.3854   YZ=           -126.1466

 Normal termination of Gaussian 16 at Tue Jul 19 19:37:59 2022.
