 Gaussian 16, Revision C.01,
 Gaussian 16:  ES64L-G16RevC.01  3-Jul-2019

 -------------------------------------------------------------------
 # B3LYP/6-31G* guess=read geom=check nosymm integral(ultrafinegrid)
 -------------------------------------------------------------------

 ------------------------------------------------------
 Candidate Structure: Conf:222 Charge calc in gas phase
 ------------------------------------------------------
 Structure from the checkpoint file:  "conf-222.chk"
 Charge =  1 Multiplicity = 1

                          Input orientation:
 ---------------------------------------------------------------------
 Center     Atomic      Atomic             Coordinates (Angstroms)
 Number     Number       Type             X           Y           Z
 ---------------------------------------------------------------------
      1          7           0        7.215529    3.323201   -0.794830
      2          1           0        7.353531    2.282515   -1.032615
      3          1           0        6.914237    3.800930   -1.665910
      4          1           0        8.087680    3.717230   -0.436434
      5          6           0        6.068842    3.460747    0.148952
      6          1           0        6.207160    4.348862    0.770970
      7          1           0        6.026379    2.575560    0.787144
      8          6           0        4.820591    3.612185   -0.745751
      9          8           0        4.984901    3.803168   -1.956629
     10          7           0        3.644350    3.549763   -0.125856
     11          1           0        3.546959    3.305964    0.860220
     12          6           0        2.368587    3.700444   -0.805007
     13          1           0        2.309957    4.670531   -1.310134
     14          1           0        2.227590    2.908606   -1.550635
     15          6           0        1.287077    3.539661    0.265875
     16          8           0        1.585645    3.115173    1.386307
     17          7           0        0.032182    3.875171   -0.099699
     18          1           0       -0.146662    4.056839   -1.080260
     19          6           0       -1.124128    3.478017    0.712191
     20          1           0       -1.974425    4.107192    0.449110
     21          1           0       -0.866682    3.624539    1.763106
     22          6           0       -1.466963    2.016373    0.387219
     23          8           0       -2.348190    1.716871   -0.404263
     24          7           0       -0.644294    1.096209    0.982576
     25          1           0        0.181976    1.452880    1.451274
     26          6           0       -0.568612   -0.225533    0.402398
     27          1           0        0.023454   -0.869879    1.061142
     28          1           0       -1.576212   -0.644106    0.331967
     29          6           0        0.095785   -0.202748   -0.986891
     30          8           0        0.899465    0.664302   -1.326758
     31          7           0       -0.272364   -1.219530   -1.810754
     32          1           0       -0.840088   -1.969286   -1.441047
     33          6           0        0.389828   -1.422243   -3.074498
     34          1           0        0.467721   -0.459812   -3.589993
     35          1           0       -0.223960   -2.085583   -3.693882
     36          6           0        1.785198   -2.047622   -2.908350
     37          8           0        2.139969   -2.616220   -1.890434
     38          7           0        2.600179   -1.913219   -4.010197
     39          1           0        2.212620   -1.505535   -4.851541
     40          6           0        3.841979   -2.657009   -4.125283
     41          1           0        3.826450   -3.454982   -3.375482
     42          1           0        3.927936   -3.124439   -5.110152
     43          6           0        5.123431   -1.855215   -3.902061
     44          8           0        6.212498   -2.320369   -4.245816
     45          7           0        5.001887   -0.655109   -3.281399
     46          1           0        4.077726   -0.352285   -3.001876
     47          6           0        6.127878    0.255799   -3.125020
     48          1           0        6.693120    0.282434   -4.065455
     49          1           0        5.735734    1.255330   -2.927739
     50          6           0        7.113001   -0.102432   -2.000974
     51          8           0        7.454962    0.727387   -1.128149
     52          7           0        7.616847   -1.336624   -2.021945
     53          1           0        7.370983   -1.925443   -2.823209
     54          6           0        8.612445   -1.766281   -1.056638
     55          1           0        8.295938   -1.513442   -0.043042
     56          1           0        8.702736   -2.854916   -1.119952
     57          6           0       10.005941   -1.170767   -1.253466
     58          8           0       10.824263   -1.097092   -0.370221
     59          8           0       10.229729   -0.784851   -2.528507
     60          1           0       11.156923   -0.480207   -2.565354
 ---------------------------------------------------------------------

 SCF Done:  E(RB3LYP) =  -1740.91709284     A.U. after    2 cycles

 Alpha  occ. eigenvalues --  -19.28896 -19.26205 -19.25658 -19.23652 -19.22891
 Alpha  occ. eigenvalues --  -19.22844 -19.21907 -19.21234 -19.19896 -14.56933
 Alpha  occ. eigenvalues --  -14.49509 -14.48010 -14.47672 -14.47620 -14.47104
 Alpha  occ. eigenvalues --  -14.45790 -14.43958 -10.43426 -10.41752 -10.41412
 Alpha  occ. eigenvalues --  -10.40731 -10.40058 -10.39402 -10.39132 -10.38162
 Alpha  occ. eigenvalues --  -10.36954 -10.35290 -10.34770 -10.33743 -10.33334
 Alpha  occ. eigenvalues --  -10.33161 -10.32078 -10.31611  -1.19728  -1.18346
 Alpha  occ. eigenvalues --   -1.16628  -1.15531  -1.14849  -1.14076  -1.12865
 Alpha  occ. eigenvalues --   -1.11747  -1.11612  -1.10741  -1.05939  -1.04639
 Alpha  occ. eigenvalues --   -1.03978  -1.03605  -1.02478  -1.01983  -1.00409
 Alpha  occ. eigenvalues --   -0.89649  -0.88081  -0.86230  -0.85413  -0.83660
 Alpha  occ. eigenvalues --   -0.82097  -0.80573  -0.77915  -0.73323  -0.72699
 Alpha  occ. eigenvalues --   -0.72435  -0.71581  -0.70591  -0.69954  -0.69465
 Alpha  occ. eigenvalues --   -0.68693  -0.68219  -0.66735  -0.65839  -0.65232
 Alpha  occ. eigenvalues --   -0.64527  -0.63064  -0.62590  -0.61716  -0.60712
 Alpha  occ. eigenvalues --   -0.60574  -0.59929  -0.59166  -0.58996  -0.58847
 Alpha  occ. eigenvalues --   -0.57699  -0.57325  -0.57089  -0.56321  -0.56084
 Alpha  occ. eigenvalues --   -0.55624  -0.55433  -0.54419  -0.54174  -0.53811
 Alpha  occ. eigenvalues --   -0.53329  -0.53113  -0.52607  -0.52410  -0.51719
 Alpha  occ. eigenvalues --   -0.51272  -0.50872  -0.50546  -0.50104  -0.49763
 Alpha  occ. eigenvalues --   -0.49169  -0.48691  -0.48254  -0.48172  -0.47857
 Alpha  occ. eigenvalues --   -0.47117  -0.46709  -0.45760  -0.44889  -0.41046
 Alpha  occ. eigenvalues --   -0.40869  -0.40727  -0.39688  -0.39475  -0.38690
 Alpha  occ. eigenvalues --   -0.38026  -0.37592  -0.36730  -0.36652  -0.35947
 Alpha  occ. eigenvalues --   -0.35708  -0.35348  -0.34632  -0.33774  -0.32740
 Alpha virt. eigenvalues --   -0.11852  -0.11139  -0.09567  -0.08835  -0.08247
 Alpha virt. eigenvalues --   -0.08002  -0.07761  -0.07056  -0.05953  -0.03690
 Alpha virt. eigenvalues --   -0.03368  -0.02214  -0.01648  -0.01393  -0.01013

 Mulliken charges:
               1
     1  N   -0.768529
     2  H    0.456071
     3  H    0.410328
     4  H    0.403476
     5  C   -0.277626
     6  H    0.235651
     7  H    0.236592
     8  C    0.637149
     9  O   -0.530973
    10  N   -0.609344
    11  H    0.374419
    12  C   -0.208077
    13  H    0.202199
    14  H    0.232254
    15  C    0.628061
    16  O   -0.545382
    17  N   -0.581014
    18  H    0.354523
    19  C   -0.248016
    20  H    0.201140
    21  H    0.206722
    22  C    0.592428
    23  O   -0.495778
    24  N   -0.568675
    25  H    0.361804
    26  C   -0.256039
    27  H    0.196003
    28  H    0.199663
    29  C    0.640906
    30  O   -0.560442
    31  N   -0.561879
    32  H    0.350626
    33  C   -0.249219
    34  H    0.192110
    35  H    0.197826
    36  C    0.603554
    37  O   -0.488762
    38  N   -0.622986
    39  H    0.344401
    40  C   -0.227299
    41  H    0.232833
    42  H    0.205583
    43  C    0.609347
    44  O   -0.530777
    45  N   -0.579056
    46  H    0.365427
    47  C   -0.250472
    48  H    0.218724
    49  H    0.180089
    50  C    0.633760
    51  O   -0.597800
    52  N   -0.566446
    53  H    0.405609
    54  C   -0.229042
    55  H    0.214542
    56  H    0.215871
    57  C    0.585857
    58  O   -0.436172
    59  O   -0.559764
    60  H    0.424019
 Sum of Mulliken charges =   1.00000

 Dipole moment (field-independent basis, Debye):
    X=             22.6184    Y=              8.7618    Z=             -8.1713  Tot=             25.5955
 Quadrupole moment (field-independent basis, Debye-Ang):
   XX=            -31.7163   YY=           -128.8815   ZZ=           -153.2244
   XY=             62.3540   XZ=            -36.1440   YZ=              9.1353

 Normal termination of Gaussian 16 at Tue Jul 19 19:38:03 2022.
