 Gaussian 16, Revision C.01,
 Gaussian 16:  ES64L-G16RevC.01  3-Jul-2019

 -------------------------------------------------------------------
 # B3LYP/6-31G* guess=read geom=check nosymm integral(ultrafinegrid)
 -------------------------------------------------------------------

 ------------------------------------------------------
 Candidate Structure: Conf:771 Charge calc in gas phase
 ------------------------------------------------------
 Structure from the checkpoint file:  "conf-771.chk"
 Charge =  1 Multiplicity = 1

                          Input orientation:
 ---------------------------------------------------------------------
 Center     Atomic      Atomic             Coordinates (Angstroms)
 Number     Number       Type             X           Y           Z
 ---------------------------------------------------------------------
      1          7           0        3.210055    2.896071    4.205259
      2          1           0        3.657996    2.659226    5.110197
      3          1           0        2.589344    2.099160    3.930365
      4          1           0        4.007220    2.912425    3.529288
      5          6           0        2.517836    4.220028    4.191072
      6          1           0        3.245097    4.978810    4.489898
      7          1           0        1.693112    4.198727    4.903022
      8          6           0        1.929761    4.512488    2.799710
      9          8           0        0.716742    4.418785    2.607826
     10          7           0        2.806822    4.896134    1.840694
     11          1           0        3.794351    4.670858    1.943578
     12          6           0        2.320034    5.208612    0.501224
     13          1           0        1.554954    5.986332    0.575869
     14          1           0        3.158649    5.604591   -0.076544
     15          6           0        1.793332    3.950771   -0.200967
     16          8           0        2.502176    2.950375   -0.319022
     17          7           0        0.511889    3.989234   -0.636300
     18          1           0       -0.053581    4.803190   -0.436973
     19          6           0       -0.120513    2.795824   -1.181648
     20          1           0        0.418793    2.442824   -2.063496
     21          1           0       -1.139867    3.048790   -1.485911
     22          6           0       -0.156856    1.618748   -0.195438
     23          8           0       -0.190175    0.460940   -0.611561
     24          7           0       -0.156931    1.932529    1.124653
     25          1           0       -0.035423    2.894363    1.428475
     26          6           0       -0.071891    0.895231    2.141934
     27          1           0       -0.331810    1.331904    3.106720
     28          1           0       -0.786958    0.100888    1.906602
     29          6           0        1.342564    0.301470    2.257226
     30          8           0        2.097800    0.559579    3.212315
     31          7           0        1.711310   -0.512592    1.249001
     32          1           0        1.053303   -0.609044    0.473639
     33          6           0        2.964633   -1.250018    1.252220
     34          1           0        2.942644   -1.952677    0.413873
     35          1           0        3.056958   -1.838818    2.168766
     36          6           0        4.255279   -0.428687    1.144267
     37          8           0        5.315854   -0.917234    1.551810
     38          7           0        4.181099    0.792730    0.571781
     39          1           0        3.297220    1.192762    0.270837
     40          6           0        5.357891    1.647610    0.451633
     41          1           0        6.179024    1.094287   -0.013470
     42          1           0        5.085748    2.497793   -0.172328
     43          6           0        5.746140    2.158508    1.842841
     44          8           0        5.218564    3.177166    2.339215
     45          7           0        6.622519    1.394154    2.515609
     46          1           0        6.818314    0.489786    2.094049
     47          6           0        6.889967    1.577225    3.938638
     48          1           0        7.834515    1.080261    4.178449
     49          1           0        6.988646    2.641234    4.151929
     50          6           0        5.760916    1.033252    4.840488
     51          8           0        5.237484    1.758581    5.697796
     52          7           0        5.392933   -0.245502    4.632442
     53          1           0        5.757395   -0.763919    3.840012
     54          6           0        4.344090   -0.882058    5.413470
     55          1           0        4.307841   -0.402757    6.395832
     56          1           0        3.361829   -0.742752    4.945732
     57          6           0        4.541446   -2.375650    5.618838
     58          8           0        3.717475   -3.073995    6.155485
     59          8           0        5.717928   -2.825210    5.129643
     60          1           0        5.747953   -3.785760    5.305126
 ---------------------------------------------------------------------

 SCF Done:  E(RB3LYP) =  -1740.94512704     A.U. after    1 cycles

 Alpha  occ. eigenvalues --  -19.29393 -19.26359 -19.26152 -19.25671 -19.25029
 Alpha  occ. eigenvalues --  -19.23906 -19.23755 -19.23174 -19.23119 -14.55204
 Alpha  occ. eigenvalues --  -14.49947 -14.49758 -14.49632 -14.48621 -14.48182
 Alpha  occ. eigenvalues --  -14.48088 -14.47682 -10.43452 -10.42828 -10.42127
 Alpha  occ. eigenvalues --  -10.42028 -10.41906 -10.41209 -10.41099 -10.40537
 Alpha  occ. eigenvalues --  -10.38350 -10.36143 -10.35138 -10.35060 -10.34872
 Alpha  occ. eigenvalues --  -10.34778 -10.34766 -10.33698  -1.20125  -1.18136
 Alpha  occ. eigenvalues --   -1.17614  -1.16882  -1.16704  -1.15483  -1.15339
 Alpha  occ. eigenvalues --   -1.14922  -1.11135  -1.10786  -1.06160  -1.05901
 Alpha  occ. eigenvalues --   -1.05766  -1.05304  -1.04083  -1.03731  -1.03353
 Alpha  occ. eigenvalues --   -0.89726  -0.89156  -0.87906  -0.86313  -0.84975
 Alpha  occ. eigenvalues --   -0.83264  -0.81898  -0.80763  -0.73913  -0.72924
 Alpha  occ. eigenvalues --   -0.72385  -0.72029  -0.71471  -0.70770  -0.70313
 Alpha  occ. eigenvalues --   -0.70124  -0.69500  -0.69312  -0.66147  -0.66079
 Alpha  occ. eigenvalues --   -0.65861  -0.65485  -0.64491  -0.63474  -0.62474
 Alpha  occ. eigenvalues --   -0.61768  -0.61588  -0.61198  -0.60292  -0.59471
 Alpha  occ. eigenvalues --   -0.59188  -0.57998  -0.57668  -0.57225  -0.56617
 Alpha  occ. eigenvalues --   -0.56406  -0.56038  -0.55725  -0.55493  -0.55185
 Alpha  occ. eigenvalues --   -0.54650  -0.54197  -0.53657  -0.53414  -0.53206
 Alpha  occ. eigenvalues --   -0.52914  -0.52405  -0.51972  -0.51854  -0.51746
 Alpha  occ. eigenvalues --   -0.51302  -0.50667  -0.50188  -0.49997  -0.49688
 Alpha  occ. eigenvalues --   -0.48766  -0.48093  -0.47970  -0.47781  -0.41774
 Alpha  occ. eigenvalues --   -0.41574  -0.41229  -0.40929  -0.40680  -0.40583
 Alpha  occ. eigenvalues --   -0.40210  -0.39579  -0.38258  -0.38086  -0.37248
 Alpha  occ. eigenvalues --   -0.37085  -0.36654  -0.36541  -0.36299  -0.36158
 Alpha virt. eigenvalues --   -0.13858  -0.12964  -0.11867  -0.11574  -0.10681
 Alpha virt. eigenvalues --   -0.09861  -0.09177  -0.08272  -0.05039  -0.03693
 Alpha virt. eigenvalues --   -0.02236  -0.01611  -0.00641  -0.00389   0.00482

 Mulliken charges:
               1
     1  N   -0.830060
     2  H    0.434264
     3  H    0.430201
     4  H    0.436516
     5  C   -0.255642
     6  H    0.226403
     7  H    0.235341
     8  C    0.590756
     9  O   -0.517344
    10  N   -0.571406
    11  H    0.384308
    12  C   -0.240097
    13  H    0.193938
    14  H    0.208945
    15  C    0.615476
    16  O   -0.536938
    17  N   -0.588218
    18  H    0.360165
    19  C   -0.224368
    20  H    0.221898
    21  H    0.209654
    22  C    0.617240
    23  O   -0.532608
    24  N   -0.608218
    25  H    0.390770
    26  C   -0.236838
    27  H    0.192840
    28  H    0.214088
    29  C    0.600431
    30  O   -0.564834
    31  N   -0.590877
    32  H    0.399576
    33  C   -0.224982
    34  H    0.215539
    35  H    0.207005
    36  C    0.625566
    37  O   -0.554884
    38  N   -0.603749
    39  H    0.395060
    40  C   -0.219815
    41  H    0.199614
    42  H    0.205016
    43  C    0.600253
    44  O   -0.577234
    45  N   -0.545428
    46  H    0.377561
    47  C   -0.248433
    48  H    0.212771
    49  H    0.215487
    50  C    0.597481
    51  O   -0.557492
    52  N   -0.574005
    53  H    0.371523
    54  C   -0.238655
    55  H    0.230309
    56  H    0.217668
    57  C    0.576466
    58  O   -0.434475
    59  O   -0.563566
    60  H    0.430042
 Sum of Mulliken charges =   1.00000

 Dipole moment (field-independent basis, Debye):
    X=             15.6120    Y=             12.5040    Z=              9.1692  Tot=             22.0037
 Quadrupole moment (field-independent basis, Debye-Ang):
   XX=            -98.9790   YY=           -120.2600   ZZ=           -153.8757
   XY=             18.9719   XZ=             44.6031   YZ=             16.2964

 Normal termination of Gaussian 16 at Tue Jul 19 19:37:59 2022.
