 Gaussian 16, Revision C.01,
 Gaussian 16:  ES64L-G16RevC.01  3-Jul-2019

 -------------------------------------------------------------------
 # B3LYP/6-31G* guess=read geom=check nosymm integral(ultrafinegrid)
 -------------------------------------------------------------------

 ------------------------------------------------------
 Candidate Structure: Conf:474 Charge calc in gas phase
 ------------------------------------------------------
 Structure from the checkpoint file:  "conf-474.chk"
 Charge =  1 Multiplicity = 1

                          Input orientation:
 ---------------------------------------------------------------------
 Center     Atomic      Atomic             Coordinates (Angstroms)
 Number     Number       Type             X           Y           Z
 ---------------------------------------------------------------------
      1          7           0       -6.717559    1.840177    2.458202
      2          1           0       -6.760320    0.818677    2.405682
      3          1           0       -7.006684    2.163035    3.443666
      4          1           0       -7.348062    2.227020    1.751286
      5          6           0       -5.316673    2.384163    2.389997
      6          1           0       -5.263979    3.158700    1.622969
      7          1           0       -4.610300    1.589688    2.144913
      8          6           0       -5.087341    2.964013    3.812869
      9          8           0       -6.058250    2.942512    4.585058
     10          7           0       -3.873582    3.428965    4.062929
     11          1           0       -3.116801    3.289552    3.371570
     12          6           0       -3.440482    3.868744    5.402628
     13          1           0       -3.579045    4.951126    5.511769
     14          1           0       -4.023444    3.353063    6.165615
     15          6           0       -1.968801    3.444243    5.487489
     16          8           0       -1.617653    2.420034    6.040943
     17          7           0       -1.120768    4.250903    4.758551
     18          1           0       -1.540197    5.033488    4.271781
     19          6           0        0.016842    3.648045    4.100568
     20          1           0        0.424392    2.884709    4.769404
     21          1           0        0.797523    4.394950    3.925043
     22          6           0       -0.408276    2.990442    2.768216
     23          8           0       -1.600312    2.899257    2.423993
     24          7           0        0.595766    2.527649    2.016310
     25          1           0        1.571877    2.587429    2.305606
     26          6           0        0.410978    1.839328    0.756204
     27          1           0       -0.250999    0.973365    0.879864
     28          1           0       -0.051785    2.500330    0.012487
     29          6           0        1.803802    1.391696    0.282041
     30          8           0        2.807988    1.661761    0.938349
     31          7           0        1.820946    0.703237   -0.873938
     32          1           0        0.976357    0.467112   -1.388200
     33          6           0        3.035861    0.173884   -1.454675
     34          1           0        3.603923   -0.394136   -0.707547
     35          1           0        3.690375    0.981346   -1.809414
     36          6           0        2.625179   -0.722586   -2.628487
     37          8           0        1.441368   -0.798348   -2.974415
     38          7           0        3.620732   -1.393263   -3.241181
     39          1           0        4.554395   -1.344613   -2.855173
     40          6           0        3.415872   -2.218359   -4.433194
     41          1           0        2.717679   -1.705040   -5.103006
     42          1           0        4.372396   -2.330683   -4.943538
     43          6           0        2.872306   -3.633046   -4.177789
     44          8           0        3.435778   -4.618108   -4.652103
     45          7           0        1.734366   -3.694256   -3.438609
     46          1           0        1.233941   -2.821777   -3.288352
     47          6           0        0.997047   -4.947774   -3.292892
     48          1           0        1.720470   -5.754077   -3.146112
     49          1           0        0.343849   -4.878554   -2.422000
     50          6           0        0.122367   -5.196936   -4.532473
     51          8           0       -1.083054   -4.989150   -4.531806
     52          7           0        0.829325   -5.620956   -5.627414
     53          1           0        1.843242   -5.572471   -5.549461
     54          6           0        0.255383   -5.487731   -6.942941
     55          1           0        0.656352   -6.245152   -7.624419
     56          1           0       -0.824651   -5.644094   -6.872110
     57          6           0        0.505189   -4.105025   -7.539473
     58          8           0        1.070735   -3.186537   -6.987414
     59          8           0        0.009207   -4.027140   -8.791988
     60          1           0        0.197137   -3.125984   -9.115819
 ---------------------------------------------------------------------

 SCF Done:  E(RB3LYP) =  -1740.88845981     A.U. after    1 cycles

 Alpha  occ. eigenvalues --  -19.28056 -19.25312 -19.23838 -19.22516 -19.21965
 Alpha  occ. eigenvalues --  -19.21520 -19.19925 -19.18409 -19.16639 -14.61599
 Alpha  occ. eigenvalues --  -14.50198 -14.46916 -14.46851 -14.46186 -14.45558
 Alpha  occ. eigenvalues --  -14.42402 -14.40486 -10.44738 -10.41847 -10.40366
 Alpha  occ. eigenvalues --  -10.39816 -10.39048 -10.38861 -10.37808 -10.35571
 Alpha  occ. eigenvalues --  -10.34719 -10.33718 -10.33669 -10.33484 -10.32695
 Alpha  occ. eigenvalues --  -10.30572 -10.28562 -10.28490  -1.20487  -1.16256
 Alpha  occ. eigenvalues --   -1.15404  -1.15055  -1.14310  -1.13985  -1.13177
 Alpha  occ. eigenvalues --   -1.10209  -1.08396  -1.07253  -1.06986  -1.03319
 Alpha  occ. eigenvalues --   -1.03200  -1.02196  -1.01858  -0.98619  -0.97142
 Alpha  occ. eigenvalues --   -0.91376  -0.87334  -0.85758  -0.83917  -0.81783
 Alpha  occ. eigenvalues --   -0.80313  -0.78503  -0.76197  -0.75590  -0.75216
 Alpha  occ. eigenvalues --   -0.72833  -0.70522  -0.69496  -0.69115  -0.68132
 Alpha  occ. eigenvalues --   -0.67526  -0.67444  -0.65371  -0.64542  -0.63776
 Alpha  occ. eigenvalues --   -0.62727  -0.61931  -0.61676  -0.60888  -0.59818
 Alpha  occ. eigenvalues --   -0.59394  -0.58910  -0.58443  -0.57737  -0.57334
 Alpha  occ. eigenvalues --   -0.56835  -0.56499  -0.55988  -0.55507  -0.54687
 Alpha  occ. eigenvalues --   -0.54513  -0.53861  -0.53489  -0.52992  -0.52701
 Alpha  occ. eigenvalues --   -0.52287  -0.51625  -0.51334  -0.50975  -0.50721
 Alpha  occ. eigenvalues --   -0.49767  -0.48882  -0.48544  -0.48533  -0.47797
 Alpha  occ. eigenvalues --   -0.47618  -0.46731  -0.46249  -0.45717  -0.45404
 Alpha  occ. eigenvalues --   -0.44970  -0.44006  -0.43058  -0.43013  -0.42283
 Alpha  occ. eigenvalues --   -0.40726  -0.38657  -0.37594  -0.37244  -0.36992
 Alpha  occ. eigenvalues --   -0.36656  -0.36378  -0.35511  -0.35366  -0.34757
 Alpha  occ. eigenvalues --   -0.33929  -0.33577  -0.31478  -0.30895  -0.29277
 Alpha virt. eigenvalues --   -0.13479  -0.12618  -0.09511  -0.08772  -0.07864
 Alpha virt. eigenvalues --   -0.07274  -0.06678  -0.05308  -0.05015  -0.04502
 Alpha virt. eigenvalues --   -0.02732  -0.02650  -0.01924  -0.00988  -0.00768

 Mulliken charges:
               1
     1  N   -0.751367
     2  H    0.423020
     3  H    0.440252
     4  H    0.421558
     5  C   -0.278614
     6  H    0.248097
     7  H    0.252287
     8  C    0.631331
     9  O   -0.523018
    10  N   -0.635023
    11  H    0.416056
    12  C   -0.213552
    13  H    0.193896
    14  H    0.227855
    15  C    0.548660
    16  O   -0.457292
    17  N   -0.549985
    18  H    0.334501
    19  C   -0.262626
    20  H    0.237244
    21  H    0.199486
    22  C    0.628527
    23  O   -0.573638
    24  N   -0.600302
    25  H    0.374455
    26  C   -0.196889
    27  H    0.190070
    28  H    0.194608
    29  C    0.612379
    30  O   -0.521511
    31  N   -0.624771
    32  H    0.361862
    33  C   -0.194628
    34  H    0.201803
    35  H    0.204036
    36  C    0.612805
    37  O   -0.542917
    38  N   -0.589618
    39  H    0.351740
    40  C   -0.253430
    41  H    0.228359
    42  H    0.195105
    43  C    0.613630
    44  O   -0.523086
    45  N   -0.588983
    46  H    0.374012
    47  C   -0.238562
    48  H    0.194124
    49  H    0.174536
    50  C    0.588714
    51  O   -0.507549
    52  N   -0.575109
    53  H    0.369540
    54  C   -0.237295
    55  H    0.196356
    56  H    0.224345
    57  C    0.582643
    58  O   -0.470019
    59  O   -0.554047
    60  H    0.415942
 Sum of Mulliken charges =   1.00000

 Dipole moment (field-independent basis, Debye):
    X=            -16.3171    Y=             11.3383    Z=              4.4950  Tot=             20.3717
 Quadrupole moment (field-independent basis, Debye-Ang):
   XX=            -36.1131   YY=           -150.1742   ZZ=           -150.7862
   XY=            -48.5218   XZ=            -56.8879   YZ=             30.0059

 Normal termination of Gaussian 16 at Tue Jul 19 19:37:56 2022.
