 Gaussian 16, Revision C.01,
 Gaussian 16:  ES64L-G16RevC.01  3-Jul-2019

 -------------------------------------------------------------------
 # B3LYP/6-31G* guess=read geom=check nosymm integral(ultrafinegrid)
 -------------------------------------------------------------------

 ------------------------------------------------------
 Candidate Structure: Conf:521 Charge calc in gas phase
 ------------------------------------------------------
 Structure from the checkpoint file:  "conf-521.chk"
 Charge =  1 Multiplicity = 1

                          Input orientation:
 ---------------------------------------------------------------------
 Center     Atomic      Atomic             Coordinates (Angstroms)
 Number     Number       Type             X           Y           Z
 ---------------------------------------------------------------------
      1          7           0       -1.045837   -1.289568    0.889359
      2          1           0       -1.254396   -2.111702    1.459220
      3          1           0       -0.030342   -1.363344    0.534297
      4          1           0       -1.110129   -0.426529    1.466958
      5          6           0       -2.019109   -1.088226   -0.229748
      6          1           0       -2.884294   -1.741098   -0.094170
      7          1           0       -1.521428   -1.311378   -1.178138
      8          6           0       -2.418105    0.398407   -0.175762
      9          8           0       -1.914792    1.117357    0.691554
     10          7           0       -3.309867    0.808681   -1.093880
     11          1           0       -3.549107    0.198593   -1.869328
     12          6           0       -3.622530    2.222356   -1.302372
     13          1           0       -4.707991    2.365746   -1.288897
     14          1           0       -3.180498    2.789661   -0.482368
     15          6           0       -3.087275    2.602243   -2.686442
     16          8           0       -3.366210    1.887159   -3.651417
     17          7           0       -2.282688    3.687040   -2.765453
     18          1           0       -2.015149    4.168726   -1.917498
     19          6           0       -1.579292    4.035226   -4.005113
     20          1           0       -1.204345    5.055035   -3.920878
     21          1           0       -2.284741    3.972709   -4.837516
     22          6           0       -0.382718    3.087239   -4.199563
     23          8           0        0.756727    3.395531   -3.850988
     24          7           0       -0.712056    1.872532   -4.714800
     25          1           0       -1.703213    1.647043   -4.767384
     26          6           0        0.250082    0.776635   -4.732003
     27          1           0       -0.145261   -0.026929   -5.354347
     28          1           0        1.191062    1.133808   -5.158370
     29          6           0        0.458011    0.232432   -3.312826
     30          8           0       -0.213200   -0.689259   -2.847196
     31          7           0        1.422919    0.869673   -2.585988
     32          1           0        1.707669    1.787980   -2.926193
     33          6           0        1.542479    0.569293   -1.169829
     34          1           0        0.605033    0.751949   -0.632469
     35          1           0        2.304008    1.230281   -0.743844
     36          6           0        1.960550   -0.882017   -0.906270
     37          8           0        1.447628   -1.559949    0.008662
     38          7           0        2.952644   -1.349980   -1.661199
     39          1           0        3.311776   -0.817076   -2.452666
     40          6           0        3.464866   -2.701647   -1.576691
     41          1           0        3.980263   -2.866473   -0.622311
     42          1           0        2.643414   -3.427099   -1.632013
     43          6           0        4.428463   -2.889367   -2.760651
     44          8           0        4.582929   -1.992602   -3.582907
     45          7           0        5.074623   -4.083453   -2.798625
     46          1           0        4.818851   -4.792408   -2.122244
     47          6           0        5.905596   -4.496569   -3.925951
     48          1           0        5.417244   -5.285971   -4.505226
     49          1           0        6.017819   -3.623711   -4.575352
     50          6           0        7.299579   -5.016552   -3.554125
     51          8           0        7.877774   -5.791232   -4.297905
     52          7           0        7.814348   -4.560505   -2.370063
     53          1           0        7.348291   -3.777673   -1.931955
     54          6           0        9.198544   -4.808038   -2.023727
     55          1           0        9.297089   -5.084501   -0.968917
     56          1           0        9.534862   -5.660560   -2.620906
     57          6           0       10.164750   -3.657161   -2.283481
     58          8           0       11.321641   -3.673467   -1.939970
     59          8           0        9.587692   -2.619033   -2.933715
     60          1           0       10.294929   -1.959462   -3.069363
 ---------------------------------------------------------------------

 SCF Done:  E(RB3LYP) =  -1740.91508839     A.U. after    2 cycles

 Alpha  occ. eigenvalues --  -19.27008 -19.26507 -19.25534 -19.24490 -19.24207
 Alpha  occ. eigenvalues --  -19.23096 -19.22986 -19.20227 -19.18881 -14.56637
 Alpha  occ. eigenvalues --  -14.50684 -14.49587 -14.48350 -14.47883 -14.47454
 Alpha  occ. eigenvalues --  -14.46980 -14.44011 -10.44145 -10.42125 -10.41815
 Alpha  occ. eigenvalues --  -10.40715 -10.40475 -10.39964 -10.38796 -10.38731
 Alpha  occ. eigenvalues --  -10.36578 -10.35915 -10.35503 -10.34845 -10.34351
 Alpha  occ. eigenvalues --  -10.33761 -10.31605 -10.30420  -1.19106  -1.17161
 Alpha  occ. eigenvalues --   -1.16936  -1.16567  -1.15676  -1.15023  -1.14416
 Alpha  occ. eigenvalues --   -1.11417  -1.11064  -1.08127  -1.06804  -1.05352
 Alpha  occ. eigenvalues --   -1.05126  -1.03800  -1.03436  -1.03054  -0.99990
 Alpha  occ. eigenvalues --   -0.90143  -0.88596  -0.86992  -0.85389  -0.83541
 Alpha  occ. eigenvalues --   -0.82209  -0.80537  -0.78968  -0.73261  -0.72807
 Alpha  occ. eigenvalues --   -0.72457  -0.71559  -0.70782  -0.69919  -0.69277
 Alpha  occ. eigenvalues --   -0.68900  -0.68675  -0.66877  -0.66690  -0.65081
 Alpha  occ. eigenvalues --   -0.64942  -0.64042  -0.62906  -0.61848  -0.61387
 Alpha  occ. eigenvalues --   -0.60736  -0.60569  -0.59905  -0.58996  -0.58848
 Alpha  occ. eigenvalues --   -0.58407  -0.58039  -0.57592  -0.56556  -0.56349
 Alpha  occ. eigenvalues --   -0.55333  -0.55125  -0.54378  -0.54147  -0.53703
 Alpha  occ. eigenvalues --   -0.53226  -0.53103  -0.52676  -0.52326  -0.52068
 Alpha  occ. eigenvalues --   -0.51739  -0.51329  -0.50754  -0.50411  -0.50134
 Alpha  occ. eigenvalues --   -0.49798  -0.49299  -0.48900  -0.48519  -0.47930
 Alpha  occ. eigenvalues --   -0.47199  -0.46495  -0.45680  -0.44129  -0.41620
 Alpha  occ. eigenvalues --   -0.40912  -0.40559  -0.39985  -0.39403  -0.38809
 Alpha  occ. eigenvalues --   -0.38209  -0.38076  -0.37848  -0.37291  -0.36910
 Alpha  occ. eigenvalues --   -0.36063  -0.35940  -0.35281  -0.32613  -0.32058
 Alpha virt. eigenvalues --   -0.12556  -0.11305  -0.10859  -0.10429  -0.09031
 Alpha virt. eigenvalues --   -0.08537  -0.08315  -0.05596  -0.05164  -0.04270
 Alpha virt. eigenvalues --   -0.03742  -0.02565  -0.01926  -0.00870   0.00434

 Mulliken charges:
               1
     1  N   -0.785650
     2  H    0.401210
     3  H    0.460643
     4  H    0.413163
     5  C   -0.291255
     6  H    0.224614
     7  H    0.279747
     8  C    0.621757
     9  O   -0.520116
    10  N   -0.576995
    11  H    0.368098
    12  C   -0.236599
    13  H    0.219866
    14  H    0.207406
    15  C    0.617730
    16  O   -0.529692
    17  N   -0.580582
    18  H    0.357249
    19  C   -0.238732
    20  H    0.207731
    21  H    0.212821
    22  C    0.588111
    23  O   -0.518822
    24  N   -0.576856
    25  H    0.382509
    26  C   -0.232673
    27  H    0.200886
    28  H    0.205304
    29  C    0.585415
    30  O   -0.529680
    31  N   -0.593174
    32  H    0.385295
    33  C   -0.231542
    34  H    0.166517
    35  H    0.207378
    36  C    0.652868
    37  O   -0.595911
    38  N   -0.575683
    39  H    0.378458
    40  C   -0.204501
    41  H    0.198817
    42  H    0.201139
    43  C    0.600384
    44  O   -0.504837
    45  N   -0.621382
    46  H    0.345797
    47  C   -0.234332
    48  H    0.202908
    49  H    0.233468
    50  C    0.591511
    51  O   -0.488284
    52  N   -0.580613
    53  H    0.332547
    54  C   -0.236497
    55  H    0.196903
    56  H    0.241164
    57  C    0.578671
    58  O   -0.438451
    59  O   -0.565959
    60  H    0.420733
 Sum of Mulliken charges =   1.00000

 Dipole moment (field-independent basis, Debye):
    X=             -4.0000    Y=             -0.5364    Z=             -2.9903  Tot=              5.0229
 Quadrupole moment (field-independent basis, Debye-Ang):
   XX=           -173.3373   YY=           -153.5027   ZZ=           -176.5873
   XY=             -3.0926   XZ=             11.4638   YZ=            -24.3727

 Normal termination of Gaussian 16 at Tue Jul 19 19:38:03 2022.
