 Gaussian 16, Revision C.01,
 Gaussian 16:  ES64L-G16RevC.01  3-Jul-2019

 -------------------------------------------------------------------
 # B3LYP/6-31G* guess=read geom=check nosymm integral(ultrafinegrid)
 -------------------------------------------------------------------

 ------------------------------------------------------
 Candidate Structure: Conf:549 Charge calc in gas phase
 ------------------------------------------------------
 Structure from the checkpoint file:  "conf-549.chk"
 Charge =  1 Multiplicity = 1

                          Input orientation:
 ---------------------------------------------------------------------
 Center     Atomic      Atomic             Coordinates (Angstroms)
 Number     Number       Type             X           Y           Z
 ---------------------------------------------------------------------
      1          7           0       -1.029103    1.488560   -6.179078
      2          1           0       -1.474434    1.015037   -6.967437
      3          1           0       -0.492077    2.326150   -6.482028
      4          1           0       -0.335019    0.856566   -5.697204
      5          6           0       -1.991425    2.000946   -5.155573
      6          1           0       -2.230935    1.196454   -4.458755
      7          1           0       -2.901292    2.344062   -5.654970
      8          6           0       -1.246299    3.176439   -4.489347
      9          8           0       -0.289654    3.667268   -5.101483
     10          7           0       -1.684507    3.567833   -3.294860
     11          1           0       -2.431884    3.084350   -2.799831
     12          6           0       -0.975282    4.542087   -2.473664
     13          1           0        0.080489    4.552393   -2.750205
     14          1           0       -1.385038    5.548941   -2.624793
     15          6           0       -1.204006    4.123711   -1.016284
     16          8           0       -2.259523    3.585230   -0.695523
     17          7           0       -0.197291    4.444289   -0.165764
     18          1           0        0.718200    4.591686   -0.581155
     19          6           0       -0.217544    3.985528    1.205915
     20          1           0       -1.262761    3.819703    1.484587
     21          1           0        0.192632    4.761053    1.862515
     22          6           0        0.540225    2.658867    1.365427
     23          8           0        0.599152    1.819572    0.475606
     24          7           0        1.106061    2.461367    2.591873
     25          1           0        1.216875    3.246030    3.218221
     26          6           0        1.882605    1.270907    2.839083
     27          1           0        2.202192    1.272714    3.886017
     28          1           0        1.257467    0.384803    2.683029
     29          6           0        3.128015    1.177024    1.939950
     30          8           0        3.608255    2.165852    1.378397
     31          7           0        3.671234   -0.061982    1.877754
     32          1           0        3.110295   -0.851640    2.176677
     33          6           0        4.794862   -0.394964    1.028250
     34          1           0        5.630759   -0.778810    1.628845
     35          1           0        5.132728    0.519071    0.534125
     36          6           0        4.380658   -1.467691    0.014751
     37          8           0        3.341321   -2.113457    0.163853
     38          7           0        5.230371   -1.674200   -1.020468
     39          1           0        6.051139   -1.090534   -1.114210
     40          6           0        5.044121   -2.763128   -1.981617
     41          1           0        6.005081   -2.999229   -2.438704
     42          1           0        4.680145   -3.642250   -1.439138
     43          6           0        4.068611   -2.418130   -3.121646
     44          8           0        4.398393   -2.451678   -4.295833
     45          7           0        2.812855   -2.055209   -2.696921
     46          1           0        2.598773   -2.155327   -1.705898
     47          6           0        1.763458   -1.735334   -3.639176
     48          1           0        2.010608   -2.192548   -4.603222
     49          1           0        0.807560   -2.147830   -3.303923
     50          6           0        1.545583   -0.239732   -3.892104
     51          8           0        0.541279    0.129092   -4.527813
     52          7           0        2.486977    0.578948   -3.408333
     53          1           0        3.203325    0.147923   -2.835883
     54          6           0        2.462113    2.029694   -3.459120
     55          1           0        3.268708    2.402475   -4.105826
     56          1           0        1.519825    2.367447   -3.888698
     57          6           0        2.647970    2.659796   -2.079456
     58          8           0        2.200078    3.751118   -1.788045
     59          8           0        3.400473    1.896537   -1.289939
     60          1           0        3.446423    2.244520   -0.356989
 ---------------------------------------------------------------------

 SCF Done:  E(RB3LYP) =  -1740.93444736     A.U. after    3 cycles

 Alpha  occ. eigenvalues --  -19.28673 -19.25104 -19.24220 -19.24141 -19.23448
 Alpha  occ. eigenvalues --  -19.22809 -19.21339 -19.21185 -19.21014 -14.57144
 Alpha  occ. eigenvalues --  -14.48611 -14.48144 -14.48004 -14.47160 -14.46005
 Alpha  occ. eigenvalues --  -14.45706 -14.45122 -10.42629 -10.42485 -10.41087
 Alpha  occ. eigenvalues --  -10.40554 -10.40093 -10.38889 -10.38574 -10.38423
 Alpha  occ. eigenvalues --  -10.38162 -10.34036 -10.34002 -10.33400 -10.33221
 Alpha  occ. eigenvalues --  -10.33212 -10.32845 -10.31998  -1.20023  -1.17504
 Alpha  occ. eigenvalues --   -1.15541  -1.15414  -1.14554  -1.13409  -1.13200
 Alpha  occ. eigenvalues --   -1.12584  -1.11618  -1.11398  -1.04812  -1.04737
 Alpha  occ. eigenvalues --   -1.03860  -1.03408  -1.02075  -1.01695  -1.01630
 Alpha  occ. eigenvalues --   -0.88717  -0.87931  -0.86753  -0.85195  -0.83796
 Alpha  occ. eigenvalues --   -0.81969  -0.80113  -0.78200  -0.72940  -0.72611
 Alpha  occ. eigenvalues --   -0.72002  -0.71431  -0.70825  -0.69676  -0.69392
 Alpha  occ. eigenvalues --   -0.68787  -0.68097  -0.67624  -0.65340  -0.64858
 Alpha  occ. eigenvalues --   -0.64556  -0.62879  -0.62736  -0.61439  -0.60878
 Alpha  occ. eigenvalues --   -0.59824  -0.59535  -0.59094  -0.58345  -0.58250
 Alpha  occ. eigenvalues --   -0.58145  -0.57553  -0.57195  -0.56462  -0.56189
 Alpha  occ. eigenvalues --   -0.55725  -0.55307  -0.54851  -0.54426  -0.54061
 Alpha  occ. eigenvalues --   -0.53567  -0.52804  -0.52140  -0.51798  -0.51527
 Alpha  occ. eigenvalues --   -0.50798  -0.50722  -0.50552  -0.50452  -0.49700
 Alpha  occ. eigenvalues --   -0.49290  -0.49088  -0.48528  -0.48241  -0.47216
 Alpha  occ. eigenvalues --   -0.46629  -0.46520  -0.45866  -0.45053  -0.41658
 Alpha  occ. eigenvalues --   -0.40117  -0.39826  -0.39335  -0.38691  -0.38217
 Alpha  occ. eigenvalues --   -0.38073  -0.37575  -0.36614  -0.36384  -0.36187
 Alpha  occ. eigenvalues --   -0.35308  -0.35186  -0.35076  -0.34172  -0.33720
 Alpha virt. eigenvalues --   -0.11141  -0.09766  -0.09466  -0.09018  -0.08862
 Alpha virt. eigenvalues --   -0.07693  -0.07481  -0.07413  -0.06522  -0.02897
 Alpha virt. eigenvalues --   -0.02868  -0.01653  -0.01258  -0.00988   0.00136

 Mulliken charges:
               1
     1  N   -0.756068
     2  H    0.403504
     3  H    0.415683
     4  H    0.453841
     5  C   -0.276684
     6  H    0.234902
     7  H    0.235980
     8  C    0.645781
     9  O   -0.531174
    10  N   -0.593102
    11  H    0.369022
    12  C   -0.230434
    13  H    0.219653
    14  H    0.211299
    15  C    0.604553
    16  O   -0.519608
    17  N   -0.588343
    18  H    0.379471
    19  C   -0.253865
    20  H    0.230022
    21  H    0.171404
    22  C    0.619781
    23  O   -0.522060
    24  N   -0.574705
    25  H    0.346869
    26  C   -0.236461
    27  H    0.201353
    28  H    0.199095
    29  C    0.638116
    30  O   -0.557434
    31  N   -0.568297
    32  H    0.357874
    33  C   -0.240249
    34  H    0.207135
    35  H    0.206669
    36  C    0.620266
    37  O   -0.532914
    38  N   -0.593253
    39  H    0.353668
    40  C   -0.242106
    41  H    0.203330
    42  H    0.211844
    43  C    0.577966
    44  O   -0.478144
    45  N   -0.634741
    46  H    0.383487
    47  C   -0.220179
    48  H    0.226249
    49  H    0.196692
    50  C    0.626927
    51  O   -0.600934
    52  N   -0.559942
    53  H    0.370253
    54  C   -0.250165
    55  H    0.212821
    56  H    0.213374
    57  C    0.629907
    58  O   -0.481266
    59  O   -0.607726
    60  H    0.471063
 Sum of Mulliken charges =   1.00000

 Dipole moment (field-independent basis, Debye):
    X=              4.9575    Y=              4.8482    Z=            -11.3030  Tot=             13.2605
 Quadrupole moment (field-independent basis, Debye-Ang):
   XX=           -132.3504   YY=           -164.9007   ZZ=            -74.0409
   XY=            -14.2073   XZ=             38.9983   YZ=            -14.2560

 Normal termination of Gaussian 16 at Tue Jul 19 19:38:19 2022.
