 Gaussian 16, Revision C.01,
 Gaussian 16:  ES64L-G16RevC.01  3-Jul-2019

 -------------------------------------------------------------------
 # B3LYP/6-31G* guess=read geom=check nosymm integral(ultrafinegrid)
 -------------------------------------------------------------------

 ------------------------------------------------------
 Candidate Structure: Conf:961 Charge calc in gas phase
 ------------------------------------------------------
 Structure from the checkpoint file:  "conf-961.chk"
 Charge =  1 Multiplicity = 1

                          Input orientation:
 ---------------------------------------------------------------------
 Center     Atomic      Atomic             Coordinates (Angstroms)
 Number     Number       Type             X           Y           Z
 ---------------------------------------------------------------------
      1          7           0        2.723778    4.292323   -0.543891
      2          1           0        3.785811    4.294624   -0.617066
      3          1           0        2.400718    4.522003    0.403082
      4          1           0        2.387217    3.331244   -0.772982
      5          6           0        2.085583    5.235428   -1.499540
      6          1           0        2.297479    4.889965   -2.513173
      7          1           0        2.523372    6.228393   -1.362104
      8          6           0        0.587710    5.256280   -1.174115
      9          8           0        0.224185    5.043408   -0.018458
     10          7           0       -0.248998    5.533621   -2.196401
     11          1           0        0.104411    5.527639   -3.144365
     12          6           0       -1.700721    5.451792   -2.017516
     13          1           0       -1.961211    5.940371   -1.076504
     14          1           0       -2.181844    5.977359   -2.843203
     15          6           0       -2.138700    3.979642   -2.059573
     16          8           0       -2.315449    3.404945   -3.134538
     17          7           0       -2.255282    3.374589   -0.851734
     18          1           0       -1.873794    3.853292   -0.043707
     19          6           0       -2.558281    1.949571   -0.734201
     20          1           0       -3.354665    1.710547   -1.444388
     21          1           0       -2.904573    1.747305    0.279545
     22          6           0       -1.319815    1.078906   -0.992401
     23          8           0       -0.695011    0.524729   -0.093424
     24          7           0       -0.935446    0.991754   -2.297709
     25          1           0       -1.382676    1.602898   -2.977748
     26          6           0        0.292812    0.295683   -2.610768
     27          1           0        0.183942   -0.778770   -2.423863
     28          1           0        0.507130    0.435298   -3.674522
     29          6           0        1.466439    0.861980   -1.801578
     30          8           0        1.669064    2.091215   -1.771121
     31          7           0        2.286815   -0.021320   -1.203535
     32          1           0        1.983161   -0.986550   -1.193100
     33          6           0        3.262686    0.350337   -0.177473
     34          1           0        3.530087   -0.551065    0.374462
     35          1           0        2.786933    1.032865    0.539172
     36          6           0        4.593949    0.982149   -0.614910
     37          8           0        5.581054    0.862689    0.095200
     38          7           0        4.609193    1.721304   -1.762386
     39          1           0        3.751812    1.874690   -2.274900
     40          6           0        5.839341    2.364283   -2.175247
     41          1           0        6.647925    1.627805   -2.202153
     42          1           0        5.700486    2.750568   -3.190530
     43          6           0        6.237807    3.541595   -1.269927
     44          8           0        5.402410    4.329016   -0.782722
     45          7           0        7.547740    3.712377   -1.100144
     46          1           0        8.237832    3.044191   -1.442575
     47          6           0        8.130376    4.782523   -0.316522
     48          1           0        7.876731    5.761029   -0.742162
     49          1           0        7.746270    4.762404    0.710698
     50          6           0        9.651941    4.559937   -0.332675
     51          8           0       10.139012    3.606322   -0.936566
     52          7           0       10.378978    5.467067    0.346933
     53          1           0        9.953193    6.241332    0.846260
     54          6           0       11.822859    5.386224    0.436212
     55          1           0       12.144689    4.439289    0.886244
     56          1           0       12.290113    5.436695   -0.554678
     57          6           0       12.307438    6.544891    1.286527
     58          8           0       11.574907    7.372169    1.786217
     59          8           0       13.641535    6.535407    1.412647
     60          1           0       13.889318    7.299688    1.967756
 ---------------------------------------------------------------------

 SCF Done:  E(RB3LYP) =  -1740.93131920     A.U. after    1 cycles

 Alpha  occ. eigenvalues --  -19.28389 -19.25847 -19.25666 -19.24133 -19.23106
 Alpha  occ. eigenvalues --  -19.22706 -19.22144 -19.21691 -19.21348 -14.54604
 Alpha  occ. eigenvalues --  -14.50089 -14.49504 -14.47331 -14.47283 -14.47144
 Alpha  occ. eigenvalues --  -14.45873 -14.45531 -10.43026 -10.42425 -10.41309
 Alpha  occ. eigenvalues --  -10.40751 -10.39886 -10.39793 -10.38695 -10.38570
 Alpha  occ. eigenvalues --  -10.38430 -10.34840 -10.34652 -10.34609 -10.34560
 Alpha  occ. eigenvalues --  -10.33265 -10.32779 -10.32323  -1.19567  -1.17862
 Alpha  occ. eigenvalues --   -1.17179  -1.15543  -1.14594  -1.14231  -1.13342
 Alpha  occ. eigenvalues --   -1.13332  -1.10765  -1.10137  -1.05909  -1.05442
 Alpha  occ. eigenvalues --   -1.03538  -1.03208  -1.03171  -1.02155  -1.01942
 Alpha  occ. eigenvalues --   -0.88950  -0.88333  -0.86805  -0.85290  -0.84024
 Alpha  occ. eigenvalues --   -0.82439  -0.80478  -0.79478  -0.72841  -0.72488
 Alpha  occ. eigenvalues --   -0.71975  -0.71007  -0.70059  -0.69893  -0.69758
 Alpha  occ. eigenvalues --   -0.69001  -0.68232  -0.68114  -0.65276  -0.65072
 Alpha  occ. eigenvalues --   -0.64488  -0.63757  -0.62503  -0.61991  -0.61351
 Alpha  occ. eigenvalues --   -0.60466  -0.59893  -0.59304  -0.58406  -0.58254
 Alpha  occ. eigenvalues --   -0.57824  -0.57648  -0.57145  -0.56881  -0.56507
 Alpha  occ. eigenvalues --   -0.56289  -0.54961  -0.54792  -0.54553  -0.54414
 Alpha  occ. eigenvalues --   -0.54052  -0.53370  -0.52765  -0.52412  -0.51817
 Alpha  occ. eigenvalues --   -0.51513  -0.50941  -0.50682  -0.50293  -0.50235
 Alpha  occ. eigenvalues --   -0.50054  -0.49036  -0.48770  -0.48495  -0.48235
 Alpha  occ. eigenvalues --   -0.47476  -0.47083  -0.46585  -0.45250  -0.40654
 Alpha  occ. eigenvalues --   -0.40618  -0.40424  -0.40383  -0.39736  -0.39156
 Alpha  occ. eigenvalues --   -0.38249  -0.37438  -0.37274  -0.36533  -0.35981
 Alpha  occ. eigenvalues --   -0.35683  -0.35504  -0.35400  -0.34804  -0.34218
 Alpha virt. eigenvalues --   -0.12231  -0.11490  -0.09580  -0.09527  -0.08473
 Alpha virt. eigenvalues --   -0.07783  -0.07769  -0.06547  -0.05618  -0.04384
 Alpha virt. eigenvalues --   -0.03736  -0.01226  -0.00261  -0.00224   0.00074

 Mulliken charges:
               1
     1  N   -0.798789
     2  H    0.453986
     3  H    0.400669
     4  H    0.429351
     5  C   -0.266567
     6  H    0.204794
     7  H    0.237867
     8  C    0.644180
     9  O   -0.521427
    10  N   -0.581394
    11  H    0.355780
    12  C   -0.239863
    13  H    0.206424
    14  H    0.209798
    15  C    0.601778
    16  O   -0.522704
    17  N   -0.568281
    18  H    0.367552
    19  C   -0.242095
    20  H    0.207998
    21  H    0.201912
    22  C    0.596314
    23  O   -0.516761
    24  N   -0.581662
    25  H    0.380853
    26  C   -0.214586
    27  H    0.184810
    28  H    0.195271
    29  C    0.636451
    30  O   -0.592459
    31  N   -0.562436
    32  H    0.366091
    33  C   -0.250648
    34  H    0.217518
    35  H    0.203781
    36  C    0.599680
    37  O   -0.486872
    38  N   -0.602076
    39  H    0.350235
    40  C   -0.242506
    41  H    0.204888
    42  H    0.191541
    43  C    0.665473
    44  O   -0.591014
    45  N   -0.590623
    46  H    0.377989
    47  C   -0.201322
    48  H    0.196278
    49  H    0.204031
    50  C    0.615613
    51  O   -0.519054
    52  N   -0.625859
    53  H    0.361370
    54  C   -0.181155
    55  H    0.218510
    56  H    0.216759
    57  C    0.572104
    58  O   -0.457494
    59  O   -0.550640
    60  H    0.430632
 Sum of Mulliken charges =   1.00000

 Dipole moment (field-independent basis, Debye):
    X=             16.4120    Y=             19.4696    Z=             -7.4904  Tot=             26.5429
 Quadrupole moment (field-independent basis, Debye-Ang):
   XX=            -26.2749   YY=            -71.9571   ZZ=           -165.0029
   XY=             95.7665   XZ=             -4.3047   YZ=            -19.0537

 Normal termination of Gaussian 16 at Tue Jul 19 19:37:53 2022.
