 Gaussian 16, Revision C.01,
 Gaussian 16:  ES64L-G16RevC.01  3-Jul-2019

 -------------------------------------------------------------------
 # B3LYP/6-31G* guess=read geom=check nosymm integral(ultrafinegrid)
 -------------------------------------------------------------------

 ------------------------------------------------------
 Candidate Structure: Conf:197 Charge calc in gas phase
 ------------------------------------------------------
 Structure from the checkpoint file:  "conf-197.chk"
 Charge =  1 Multiplicity = 1

                          Input orientation:
 ---------------------------------------------------------------------
 Center     Atomic      Atomic             Coordinates (Angstroms)
 Number     Number       Type             X           Y           Z
 ---------------------------------------------------------------------
      1          7           0       -1.622487    9.441466   -2.450654
      2          1           0       -1.381998   10.135512   -1.736279
      3          1           0       -1.413825    8.452902   -2.124568
      4          1           0       -1.043619    9.595598   -3.286055
      5          6           0       -3.078601    9.475234   -2.868595
      6          1           0       -3.266128   10.394950   -3.423585
      7          1           0       -3.689675    9.439862   -1.965108
      8          6           0       -3.149042    8.230453   -3.767761
      9          8           0       -2.467542    8.222417   -4.780079
     10          7           0       -3.798855    7.148598   -3.252068
     11          1           0       -4.243894    7.271029   -2.350664
     12          6           0       -3.182558    5.850798   -3.465208
     13          1           0       -3.891529    5.056106   -3.219477
     14          1           0       -2.919014    5.757864   -4.521836
     15          6           0       -1.899218    5.743300   -2.601524
     16          8           0       -1.391295    6.739920   -2.048308
     17          7           0       -1.383126    4.522621   -2.499408
     18          1           0       -1.817340    3.699690   -2.923485
     19          6           0       -0.174203    4.195777   -1.765734
     20          1           0       -0.256058    4.518946   -0.721520
     21          1           0        0.695956    4.701238   -2.201599
     22          6           0       -0.018560    2.666269   -1.858589
     23          8           0       -0.835232    1.999509   -2.494385
     24          7           0        1.039088    2.150450   -1.212744
     25          1           0        1.688591    2.715219   -0.670402
     26          6           0        1.312370    0.728651   -1.170544
     27          1           0        0.411273    0.174647   -0.881231
     28          1           0        1.617119    0.355887   -2.157385
     29          6           0        2.441753    0.511769   -0.156474
     30          8           0        3.019750    1.477672    0.352331
     31          7           0        2.758081   -0.771365    0.108842
     32          1           0        2.175818   -1.511511   -0.260680
     33          6           0        3.826198   -1.140428    1.041818
     34          1           0        4.669567   -0.463831    0.877350
     35          1           0        4.135339   -2.162281    0.821678
     36          6           0        3.358917   -1.100588    2.510776
     37          8           0        3.080246   -2.122208    3.119527
     38          7           0        3.287510    0.161146    3.033866
     39          1           0        3.419980    0.936637    2.391809
     40          6           0        2.752204    0.425381    4.359019
     41          1           0        1.847018    1.039556    4.306477
     42          1           0        2.475853   -0.540937    4.791571
     43          6           0        3.712557    1.131129    5.326425
     44          8           0        3.281155    1.727879    6.306719
     45          7           0        5.029413    1.015209    5.036752
     46          1           0        5.357735    0.519478    4.215606
     47          6           0        6.054143    1.563993    5.889167
     48          1           0        5.922572    2.647736    6.012476
     49          1           0        6.004469    1.129193    6.896921
     50          6           0        7.412300    1.267207    5.246862
     51          8           0        7.505957    0.707236    4.156242
     52          7           0        8.489399    1.667746    5.961512
     53          1           0        8.400026    2.102130    6.873333
     54          6           0        9.838562    1.436056    5.496853
     55          1           0       10.024272    0.369751    5.316273
     56          1           0       10.031845    1.947268    4.545274
     57          6           0       10.806777    1.945297    6.544905
     58          8           0       10.476955    2.458246    7.592415
     59          8           0       12.082817    1.757295    6.166650
     60          1           0       12.647575    2.101252    6.884878
 ---------------------------------------------------------------------

 SCF Done:  E(RB3LYP) =  -1740.88731212     A.U. after    1 cycles

 Alpha  occ. eigenvalues --  -19.27273 -19.26752 -19.26207 -19.22710 -19.22343
 Alpha  occ. eigenvalues --  -19.20821 -19.17804 -19.17622 -19.15241 -14.61276
 Alpha  occ. eigenvalues --  -14.51139 -14.49334 -14.46581 -14.46495 -14.42230
 Alpha  occ. eigenvalues --  -14.42086 -14.40249 -10.44783 -10.43239 -10.41624
 Alpha  occ. eigenvalues --  -10.40047 -10.39417 -10.38981 -10.36945 -10.35230
 Alpha  occ. eigenvalues --  -10.34990 -10.34874 -10.33281 -10.32941 -10.30761
 Alpha  occ. eigenvalues --  -10.29723 -10.28254 -10.27815  -1.20155  -1.17575
 Alpha  occ. eigenvalues --   -1.17308  -1.15218  -1.14859  -1.13937  -1.09755
 Alpha  occ. eigenvalues --   -1.09651  -1.08423  -1.07650  -1.07274  -1.05684
 Alpha  occ. eigenvalues --   -1.03057  -1.02250  -0.98626  -0.98485  -0.96385
 Alpha  occ. eigenvalues --   -0.91399  -0.88394  -0.85612  -0.83133  -0.82440
 Alpha  occ. eigenvalues --   -0.80402  -0.78161  -0.76125  -0.75235  -0.74406
 Alpha  occ. eigenvalues --   -0.73571  -0.71850  -0.69941  -0.68606  -0.68103
 Alpha  occ. eigenvalues --   -0.68001  -0.66276  -0.65274  -0.64786  -0.64037
 Alpha  occ. eigenvalues --   -0.63257  -0.62955  -0.61556  -0.60589  -0.60137
 Alpha  occ. eigenvalues --   -0.60087  -0.58655  -0.58073  -0.57891  -0.57102
 Alpha  occ. eigenvalues --   -0.56973  -0.56361  -0.55425  -0.55282  -0.55101
 Alpha  occ. eigenvalues --   -0.54951  -0.54588  -0.53944  -0.53436  -0.52367
 Alpha  occ. eigenvalues --   -0.51869  -0.51612  -0.51329  -0.50664  -0.50615
 Alpha  occ. eigenvalues --   -0.49506  -0.49367  -0.48351  -0.48128  -0.47583
 Alpha  occ. eigenvalues --   -0.47396  -0.46396  -0.45856  -0.45689  -0.45204
 Alpha  occ. eigenvalues --   -0.44152  -0.43337  -0.42448  -0.42387  -0.41221
 Alpha  occ. eigenvalues --   -0.40011  -0.39761  -0.39465  -0.38452  -0.37547
 Alpha  occ. eigenvalues --   -0.37058  -0.36319  -0.35577  -0.34853  -0.32922
 Alpha  occ. eigenvalues --   -0.31896  -0.31629  -0.31088  -0.29662  -0.28641
 Alpha virt. eigenvalues --   -0.15514  -0.11801  -0.10460  -0.08454  -0.07537
 Alpha virt. eigenvalues --   -0.06928  -0.05450  -0.05394  -0.04613  -0.03224
 Alpha virt. eigenvalues --   -0.02878  -0.01598  -0.01378  -0.00870  -0.00685

 Mulliken charges:
               1
     1  N   -0.755225
     2  H    0.416861
     3  H    0.456887
     4  H    0.425078
     5  C   -0.266679
     6  H    0.249580
     7  H    0.218870
     8  C    0.583024
     9  O   -0.467165
    10  N   -0.535143
    11  H    0.347361
    12  C   -0.270406
    13  H    0.212154
    14  H    0.248394
    15  C    0.643213
    16  O   -0.587671
    17  N   -0.598807
    18  H    0.380152
    19  C   -0.204787
    20  H    0.203330
    21  H    0.203735
    22  C    0.616404
    23  O   -0.523826
    24  N   -0.623211
    25  H    0.365196
    26  C   -0.196516
    27  H    0.203054
    28  H    0.207408
    29  C    0.611895
    30  O   -0.541432
    31  N   -0.588788
    32  H    0.353744
    33  C   -0.244115
    34  H    0.202120
    35  H    0.198454
    36  C    0.586455
    37  O   -0.485933
    38  N   -0.617079
    39  H    0.362365
    40  C   -0.226359
    41  H    0.173968
    42  H    0.223126
    43  C    0.594433
    44  O   -0.523895
    45  N   -0.608357
    46  H    0.355459
    47  C   -0.185892
    48  H    0.188059
    49  H    0.191051
    50  C    0.603471
    51  O   -0.530105
    52  N   -0.625269
    53  H    0.359085
    54  C   -0.173958
    55  H    0.211182
    56  H    0.205893
    57  C    0.567080
    58  O   -0.456493
    59  O   -0.556652
    60  H    0.425224
 Sum of Mulliken charges =   1.00000

 Dipole moment (field-independent basis, Debye):
    X=             -2.2566    Y=             34.9337    Z=             -9.7622  Tot=             36.3422
 Quadrupole moment (field-independent basis, Debye-Ang):
   XX=            -73.7552   YY=            126.7803   ZZ=           -184.9033
   XY=            -65.4828   XZ=             51.3838   YZ=            -65.0500

 Normal termination of Gaussian 16 at Tue Jul 19 19:37:51 2022.
