 Gaussian 16, Revision C.01,
 Gaussian 16:  ES64L-G16RevC.01  3-Jul-2019

 -------------------------------------------------------------------
 # B3LYP/6-31G* guess=read geom=check nosymm integral(ultrafinegrid)
 -------------------------------------------------------------------

 -----------------------------------------------------
 Candidate Structure: Conf:84 Charge calc in gas phase
 -----------------------------------------------------
 Structure from the checkpoint file:  "conf-84.chk"
 Charge =  1 Multiplicity = 1

                          Input orientation:
 ---------------------------------------------------------------------
 Center     Atomic      Atomic             Coordinates (Angstroms)
 Number     Number       Type             X           Y           Z
 ---------------------------------------------------------------------
      1          7           0       -2.506989    2.500967   -4.223049
      2          1           0       -2.004745    2.516432   -3.289404
      3          1           0       -2.982568    1.609230   -4.380009
      4          1           0       -1.775653    2.669799   -4.937142
      5          6           0       -3.417604    3.689410   -4.290981
      6          1           0       -4.007795    3.731669   -3.374487
      7          1           0       -4.078183    3.581782   -5.155560
      8          6           0       -2.448468    4.874880   -4.467411
      9          8           0       -1.377903    4.655616   -5.027137
     10          7           0       -2.799073    6.062485   -3.936217
     11          1           0       -3.707828    6.178609   -3.506816
     12          6           0       -1.794136    7.123590   -3.808705
     13          1           0       -1.359292    7.356067   -4.781803
     14          1           0       -2.288889    8.018822   -3.423517
     15          6           0       -0.623555    6.714389   -2.884649
     16          8           0        0.501839    7.131012   -3.077203
     17          7           0       -0.974588    5.890324   -1.842852
     18          1           0       -1.899670    5.484756   -1.863369
     19          6           0        0.005907    5.076397   -1.163362
     20          1           0       -0.011809    5.250850   -0.079104
     21          1           0        0.996953    5.365901   -1.526599
     22          6           0       -0.266901    3.587042   -1.422378
     23          8           0       -1.350914    3.218849   -1.933796
     24          7           0        0.681206    2.743489   -1.028902
     25          1           0        1.546044    3.062378   -0.584160
     26          6           0        0.586945    1.297523   -1.071553
     27          1           0       -0.327954    0.953362   -0.575235
     28          1           0        0.565953    0.932789   -2.106502
     29          6           0        1.841380    0.761737   -0.348936
     30          8           0        2.675007    1.549700    0.097564
     31          7           0        1.928289   -0.572169   -0.266361
     32          1           0        1.229782   -1.206719   -0.651683
     33          6           0        3.037264   -1.264132    0.358054
     34          1           0        3.116954   -1.000236    1.419874
     35          1           0        3.987015   -0.988124   -0.116188
     36          6           0        2.761649   -2.767953    0.191583
     37          8           0        1.744452   -3.156800   -0.387495
     38          7           0        3.689502   -3.585716    0.712209
     39          1           0        4.524309   -3.249468    1.188718
     40          6           0        3.595021   -5.028347    0.650462
     41          1           0        2.681863   -5.382871    1.145164
     42          1           0        3.550767   -5.374016   -0.390108
     43          6           0        4.840683   -5.589712    1.352413
     44          8           0        5.685048   -4.836684    1.837999
     45          7           0        4.926761   -6.932064    1.389941
     46          1           0        4.225039   -7.545719    0.983305
     47          6           0        6.034303   -7.624179    2.010438
     48          1           0        6.985710   -7.339766    1.542531
     49          1           0        6.112979   -7.364219    3.074079
     50          6           0        5.783044   -9.127998    1.843672
     51          8           0        4.781506   -9.547925    1.267012
     52          7           0        6.728657   -9.935779    2.369257
     53          1           0        7.549125   -9.572119    2.842073
     54          6           0        6.630958  -11.377336    2.291290
     55          1           0        5.719057  -11.745765    2.777336
     56          1           0        6.588215  -11.722080    1.250681
     57          6           0        7.844334  -11.977652    2.972741
     58          8           0        8.729855  -11.328840    3.486969
     59          8           0        7.814236  -13.319449    2.934695
     60          1           0        8.618130  -13.638932    3.387449
 ---------------------------------------------------------------------

 SCF Done:  E(RB3LYP) =  -1740.90557695     A.U. after    2 cycles

 Alpha  occ. eigenvalues --  -19.27059 -19.26623 -19.25857 -19.21666 -19.21554
 Alpha  occ. eigenvalues --  -19.21270 -19.19785 -19.18725 -19.18688 -14.59438
 Alpha  occ. eigenvalues --  -14.51324 -14.48429 -14.46389 -14.45211 -14.43546
 Alpha  occ. eigenvalues --  -14.43025 -14.42735 -10.44517 -10.42156 -10.41029
 Alpha  occ. eigenvalues --  -10.39448 -10.39284 -10.38940 -10.37031 -10.36013
 Alpha  occ. eigenvalues --  -10.35974 -10.34804 -10.34482 -10.34012 -10.31464
 Alpha  occ. eigenvalues --  -10.30308 -10.30297 -10.29848  -1.19729  -1.17752
 Alpha  occ. eigenvalues --   -1.16743  -1.14022  -1.13669  -1.13426  -1.11747
 Alpha  occ. eigenvalues --   -1.10989  -1.10255  -1.08898  -1.07259  -1.04801
 Alpha  occ. eigenvalues --   -1.02804  -1.01727  -1.00054  -0.99572  -0.99068
 Alpha  occ. eigenvalues --   -0.90602  -0.87690  -0.85192  -0.84142  -0.82992
 Alpha  occ. eigenvalues --   -0.81188  -0.79276  -0.76416  -0.74837  -0.74030
 Alpha  occ. eigenvalues --   -0.73263  -0.70949  -0.69178  -0.68913  -0.68421
 Alpha  occ. eigenvalues --   -0.66978  -0.66871  -0.66111  -0.65996  -0.65194
 Alpha  occ. eigenvalues --   -0.63610  -0.62799  -0.61235  -0.60886  -0.59734
 Alpha  occ. eigenvalues --   -0.59525  -0.58969  -0.58091  -0.57028  -0.56320
 Alpha  occ. eigenvalues --   -0.56050  -0.55826  -0.55724  -0.55634  -0.55090
 Alpha  occ. eigenvalues --   -0.54960  -0.54338  -0.54191  -0.53880  -0.53730
 Alpha  occ. eigenvalues --   -0.52988  -0.52635  -0.52290  -0.52050  -0.51292
 Alpha  occ. eigenvalues --   -0.50429  -0.50128  -0.49120  -0.49004  -0.48354
 Alpha  occ. eigenvalues --   -0.47369  -0.47109  -0.46571  -0.46527  -0.45774
 Alpha  occ. eigenvalues --   -0.45470  -0.45002  -0.43423  -0.41925  -0.41662
 Alpha  occ. eigenvalues --   -0.41122  -0.40260  -0.38886  -0.38871  -0.36299
 Alpha  occ. eigenvalues --   -0.35956  -0.35353  -0.35142  -0.35091  -0.34328
 Alpha  occ. eigenvalues --   -0.33629  -0.33345  -0.32818  -0.32248  -0.31598
 Alpha virt. eigenvalues --   -0.13747  -0.10773  -0.09461  -0.08313  -0.07099
 Alpha virt. eigenvalues --   -0.06468  -0.05911  -0.05325  -0.04482  -0.03629
 Alpha virt. eigenvalues --   -0.03510  -0.02230  -0.01489  -0.00515   0.00145

 Mulliken charges:
               1
     1  N   -0.751575
     2  H    0.447448
     3  H    0.407867
     4  H    0.420382
     5  C   -0.278886
     6  H    0.224195
     7  H    0.243161
     8  C    0.643838
     9  O   -0.495366
    10  N   -0.610442
    11  H    0.355691
    12  C   -0.235721
    13  H    0.235189
    14  H    0.208980
    15  C    0.595746
    16  O   -0.467935
    17  N   -0.568578
    18  H    0.321179
    19  C   -0.237780
    20  H    0.208245
    21  H    0.231453
    22  C    0.632030
    23  O   -0.615161
    24  N   -0.586644
    25  H    0.384637
    26  C   -0.209712
    27  H    0.198000
    28  H    0.181336
    29  C    0.618286
    30  O   -0.521650
    31  N   -0.623389
    32  H    0.360234
    33  C   -0.197897
    34  H    0.201572
    35  H    0.202113
    36  C    0.610920
    37  O   -0.538825
    38  N   -0.622612
    39  H    0.365365
    40  C   -0.194247
    41  H    0.195745
    42  H    0.195084
    43  C    0.609345
    44  O   -0.530361
    45  N   -0.624767
    46  H    0.362222
    47  C   -0.192893
    48  H    0.196425
    49  H    0.196327
    50  C    0.609151
    51  O   -0.525614
    52  N   -0.626217
    53  H    0.360903
    54  C   -0.176854
    55  H    0.212436
    56  H    0.212343
    57  C    0.569031
    58  O   -0.456309
    59  O   -0.554577
    60  H    0.427140
 Sum of Mulliken charges =   1.00000

 Dipole moment (field-independent basis, Debye):
    X=             -6.8243    Y=              2.3721    Z=            -10.7853  Tot=             12.9816
 Quadrupole moment (field-independent basis, Debye-Ang):
   XX=           -102.2070   YY=            -22.4611   ZZ=           -127.9722
   XY=           -138.7340   XZ=             67.9821   YZ=            -67.9808

 Normal termination of Gaussian 16 at Tue Jul 19 19:37:51 2022.
