 Gaussian 16, Revision C.01,
 Gaussian 16:  ES64L-G16RevC.01  3-Jul-2019

 -------------------------------------------------------------------
 # B3LYP/6-31G* guess=read geom=check nosymm integral(ultrafinegrid)
 -------------------------------------------------------------------

 ------------------------------------------------------
 Candidate Structure: Conf:394 Charge calc in gas phase
 ------------------------------------------------------
 Structure from the checkpoint file:  "conf-394.chk"
 Charge =  1 Multiplicity = 1

                          Input orientation:
 ---------------------------------------------------------------------
 Center     Atomic      Atomic             Coordinates (Angstroms)
 Number     Number       Type             X           Y           Z
 ---------------------------------------------------------------------
      1          7           0       -4.032621    0.243449   -0.132129
      2          1           0       -4.134981   -0.742588   -0.383695
      3          1           0       -3.757831    0.815734   -0.950880
      4          1           0       -3.266165    0.385256    0.585858
      5          6           0       -5.292635    0.865917    0.388820
      6          1           0       -5.457268    0.521597    1.410788
      7          1           0       -6.128412    0.560990   -0.246743
      8          6           0       -5.020059    2.378592    0.273430
      9          8           0       -4.246938    2.751541   -0.604485
     10          7           0       -5.586468    3.194242    1.184035
     11          1           0       -6.234011    2.822276    1.866720
     12          6           0       -5.119893    4.579853    1.304164
     13          1           0       -5.213936    5.098407    0.349007
     14          1           0       -5.745433    5.088824    2.041885
     15          6           0       -3.630329    4.662936    1.710977
     16          8           0       -2.925862    5.576106    1.327630
     17          7           0       -3.205251    3.657569    2.545587
     18          1           0       -3.826263    2.872285    2.680695
     19          6           0       -1.805400    3.327703    2.674189
     20          1           0       -1.485688    3.345006    3.724848
     21          1           0       -1.227938    4.090417    2.142449
     22          6           0       -1.532091    1.927497    2.104588
     23          8           0       -2.480482    1.153628    1.834735
     24          7           0       -0.252592    1.592470    1.973056
     25          1           0        0.506458    2.228175    2.231266
     26          6           0        0.235385    0.289149    1.567367
     27          1           0       -0.212591   -0.501191    2.180982
     28          1           0       -0.013209    0.082299    0.518511
     29          6           0        1.767643    0.325945    1.748581
     30          8           0        2.314473    1.354969    2.144586
     31          7           0        2.409197   -0.810316    1.444069
     32          1           0        1.938678   -1.650104    1.109846
     33          6           0        3.846472   -0.962682    1.539464
     34          1           0        4.190298   -0.800522    2.568506
     35          1           0        4.360131   -0.227904    0.907188
     36          6           0        4.166859   -2.393488    1.077423
     37          8           0        3.265616   -3.149001    0.708149
     38          7           0        5.465879   -2.734589    1.113457
     39          1           0        6.192157   -2.098677    1.431771
     40          6           0        5.944454   -4.044150    0.722662
     41          1           0        5.326188   -4.826476    1.176135
     42          1           0        5.901996   -4.171774   -0.367661
     43          6           0        7.405654   -4.152360    1.158197
     44          8           0        8.029717   -3.155090    1.531012
     45          7           0        7.946840   -5.391268    1.101867
     46          1           0        7.425970   -6.121433    0.632054
     47          6           0        9.385790   -5.607809    1.271955
     48          1           0        9.728309   -4.969600    2.089906
     49          1           0        9.556656   -6.653945    1.527048
     50          6           0       10.119749   -5.299946   -0.042769
     51          8           0       10.466461   -6.181609   -0.813398
     52          7           0       10.291917   -3.959956   -0.282899
     53          1           0        9.783734   -3.325788    0.327407
     54          6           0       10.556226   -3.516787   -1.629803
     55          1           0       11.069826   -2.549894   -1.628120
     56          1           0       11.214867   -4.240626   -2.117062
     57          6           0        9.276256   -3.398279   -2.453319
     58          8           0        8.155667   -3.635534   -2.055541
     59          8           0        9.548301   -2.981579   -3.705586
     60          1           0        8.698934   -2.938555   -4.184150
 ---------------------------------------------------------------------

 SCF Done:  E(RB3LYP) =  -1740.90189976     A.U. after    1 cycles

 Alpha  occ. eigenvalues --  -19.27266 -19.26095 -19.26036 -19.21947 -19.21877
 Alpha  occ. eigenvalues --  -19.20697 -19.20478 -19.20373 -19.17400 -14.59675
 Alpha  occ. eigenvalues --  -14.51525 -14.48690 -14.46614 -14.45651 -14.44700
 Alpha  occ. eigenvalues --  -14.44319 -14.41453 -10.44723 -10.42402 -10.41242
 Alpha  occ. eigenvalues --  -10.39496 -10.39333 -10.38579 -10.37655 -10.37548
 Alpha  occ. eigenvalues --  -10.35000 -10.34805 -10.34541 -10.34240 -10.31994
 Alpha  occ. eigenvalues --  -10.30977 -10.29587 -10.29298  -1.19938  -1.17017
 Alpha  occ. eigenvalues --   -1.16986  -1.14247  -1.14038  -1.13687  -1.12627
 Alpha  occ. eigenvalues --   -1.11899  -1.09321  -1.08010  -1.07462  -1.05072
 Alpha  occ. eigenvalues --   -1.03023  -1.02165  -1.00839  -1.00519  -0.98082
 Alpha  occ. eigenvalues --   -0.90816  -0.87994  -0.85531  -0.84391  -0.82619
 Alpha  occ. eigenvalues --   -0.81019  -0.79290  -0.76663  -0.75067  -0.74241
 Alpha  occ. eigenvalues --   -0.73496  -0.71225  -0.69299  -0.69138  -0.68614
 Alpha  occ. eigenvalues --   -0.67316  -0.67155  -0.66354  -0.66219  -0.63910
 Alpha  occ. eigenvalues --   -0.63681  -0.63062  -0.61464  -0.61126  -0.59893
 Alpha  occ. eigenvalues --   -0.59778  -0.59161  -0.58416  -0.57976  -0.57057
 Alpha  occ. eigenvalues --   -0.56608  -0.56369  -0.56252  -0.55516  -0.55363
 Alpha  occ. eigenvalues --   -0.55075  -0.54920  -0.54158  -0.54090  -0.53677
 Alpha  occ. eigenvalues --   -0.53257  -0.52407  -0.52073  -0.51574  -0.51512
 Alpha  occ. eigenvalues --   -0.50352  -0.49661  -0.49305  -0.48636  -0.47800
 Alpha  occ. eigenvalues --   -0.47290  -0.47044  -0.46785  -0.46525  -0.46349
 Alpha  occ. eigenvalues --   -0.45587  -0.44290  -0.43678  -0.43078  -0.41864
 Alpha  occ. eigenvalues --   -0.41327  -0.40488  -0.39145  -0.38335  -0.36646
 Alpha  occ. eigenvalues --   -0.36236  -0.35860  -0.35395  -0.35311  -0.34971
 Alpha  occ. eigenvalues --   -0.34579  -0.34046  -0.33496  -0.31800  -0.30187
 Alpha virt. eigenvalues --   -0.13952  -0.11013  -0.09679  -0.08521  -0.07498
 Alpha virt. eigenvalues --   -0.06676  -0.06577  -0.05532  -0.05237  -0.03847
 Alpha virt. eigenvalues --   -0.03661  -0.02453  -0.01694  -0.00824  -0.00143

 Mulliken charges:
               1
     1  N   -0.751491
     2  H    0.408001
     3  H    0.420479
     4  H    0.447438
     5  C   -0.279170
     6  H    0.224343
     7  H    0.243597
     8  C    0.644119
     9  O   -0.495415
    10  N   -0.610621
    11  H    0.355958
    12  C   -0.235693
    13  H    0.235412
    14  H    0.209384
    15  C    0.595946
    16  O   -0.467840
    17  N   -0.568447
    18  H    0.321044
    19  C   -0.238230
    20  H    0.208270
    21  H    0.231556
    22  C    0.632195
    23  O   -0.614412
    24  N   -0.586958
    25  H    0.384531
    26  C   -0.209387
    27  H    0.197944
    28  H    0.182211
    29  C    0.618255
    30  O   -0.521127
    31  N   -0.623692
    32  H    0.360607
    33  C   -0.197698
    34  H    0.201644
    35  H    0.202017
    36  C    0.611946
    37  O   -0.536492
    38  N   -0.622490
    39  H    0.363627
    40  C   -0.199015
    41  H    0.193793
    42  H    0.220044
    43  C    0.624121
    44  O   -0.546332
    45  N   -0.584575
    46  H    0.350949
    47  C   -0.244102
    48  H    0.200397
    49  H    0.193228
    50  C    0.588952
    51  O   -0.493331
    52  N   -0.572476
    53  H    0.363301
    54  C   -0.239519
    55  H    0.196904
    56  H    0.230969
    57  C    0.584621
    58  O   -0.475817
    59  O   -0.550553
    60  H    0.417079
 Sum of Mulliken charges =   1.00000

 Dipole moment (field-independent basis, Debye):
    X=            -12.1513    Y=             -1.5006    Z=              4.3782  Tot=             13.0029
 Quadrupole moment (field-independent basis, Debye-Ang):
   XX=            -42.4427   YY=           -187.4451   ZZ=           -166.7304
   XY=            -29.7992   XZ=            -16.1187   YZ=              3.8501

 Normal termination of Gaussian 16 at Tue Jul 19 19:37:52 2022.
