 Gaussian 16, Revision C.01,
 Gaussian 16:  ES64L-G16RevC.01  3-Jul-2019

 -------------------------------------------------------------------
 # B3LYP/6-31G* guess=read geom=check nosymm integral(ultrafinegrid)
 -------------------------------------------------------------------

 -----------------------------------------------------
 Candidate Structure: Conf:64 Charge calc in gas phase
 -----------------------------------------------------
 Structure from the checkpoint file:  "conf-64.chk"
 Charge =  1 Multiplicity = 1

                          Input orientation:
 ---------------------------------------------------------------------
 Center     Atomic      Atomic             Coordinates (Angstroms)
 Number     Number       Type             X           Y           Z
 ---------------------------------------------------------------------
      1          7           0       -8.391613    8.199041    0.182871
      2          1           0       -8.764274    8.609856   -0.677581
      3          1           0       -8.791679    7.210871    0.324574
      4          1           0       -8.655053    8.801103    0.967839
      5          6           0       -6.918647    7.899552    0.120038
      6          1           0       -6.399950    8.430076    0.920392
      7          1           0       -6.517922    8.221172   -0.842809
      8          6           0       -6.854770    6.357451    0.298102
      9          8           0       -7.937502    5.767967    0.438225
     10          7           0       -5.655387    5.803811    0.285365
     11          1           0       -4.781085    6.328501    0.167756
     12          6           0       -5.403174    4.378565    0.438850
     13          1           0       -5.791125    4.017566    1.397893
     14          1           0       -5.895447    3.809807   -0.357933
     15          6           0       -3.869656    4.229255    0.364849
     16          8           0       -3.169246    5.231634    0.200076
     17          7           0       -3.399810    2.983661    0.488877
     18          1           0       -3.997752    2.169875    0.629891
     19          6           0       -1.987321    2.660618    0.449487
     20          1           0       -1.441887    3.202408    1.231812
     21          1           0       -1.546942    2.949694   -0.512805
     22          6           0       -1.878527    1.142455    0.660400
     23          8           0       -2.888883    0.454779    0.805529
     24          7           0       -0.627930    0.645290    0.672716
     25          1           0        0.198956    1.225676    0.562378
     26          6           0       -0.359349   -0.762658    0.870085
     27          1           0       -0.850750   -1.124465    1.782118
     28          1           0       -0.754352   -1.359559    0.037215
     29          6           0        1.158475   -0.939348    0.967018
     30          8           0        1.918986    0.019815    0.800552
     31          7           0        1.592168   -2.191621    1.222295
     32          1           0        0.920015   -2.916380    1.437043
     33          6           0        3.015052   -2.531537    1.286893
     34          1           0        3.527952   -1.995364    0.482779
     35          1           0        3.119691   -3.604960    1.128723
     36          6           0        3.643332   -2.201979    2.655432
     37          8           0        3.898914   -3.075185    3.468747
     38          7           0        3.883568   -0.865163    2.850599
     39          1           0        3.477747   -0.225080    2.172215
     40          6           0        4.293515   -0.347489    4.145648
     41          1           0        3.511295    0.272770    4.596925
     42          1           0        4.451594   -1.209120    4.801741
     43          6           0        5.571671    0.494395    4.142613
     44          8           0        5.821428    1.234807    5.094967
     45          7           0        6.385200    0.355041    3.069965
     46          1           0        6.149665   -0.348494    2.383478
     47          6           0        7.638836    1.089969    2.933640
     48          1           0        7.916180    1.118053    1.879382
     49          1           0        7.469521    2.112198    3.288620
     50          6           0        8.826649    0.473586    3.697700
     51          8           0        9.821413    0.067894    3.111725
     52          7           0        8.655660    0.430451    5.049619
     53          1           0        7.817437    0.858869    5.434446
     54          6           0        9.701556   -0.033168    5.928475
     55          1           0        9.319034   -0.748207    6.664177
     56          1           0       10.439104   -0.555703    5.310465
     57          6           0       10.446624    1.047064    6.704469
     58          8           0       11.172371    0.809766    7.642386
     59          8           0       10.229498    2.293547    6.227877
     60          1           0       10.773603    2.886607    6.780278
 ---------------------------------------------------------------------

 SCF Done:  E(RB3LYP) =  -1740.88191982     A.U. after    1 cycles

 Alpha  occ. eigenvalues --  -19.29263 -19.23718 -19.23089 -19.22502 -19.21790
 Alpha  occ. eigenvalues --  -19.18700 -19.17325 -19.16943 -19.15053 -14.62673
 Alpha  occ. eigenvalues --  -14.51672 -14.47239 -14.46727 -14.45857 -14.43007
 Alpha  occ. eigenvalues --  -14.42413 -14.39243 -10.46106 -10.43144 -10.40985
 Alpha  occ. eigenvalues --  -10.39551 -10.39092 -10.36260 -10.36032 -10.35349
 Alpha  occ. eigenvalues --  -10.34780 -10.33459 -10.33030 -10.32393 -10.31361
 Alpha  occ. eigenvalues --  -10.28962 -10.27771 -10.26734  -1.21731  -1.16353
 Alpha  occ. eigenvalues --   -1.15665  -1.14462  -1.13838  -1.13545  -1.10606
 Alpha  occ. eigenvalues --   -1.09274  -1.08179  -1.06850  -1.04720  -1.03744
 Alpha  occ. eigenvalues --   -1.02590  -1.02211  -0.99552  -0.97745  -0.95721
 Alpha  occ. eigenvalues --   -0.92633  -0.87739  -0.85749  -0.83199  -0.81194
 Alpha  occ. eigenvalues --   -0.79437  -0.77544  -0.76557  -0.76456  -0.74907
 Alpha  occ. eigenvalues --   -0.74220  -0.70822  -0.69431  -0.68774  -0.68375
 Alpha  occ. eigenvalues --   -0.65866  -0.65667  -0.65266  -0.64351  -0.64020
 Alpha  occ. eigenvalues --   -0.63109  -0.62090  -0.61534  -0.60713  -0.60129
 Alpha  occ. eigenvalues --   -0.59891  -0.58517  -0.58107  -0.57840  -0.56994
 Alpha  occ. eigenvalues --   -0.56758  -0.56560  -0.55875  -0.55293  -0.54445
 Alpha  occ. eigenvalues --   -0.53692  -0.53432  -0.52338  -0.51358  -0.51246
 Alpha  occ. eigenvalues --   -0.50790  -0.50536  -0.50010  -0.49488  -0.48977
 Alpha  occ. eigenvalues --   -0.48878  -0.48826  -0.48291  -0.47737  -0.46985
 Alpha  occ. eigenvalues --   -0.46271  -0.45487  -0.45368  -0.44763  -0.44344
 Alpha  occ. eigenvalues --   -0.44198  -0.43116  -0.42272  -0.41625  -0.41584
 Alpha  occ. eigenvalues --   -0.40755  -0.38388  -0.37465  -0.37202  -0.36789
 Alpha  occ. eigenvalues --   -0.35696  -0.35048  -0.34870  -0.33939  -0.32839
 Alpha  occ. eigenvalues --   -0.32114  -0.31894  -0.30473  -0.28328  -0.28053
 Alpha virt. eigenvalues --   -0.14305  -0.13828  -0.09226  -0.08356  -0.08236
 Alpha virt. eigenvalues --   -0.06927  -0.06827  -0.05439  -0.03807  -0.03357
 Alpha virt. eigenvalues --   -0.02444  -0.02150  -0.01301  -0.01094  -0.00581

 Mulliken charges:
               1
     1  N   -0.750268
     2  H    0.424810
     3  H    0.441540
     4  H    0.424866
     5  C   -0.277111
     6  H    0.250634
     7  H    0.250609
     8  C    0.640573
     9  O   -0.522240
    10  N   -0.605764
    11  H    0.382006
    12  C   -0.211371
    13  H    0.216851
    14  H    0.216977
    15  C    0.620914
    16  O   -0.531513
    17  N   -0.622882
    18  H    0.370145
    19  C   -0.199319
    20  H    0.203407
    21  H    0.204161
    22  C    0.613557
    23  O   -0.526548
    24  N   -0.625490
    25  H    0.365075
    26  C   -0.192433
    27  H    0.202205
    28  H    0.205070
    29  C    0.609806
    30  O   -0.541590
    31  N   -0.589669
    32  H    0.354819
    33  C   -0.240705
    34  H    0.195939
    35  H    0.200241
    36  C    0.583090
    37  O   -0.478707
    38  N   -0.627205
    39  H    0.367448
    40  C   -0.226620
    41  H    0.184865
    42  H    0.228559
    43  C    0.600592
    44  O   -0.536111
    45  N   -0.575887
    46  H    0.344680
    47  C   -0.240093
    48  H    0.181879
    49  H    0.195948
    50  C    0.594314
    51  O   -0.502797
    52  N   -0.592169
    53  H    0.370209
    54  C   -0.229500
    55  H    0.190912
    56  H    0.227772
    57  C    0.576754
    58  O   -0.453564
    59  O   -0.555192
    60  H    0.413523
 Sum of Mulliken charges =   1.00000

 Dipole moment (field-independent basis, Debye):
    X=            -34.4769    Y=             31.2247    Z=             -1.8754  Tot=             46.5527
 Quadrupole moment (field-independent basis, Debye-Ang):
   XX=            -17.8813   YY=             84.5409   ZZ=           -209.3203
   XY=           -243.6657   XZ=            -36.0392   YZ=             12.6880

 Normal termination of Gaussian 16 at Tue Jul 19 19:37:45 2022.
