 Gaussian 16, Revision C.01,
 Gaussian 16:  ES64L-G16RevC.01  3-Jul-2019

 -------------------------------------------------------------------
 # B3LYP/6-31G* guess=read geom=check nosymm integral(ultrafinegrid)
 -------------------------------------------------------------------

 ------------------------------------------------------
 Candidate Structure: Conf:510 Charge calc in gas phase
 ------------------------------------------------------
 Structure from the checkpoint file:  "conf-510.chk"
 Charge =  1 Multiplicity = 1

                          Input orientation:
 ---------------------------------------------------------------------
 Center     Atomic      Atomic             Coordinates (Angstroms)
 Number     Number       Type             X           Y           Z
 ---------------------------------------------------------------------
      1          7           0        2.259694    0.527497   -4.260450
      2          1           0        2.491302   -0.314840   -4.854594
      3          1           0        2.421232    0.264973   -3.278565
      4          1           0        1.260814    0.769025   -4.331321
      5          6           0        3.083546    1.755072   -4.523142
      6          1           0        2.799899    2.160995   -5.495283
      7          1           0        4.128953    1.443346   -4.515737
      8          6           0        2.754514    2.655000   -3.329778
      9          8           0        2.859121    2.187478   -2.201579
     10          7           0        2.236823    3.892440   -3.588520
     11          1           0        2.044475    4.084889   -4.564290
     12          6           0        1.192833    4.331918   -2.679828
     13          1           0        1.572693    4.309474   -1.655603
     14          1           0        0.907840    5.360991   -2.917960
     15          6           0       -0.018480    3.373286   -2.821755
     16          8           0        0.001087    2.428067   -3.612374
     17          7           0       -1.081347    3.626048   -2.023584
     18          1           0       -1.074338    4.453284   -1.440689
     19          6           0       -2.329049    2.878700   -2.173221
     20          1           0       -2.636901    2.861181   -3.221499
     21          1           0       -3.104257    3.396540   -1.601572
     22          6           0       -2.293773    1.413406   -1.713840
     23          8           0       -3.125628    0.625512   -2.138953
     24          7           0       -1.348665    1.086531   -0.790860
     25          1           0       -0.596957    1.724860   -0.561965
     26          6           0       -1.179792   -0.280348   -0.358991
     27          1           0       -1.704642   -0.470925    0.589727
     28          1           0       -1.630510   -0.941568   -1.107129
     29          6           0        0.301883   -0.575122   -0.147005
     30          8           0        1.129705    0.331566   -0.025136
     31          7           0        0.638544   -1.886120   -0.064294
     32          1           0       -0.080997   -2.586546   -0.184154
     33          6           0        1.943038   -2.324284    0.426496
     34          1           0        1.856230   -3.358950    0.758058
     35          1           0        2.225178   -1.699154    1.281522
     36          6           0        3.079190   -2.294015   -0.609886
     37          8           0        3.634751   -3.335511   -0.963563
     38          7           0        3.455043   -1.065710   -1.059636
     39          1           0        2.966130   -0.256681   -0.675601
     40          6           0        4.754846   -0.863743   -1.705381
     41          1           0        5.014825    0.190308   -1.613076
     42          1           0        5.511484   -1.467097   -1.188594
     43          6           0        4.799207   -1.200509   -3.205387
     44          8           0        5.131666   -0.356768   -4.041381
     45          7           0        4.464223   -2.471249   -3.534687
     46          1           0        4.226531   -3.107330   -2.770975
     47          6           0        4.542744   -2.939850   -4.900966
     48          1           0        5.278603   -2.320810   -5.426833
     49          1           0        4.898688   -3.974389   -4.907344
     50          6           0        3.221910   -2.817120   -5.671639
     51          8           0        2.467858   -1.834458   -5.577546
     52          7           0        2.944872   -3.830859   -6.504697
     53          1           0        3.543650   -4.648578   -6.572598
     54          6           0        1.791472   -3.840593   -7.383293
     55          1           0        0.855765   -3.785964   -6.814645
     56          1           0        1.800097   -2.980741   -8.063322
     57          6           0        1.826262   -5.129372   -8.186096
     58          8           0        2.688032   -5.972893   -8.067682
     59          8           0        0.789207   -5.205975   -9.029431
     60          1           0        0.864263   -6.049972   -9.515646
 ---------------------------------------------------------------------

 SCF Done:  E(RB3LYP) =  -1740.92455913     A.U. after    1 cycles

 Alpha  occ. eigenvalues --  -19.29950 -19.25017 -19.24754 -19.24679 -19.24299
 Alpha  occ. eigenvalues --  -19.23848 -19.23054 -19.22312 -19.20180 -14.55323
 Alpha  occ. eigenvalues --  -14.48913 -14.48674 -14.48327 -14.48042 -14.46732
 Alpha  occ. eigenvalues --  -14.46205 -14.45365 -10.42937 -10.42097 -10.41587
 Alpha  occ. eigenvalues --  -10.41032 -10.40694 -10.39865 -10.39343 -10.38028
 Alpha  occ. eigenvalues --  -10.36620 -10.35431 -10.34367 -10.33999 -10.33953
 Alpha  occ. eigenvalues --  -10.33389 -10.33268 -10.33166  -1.21145  -1.17632
 Alpha  occ. eigenvalues --   -1.16035  -1.15762  -1.15676  -1.14658  -1.13797
 Alpha  occ. eigenvalues --   -1.12404  -1.12392  -1.10084  -1.05304  -1.04690
 Alpha  occ. eigenvalues --   -1.04215  -1.04170  -1.02980  -1.02225  -1.01563
 Alpha  occ. eigenvalues --   -0.88459  -0.87973  -0.87038  -0.85450  -0.84031
 Alpha  occ. eigenvalues --   -0.82096  -0.80561  -0.79151  -0.73165  -0.72098
 Alpha  occ. eigenvalues --   -0.71377  -0.71033  -0.70796  -0.69525  -0.69217
 Alpha  occ. eigenvalues --   -0.69084  -0.68294  -0.67846  -0.65703  -0.65029
 Alpha  occ. eigenvalues --   -0.64001  -0.63475  -0.63122  -0.61242  -0.60712
 Alpha  occ. eigenvalues --   -0.59681  -0.59540  -0.59349  -0.59340  -0.58797
 Alpha  occ. eigenvalues --   -0.58209  -0.57894  -0.57571  -0.57349  -0.56984
 Alpha  occ. eigenvalues --   -0.56444  -0.55693  -0.55406  -0.54438  -0.53909
 Alpha  occ. eigenvalues --   -0.53746  -0.53245  -0.52752  -0.52248  -0.52043
 Alpha  occ. eigenvalues --   -0.51937  -0.51583  -0.51447  -0.50774  -0.49679
 Alpha  occ. eigenvalues --   -0.49391  -0.49098  -0.48945  -0.48489  -0.47992
 Alpha  occ. eigenvalues --   -0.47663  -0.47403  -0.46994  -0.44997  -0.42203
 Alpha  occ. eigenvalues --   -0.40150  -0.39766  -0.39424  -0.39242  -0.39039
 Alpha  occ. eigenvalues --   -0.38481  -0.38310  -0.38013  -0.37780  -0.37740
 Alpha  occ. eigenvalues --   -0.35755  -0.35714  -0.34802  -0.34594  -0.33865
 Alpha virt. eigenvalues --   -0.12358  -0.10346  -0.10205  -0.10008  -0.09176
 Alpha virt. eigenvalues --   -0.09072  -0.08603  -0.06661  -0.05131  -0.03529
 Alpha virt. eigenvalues --   -0.03223  -0.02697  -0.01644  -0.00811   0.00091

 Mulliken charges:
               1
     1  N   -0.784680
     2  H    0.458859
     3  H    0.404676
     4  H    0.422024
     5  C   -0.269305
     6  H    0.197050
     7  H    0.279969
     8  C    0.601092
     9  O   -0.502291
    10  N   -0.536795
    11  H    0.344534
    12  C   -0.271633
    13  H    0.231580
    14  H    0.204179
    15  C    0.617689
    16  O   -0.542755
    17  N   -0.608235
    18  H    0.354471
    19  C   -0.227784
    20  H    0.214510
    21  H    0.201817
    22  C    0.608381
    23  O   -0.500667
    24  N   -0.598542
    25  H    0.352212
    26  C   -0.208741
    27  H    0.203287
    28  H    0.204599
    29  C    0.600287
    30  O   -0.534097
    31  N   -0.590548
    32  H    0.355521
    33  C   -0.236409
    34  H    0.203790
    35  H    0.206216
    36  C    0.599268
    37  O   -0.515206
    38  N   -0.617006
    39  H    0.398206
    40  C   -0.237926
    41  H    0.203190
    42  H    0.206598
    43  C    0.569867
    44  O   -0.536143
    45  N   -0.582284
    46  H    0.390294
    47  C   -0.247692
    48  H    0.226299
    49  H    0.183157
    50  C    0.647769
    51  O   -0.573457
    52  N   -0.597827
    53  H    0.372073
    54  C   -0.185598
    55  H    0.215404
    56  H    0.215584
    57  C    0.575296
    58  O   -0.448742
    59  O   -0.550443
    60  H    0.435059
 Sum of Mulliken charges =   1.00000

 Dipole moment (field-independent basis, Debye):
    X=              7.0472    Y=              0.9673    Z=            -17.0284  Tot=             18.4544
 Quadrupole moment (field-independent basis, Debye-Ang):
   XX=           -172.9015   YY=           -108.6325   ZZ=            -70.4065
   XY=            -12.6768   XZ=            -38.4197   YZ=             18.3500

 Normal termination of Gaussian 16 at Tue Jul 19 19:38:04 2022.
