 Gaussian 16, Revision C.01,
 Gaussian 16:  ES64L-G16RevC.01  3-Jul-2019

 -------------------------------------------------------------------
 # B3LYP/6-31G* guess=read geom=check nosymm integral(ultrafinegrid)
 -------------------------------------------------------------------

 -----------------------------------------------------
 Candidate Structure: Conf:60 Charge calc in gas phase
 -----------------------------------------------------
 Structure from the checkpoint file:  "conf-60.chk"
 Charge =  1 Multiplicity = 1

                          Input orientation:
 ---------------------------------------------------------------------
 Center     Atomic      Atomic             Coordinates (Angstroms)
 Number     Number       Type             X           Y           Z
 ---------------------------------------------------------------------
      1          7           0       -2.823397   -0.936317    0.727673
      2          1           0       -3.362115   -1.804919    0.735172
      3          1           0       -1.939050   -1.072697    0.144433
      4          1           0       -2.556090   -0.659060    1.691256
      5          6           0       -3.578497    0.225951    0.166917
      6          1           0       -4.647343    0.092157    0.352085
      7          1           0       -3.383346    0.286239   -0.905372
      8          6           0       -3.048368    1.460820    0.924327
      9          8           0       -2.470693    1.290888    1.996836
     10          7           0       -3.309041    2.645001    0.331178
     11          1           0       -3.516856    2.581238   -0.663498
     12          6           0       -2.595359    3.872453    0.719179
     13          1           0       -3.274624    4.727391    0.647101
     14          1           0       -2.245913    3.763426    1.744732
     15          6           0       -1.398108    3.955366   -0.238002
     16          8           0       -0.345328    3.381922   -0.000515
     17          7           0       -1.654974    4.531632   -1.459051
     18          1           0       -2.588876    4.876567   -1.637042
     19          6           0       -0.920980    4.015410   -2.603342
     20          1           0        0.140885    4.256031   -2.506035
     21          1           0       -1.299619    4.495256   -3.510527
     22          6           0       -1.136209    2.488872   -2.682520
     23          8           0       -2.193787    1.974954   -2.309497
     24          7           0       -0.103869    1.737868   -3.138919
     25          1           0        0.772132    2.186145   -3.373180
     26          6           0       -0.148480    0.288615   -2.980612
     27          1           0       -1.061554   -0.110632   -3.423269
     28          1           0        0.711038   -0.146779   -3.498213
     29          6           0       -0.139557   -0.130348   -1.496336
     30          8           0       -0.913485   -1.026756   -1.099292
     31          7           0        0.735673    0.504880   -0.723568
     32          1           0        1.347046    1.236412   -1.088156
     33          6           0        0.924091    0.322478    0.700667
     34          1           0        1.044534   -0.739532    0.942848
     35          1           0        0.071580    0.722171    1.264264
     36          6           0        2.193898    1.119797    1.064307
     37          8           0        2.775358    1.783363    0.205614
     38          7           0        2.581977    1.027708    2.344172
     39          1           0        2.081209    0.481750    3.042869
     40          6           0        3.734328    1.724495    2.874994
     41          1           0        4.649212    1.425646    2.348426
     42          1           0        3.628917    2.809300    2.747746
     43          6           0        3.824391    1.361982    4.365375
     44          8           0        2.988003    0.621517    4.885341
     45          7           0        4.859033    1.905217    5.030093
     46          1           0        5.546858    2.510871    4.588190
     47          6           0        5.097817    1.666315    6.436323
     48          1           0        4.248286    2.007182    7.042220
     49          1           0        5.222004    0.594146    6.635787
     50          6           0        6.370095    2.434978    6.817074
     51          8           0        6.981562    3.104791    5.986896
     52          7           0        6.753804    2.319758    8.105899
     53          1           0        6.238155    1.759801    8.776460
     54          6           0        7.934479    2.984355    8.614830
     55          1           0        8.836879    2.669762    8.076203
     56          1           0        7.866154    4.072795    8.496350
     57          6           0        8.078320    2.643774   10.084840
     58          8           0        7.312993    1.930938   10.698079
     59          8           0        9.159612    3.231235   10.620536
     60          1           0        9.193666    2.972288   11.561360
 ---------------------------------------------------------------------

 SCF Done:  E(RB3LYP) =  -1740.91503902     A.U. after    1 cycles

 Alpha  occ. eigenvalues --  -19.27109 -19.26059 -19.24442 -19.24387 -19.23184
 Alpha  occ. eigenvalues --  -19.21772 -19.20847 -19.19644 -19.19316 -14.56829
 Alpha  occ. eigenvalues --  -14.49352 -14.48887 -14.47673 -14.47380 -14.44589
 Alpha  occ. eigenvalues --  -14.43633 -14.43568 -10.43070 -10.41318 -10.41117
 Alpha  occ. eigenvalues --  -10.40253 -10.39954 -10.38384 -10.38188 -10.36907
 Alpha  occ. eigenvalues --  -10.36613 -10.34845 -10.34668 -10.34605 -10.33273
 Alpha  occ. eigenvalues --  -10.31161 -10.30832 -10.30603  -1.18248  -1.18130
 Alpha  occ. eigenvalues --   -1.16566  -1.15485  -1.14774  -1.12884  -1.11774
 Alpha  occ. eigenvalues --   -1.11425  -1.11026  -1.09403  -1.05951  -1.05145
 Alpha  occ. eigenvalues --   -1.03679  -1.03288  -1.01125  -1.00255  -0.99838
 Alpha  occ. eigenvalues --   -0.89179  -0.87799  -0.85522  -0.84399  -0.83240
 Alpha  occ. eigenvalues --   -0.81517  -0.80071  -0.77419  -0.72554  -0.72126
 Alpha  occ. eigenvalues --   -0.71472  -0.70843  -0.70081  -0.69932  -0.69456
 Alpha  occ. eigenvalues --   -0.67914  -0.66861  -0.65966  -0.65941  -0.65135
 Alpha  occ. eigenvalues --   -0.63790  -0.62400  -0.61677  -0.60945  -0.60517
 Alpha  occ. eigenvalues --   -0.59503  -0.58576  -0.58312  -0.57677  -0.56807
 Alpha  occ. eigenvalues --   -0.56695  -0.56339  -0.56307  -0.55699  -0.55577
 Alpha  occ. eigenvalues --   -0.55125  -0.54718  -0.54587  -0.53765  -0.53536
 Alpha  occ. eigenvalues --   -0.53129  -0.52817  -0.52455  -0.52218  -0.51742
 Alpha  occ. eigenvalues --   -0.51466  -0.50920  -0.50038  -0.49275  -0.48893
 Alpha  occ. eigenvalues --   -0.48590  -0.48494  -0.47384  -0.47334  -0.46421
 Alpha  occ. eigenvalues --   -0.46284  -0.46095  -0.44369  -0.42717  -0.41088
 Alpha  occ. eigenvalues --   -0.40498  -0.40078  -0.39362  -0.38934  -0.37936
 Alpha  occ. eigenvalues --   -0.37244  -0.36856  -0.35871  -0.35675  -0.35437
 Alpha  occ. eigenvalues --   -0.34649  -0.34191  -0.33616  -0.33026  -0.32379
 Alpha virt. eigenvalues --   -0.12964  -0.10984  -0.09728  -0.08838  -0.07596
 Alpha virt. eigenvalues --   -0.06417  -0.06249  -0.05265  -0.04268  -0.04206
 Alpha virt. eigenvalues --   -0.03416  -0.02231  -0.00597   0.00230   0.00964

 Mulliken charges:
               1
     1  N   -0.765897
     2  H    0.404680
     3  H    0.454370
     4  H    0.411597
     5  C   -0.291953
     6  H    0.233756
     7  H    0.254759
     8  C    0.631667
     9  O   -0.506636
    10  N   -0.579566
    11  H    0.364539
    12  C   -0.243645
    13  H    0.187737
    14  H    0.231872
    15  C    0.588751
    16  O   -0.489835
    17  N   -0.554031
    18  H    0.341747
    19  C   -0.245171
    20  H    0.205477
    21  H    0.206522
    22  C    0.638277
    23  O   -0.551295
    24  N   -0.591276
    25  H    0.355736
    26  C   -0.226834
    27  H    0.214343
    28  H    0.205511
    29  C    0.625055
    30  O   -0.596942
    31  N   -0.559463
    32  H    0.367956
    33  C   -0.225806
    34  H    0.190609
    35  H    0.203820
    36  C    0.632522
    37  O   -0.531817
    38  N   -0.624050
    39  H    0.360985
    40  C   -0.195424
    41  H    0.198390
    42  H    0.199601
    43  C    0.609929
    44  O   -0.534986
    45  N   -0.623915
    46  H    0.364153
    47  C   -0.193554
    48  H    0.195516
    49  H    0.196368
    50  C    0.609902
    51  O   -0.524265
    52  N   -0.626325
    53  H    0.360607
    54  C   -0.177637
    55  H    0.213712
    56  H    0.213131
    57  C    0.569494
    58  O   -0.456968
    59  O   -0.553591
    60  H    0.427791
 Sum of Mulliken charges =   1.00000

 Dipole moment (field-independent basis, Debye):
    X=             -3.4858    Y=              6.3497    Z=              3.5274  Tot=              8.0568
 Quadrupole moment (field-independent basis, Debye-Ang):
   XX=            -94.9129   YY=           -147.8073   ZZ=            -88.1869
   XY=              4.5050   XZ=             66.4353   YZ=              5.1694

 Normal termination of Gaussian 16 at Tue Jul 19 19:37:48 2022.
