 Gaussian 16, Revision C.01,
 Gaussian 16:  ES64L-G16RevC.01  3-Jul-2019

 ----------------------------------------------------------------------
 # B3LYP/6-31G* empiricaldispersion=gd3 guess=read geom=check nosymm in
 tegral(ultrafinegrid)
 ----------------------------------------------------------------------

 ------------------------------------------------------
 Candidate Structure: Conf:121 Charge calc in gas phase
 ------------------------------------------------------
 Structure from the checkpoint file:  "conf-121.chk"
 Charge =  1 Multiplicity = 1

                          Input orientation:
 ---------------------------------------------------------------------
 Center     Atomic      Atomic             Coordinates (Angstroms)
 Number     Number       Type             X           Y           Z
 ---------------------------------------------------------------------
      1          7           0       -3.964754   -3.047981   -5.232065
      2          1           0       -3.729035   -3.029832   -6.233743
      3          1           0       -4.866959   -3.517728   -5.082356
      4          1           0       -3.148994   -3.510745   -4.648055
      5          6           0       -3.921274   -1.652040   -4.579095
      6          1           0       -3.993759   -0.886677   -5.351275
      7          6           0       -2.542001   -1.700325   -3.891377
      8          6           0       -5.064642   -1.537872   -3.529435
      9          1           0       -6.005567   -1.585818   -4.098382
     10          8           0       -2.048681   -2.852846   -3.699974
     11          6           0       -5.016403   -0.178427   -2.780486
     12          1           0       -4.139554   -0.186828   -2.125600
     13          1           0       -5.896730   -0.157781   -2.127814
     14          6           0       -5.003564   -2.684112   -2.488182
     15          1           0       -4.108229   -2.574705   -1.871206
     16          1           0       -5.880309   -2.609815   -1.837904
     17          1           0       -5.017891   -3.685883   -2.934727
     18          6           0       -5.056526    1.064466   -3.696058
     19          1           0       -5.166229    1.971443   -3.093548
     20          1           0       -4.142214    1.184410   -4.293508
     21          1           0       -5.904208    1.015323   -4.389575
     22          7           0       -1.986134   -0.563744   -3.500538
     23          1           0       -2.396080    0.334196   -3.740502
     24          6           0       -0.882283   -0.571251   -2.523340
     25          1           0       -0.003133   -1.051370   -2.947140
     26          6           0       -1.353934   -1.354310   -1.285580
     27          6           0       -0.564404    0.887370   -2.133193
     28          1           0        0.231361    0.887419   -1.382114
     29          1           0       -1.458310    1.321780   -1.669915
     30          8           0       -2.555433   -1.388355   -0.930071
     31          6           0       -0.157735    1.685077   -3.359980
     32          6           0        0.888884    1.221629   -4.177214
     33          1           0        1.401503    0.303814   -3.907164
     34          6           0       -0.830324    2.859543   -3.716397
     35          1           0       -1.634079    3.227536   -3.086633
     36          6           0        1.264897    1.936521   -5.314568
     37          1           0        2.077886    1.574787   -5.933514
     38          6           0       -0.456752    3.571854   -4.861003
     39          1           0       -0.980268    4.483975   -5.122914
     40          6           0        0.591808    3.113413   -5.660335
     41          1           0        0.883261    3.666662   -6.545146
     42          7           0       -0.331658   -1.934219   -0.642467
     43          1           0        0.632203   -1.786287   -0.992642
     44          6           0       -0.515989   -2.662096    0.627986
     45          1           0       -1.430109   -2.270783    1.090601
     46          6           0        0.729001   -2.304639    1.467822
     47          6           0       -0.662780   -4.186620    0.418625
     48          1           0        0.310368   -4.571564    0.090462
     49          8           0        1.411928   -3.129601    2.102870
     50          6           0       -1.040956   -4.858715    1.758530
     51          1           0       -1.996602   -4.458649    2.121276
     52          1           0       -1.153744   -5.939084    1.617550
     53          1           0       -0.260128   -4.673365    2.496936
     54          6           0       -1.735348   -4.490245   -0.649907
     55          1           0       -2.695338   -4.062592   -0.339259
     56          1           0       -1.477866   -4.066014   -1.624350
     57          1           0       -1.849140   -5.575105   -0.754514
     58          7           0        1.062720   -0.989949    1.376660
     59          1           0        0.529474   -0.328260    0.818257
     60          6           0        2.355445   -0.489907    1.823579
     61          1           0        2.480160   -0.682701    2.894133
     62          6           0        2.317215    1.019371    1.539643
     63          6           0        3.531052   -1.169521    1.040853
     64          1           0        4.398975   -1.230360    1.708422
     65          1           0        3.225827   -2.195267    0.831985
     66          8           0        1.463150    1.526936    0.777803
     67          6           0        3.986335   -0.432372   -0.234827
     68          1           0        4.714074   -1.074955   -0.749118
     69          1           0        4.489464    0.496959    0.037035
     70          6           0        2.901793   -0.093137   -1.264395
     71          7           0        3.052641    1.141647   -1.775202
     72          1           0        3.687140    1.810975   -1.319288
     73          1           0        2.391020    1.481118   -2.466193
     74          8           0        2.000228   -0.891121   -1.655349
     75          7           0        3.279485    1.750318    2.149129
     76          1           0        3.976013    1.293819    2.728547
     77          6           0        3.369318    3.197032    1.946840
     78          1           0        2.357559    3.610262    1.942292
     79          6           0        4.048120    3.566774    0.628080
     80          6           0        4.213733    3.847595    3.074063
     81          1           0        3.836436    3.476244    4.033731
     82          1           0        4.035600    4.924146    3.033691
     83          8           0        4.126151    4.859251    0.455279
     84          6           0        5.748515    3.572002    2.971550
     85          1           0        6.150254    3.552556    3.989834
     86          1           0        5.922485    2.574409    2.546732
     87          6           0        6.568694    4.637222    2.157351
     88          1           0        7.446220    4.919536    2.747069
     89          1           0        5.952046    5.533545    2.043188
     90          6           0        7.059308    4.177275    0.751119
     91          1           0        8.149019    4.202581    0.676563
     92          1           0        6.688995    3.181185    0.514159
     93          7           0        6.472465    5.070111   -0.350313
     94          1           0        6.620520    4.647904   -1.275785
     95          1           0        6.878943    6.014218   -0.327762
     96          1           0        5.268541    5.085851   -0.118135
     97          8           0        4.609730    2.711708   -0.118524
 ---------------------------------------------------------------------

 SCF Done:  E(RB3LYP) =  -2122.48313387     A.U. after   13 cycles

 Alpha  occ. eigenvalues --  -19.25643 -19.20142 -19.19640 -19.19452 -19.18919
 Alpha  occ. eigenvalues --  -19.18585 -19.17082 -14.57215 -14.48780 -14.48673
 Alpha  occ. eigenvalues --  -14.44257 -14.42347 -14.41334 -14.40872 -10.42110
 Alpha  occ. eigenvalues --  -10.38779 -10.37320 -10.36629 -10.36047 -10.35939
 Alpha  occ. eigenvalues --  -10.34401 -10.32234 -10.31984 -10.31967 -10.30559
 Alpha  occ. eigenvalues --  -10.30385 -10.28802 -10.28017 -10.27880 -10.27785
 Alpha  occ. eigenvalues --  -10.27695 -10.27624 -10.27237 -10.27023 -10.27012
 Alpha  occ. eigenvalues --  -10.27011 -10.26963 -10.26910 -10.26725 -10.26613
 Alpha  occ. eigenvalues --  -10.25785 -10.25393 -10.24077 -10.21799 -10.21062
 Alpha  occ. eigenvalues --   -1.17100  -1.12570  -1.10715  -1.10621  -1.09695
 Alpha  occ. eigenvalues --   -1.08571  -1.08087  -1.04836  -1.04085  -1.02203
 Alpha  occ. eigenvalues --   -1.00201  -0.99643  -0.97457  -0.96231  -0.93791
 Alpha  occ. eigenvalues --   -0.92865  -0.88378  -0.88224  -0.86039  -0.84995
 Alpha  occ. eigenvalues --   -0.84782  -0.83426  -0.82619  -0.82365  -0.81105
 Alpha  occ. eigenvalues --   -0.79608  -0.77648  -0.75790  -0.74194  -0.73207
 Alpha  occ. eigenvalues --   -0.72535  -0.71973  -0.71761  -0.71607  -0.70864
 Alpha  occ. eigenvalues --   -0.70452  -0.68613  -0.67653  -0.67406  -0.66438
 Alpha  occ. eigenvalues --   -0.66030  -0.65671  -0.64468  -0.64369  -0.63477
 Alpha  occ. eigenvalues --   -0.62718  -0.62505  -0.62035  -0.61266  -0.60613
 Alpha  occ. eigenvalues --   -0.60456  -0.59373  -0.59044  -0.58631  -0.57360
 Alpha  occ. eigenvalues --   -0.56801  -0.56084  -0.55333  -0.54853  -0.54516
 Alpha  occ. eigenvalues --   -0.54030  -0.53816  -0.53577  -0.53486  -0.53184
 Alpha  occ. eigenvalues --   -0.52844  -0.52593  -0.52375  -0.52010  -0.51587
 Alpha  occ. eigenvalues --   -0.50954  -0.50388  -0.50195  -0.50114  -0.49826
 Alpha  occ. eigenvalues --   -0.49566  -0.49224  -0.48977  -0.48930  -0.48223
 Alpha  occ. eigenvalues --   -0.48180  -0.47683  -0.47289  -0.47052  -0.46817
 Alpha  occ. eigenvalues --   -0.46378  -0.46307  -0.45935  -0.45692  -0.45461
 Alpha  occ. eigenvalues --   -0.44581  -0.44258  -0.44024  -0.43955  -0.43710
 Alpha  occ. eigenvalues --   -0.43343  -0.43120  -0.42885  -0.42786  -0.42521
 Alpha  occ. eigenvalues --   -0.42163  -0.42025  -0.41840  -0.41714  -0.41316
 Alpha  occ. eigenvalues --   -0.41073  -0.40551  -0.40283  -0.40131  -0.39040
 Alpha  occ. eigenvalues --   -0.38200  -0.37965  -0.37326  -0.36192  -0.35285
 Alpha  occ. eigenvalues --   -0.33896  -0.33433  -0.33335  -0.33216  -0.33014
 Alpha  occ. eigenvalues --   -0.32557  -0.32375  -0.32216  -0.31935  -0.30376
 Alpha  occ. eigenvalues --   -0.29963
 Alpha virt. eigenvalues --   -0.11505  -0.09168  -0.08961  -0.08170  -0.06405
 Alpha virt. eigenvalues --   -0.06104  -0.05376  -0.04446  -0.04255  -0.03920
 Alpha virt. eigenvalues --   -0.03718  -0.03486  -0.01038  -0.00659   0.01045

 Mulliken charges:
               1
     1  N   -0.773929
     2  H    0.405878
     3  H    0.407330
     4  H    0.443904
     5  C   -0.108810
     6  H    0.203953
     7  C    0.675682
     8  C   -0.109987
     9  H    0.148204
    10  O   -0.559846
    11  C   -0.295155
    12  H    0.204295
    13  H    0.168623
    14  C   -0.510464
    15  H    0.254949
    16  H    0.179560
    17  H    0.120238
    18  C   -0.477057
    19  H    0.181679
    20  H    0.124673
    21  H    0.160711
    22  N   -0.598012
    23  H    0.365088
    24  C   -0.048572
    25  H    0.215125
    26  C    0.631960
    27  C   -0.412143
    28  H    0.233580
    29  H    0.162337
    30  O   -0.562946
    31  C    0.139575
    32  C   -0.236419
    33  H    0.176478
    34  C   -0.203820
    35  H    0.138493
    36  C   -0.129516
    37  H    0.147807
    38  C   -0.127054
    39  H    0.147446
    40  C   -0.130192
    41  H    0.147071
    42  N   -0.651278
    43  H    0.411388
    44  C   -0.042323
    45  H    0.185658
    46  C    0.597419
    47  C   -0.058754
    48  H    0.137417
    49  O   -0.534483
    50  C   -0.463964
    51  H    0.132418
    52  H    0.143041
    53  H    0.191717
    54  C   -0.475301
    55  H    0.147534
    56  H    0.164353
    57  H    0.137967
    58  N   -0.612138
    59  H    0.362906
    60  C   -0.036088
    61  H    0.178298
    62  C    0.624080
    63  C   -0.272844
    64  H    0.140507
    65  H    0.201429
    66  O   -0.553393
    67  C   -0.405400
    68  H    0.177905
    69  H    0.190384
    70  C    0.620055
    71  N   -0.770534
    72  H    0.407335
    73  H    0.351654
    74  O   -0.602046
    75  N   -0.606056
    76  H    0.340439
    77  C   -0.029350
    78  H    0.199363
    79  C    0.638498
    80  C   -0.299522
    81  H    0.157855
    82  H    0.183166
    83  O   -0.617341
    84  C   -0.300298
    85  H    0.163275
    86  H    0.144669
    87  C   -0.291491
    88  H    0.163424
    89  H    0.174793
    90  C   -0.182549
    91  H    0.177788
    92  H    0.219944
    93  N   -0.777834
    94  H    0.374105
    95  H    0.366603
    96  H    0.457909
    97  O   -0.583020
 Sum of Mulliken charges =   1.00000

 Dipole moment (field-independent basis, Debye):
    X=              1.0772    Y=              5.4768    Z=            -16.5948  Tot=             17.5084
 Quadrupole moment (field-independent basis, Debye-Ang):
   XX=            -97.8954   YY=           -207.0366   ZZ=           -153.3625
   XY=             97.9033   XZ=             80.6531   YZ=             39.1118

 Normal termination of Gaussian 16 at Fri Jul  8 17:34:36 2022.
