 Gaussian 16, Revision C.01,
 Gaussian 16:  ES64L-G16RevC.01  3-Jul-2019

 ----------------------------------------------------------------------
 # B3LYP/6-31G* empiricaldispersion=gd3 guess=read geom=check nosymm in
 tegral(ultrafinegrid)
 ----------------------------------------------------------------------

 ------------------------------------------------------
 Candidate Structure: Conf:746 Charge calc in gas phase
 ------------------------------------------------------
 Structure from the checkpoint file:  "conf-746.chk"
 Charge =  1 Multiplicity = 1

                          Input orientation:
 ---------------------------------------------------------------------
 Center     Atomic      Atomic             Coordinates (Angstroms)
 Number     Number       Type             X           Y           Z
 ---------------------------------------------------------------------
      1          7           0       -4.151657   -1.600411   -5.966659
      2          1           0       -3.325804   -1.767817   -6.538952
      3          1           0       -4.405643   -2.510634   -5.580117
      4          6           0       -3.814540   -0.724929   -4.853022
      5          1           0       -3.244256    0.129555   -5.239882
      6          6           0       -2.980739   -1.440870   -3.776575
      7          6           0       -5.110605   -0.175291   -4.190661
      8          1           0       -5.762193   -1.034290   -3.985774
      9          1           0       -4.856837    0.266377   -3.218725
     10          8           0       -3.014123   -2.657131   -3.616519
     11          6           0       -5.817474    0.853097   -5.043263
     12          6           0       -5.699112    2.216334   -4.743830
     13          1           0       -5.120017    2.525786   -3.875095
     14          6           0       -6.573993    0.473489   -6.160585
     15          1           0       -6.654585   -0.578780   -6.411127
     16          6           0       -6.320423    3.182277   -5.537518
     17          1           0       -6.221966    4.235127   -5.285919
     18          6           0       -7.195908    1.436329   -6.955353
     19          1           0       -7.780336    1.126169   -7.817523
     20          6           0       -7.071925    2.793322   -6.647164
     21          1           0       -7.560705    3.541233   -7.265647
     22          7           0       -2.223069   -0.633948   -2.970596
     23          1           0       -2.220933    0.373069   -3.078661
     24          6           0       -1.527388   -1.172868   -1.826340
     25          1           0       -2.148862   -1.941758   -1.352616
     26          6           0       -1.230346   -0.050271   -0.843966
     27          6           0       -0.196934   -1.855131   -2.269896
     28          1           0        0.378649   -1.143185   -2.875013
     29          1           0       -0.471280   -2.710809   -2.888890
     30          8           0       -1.203189    1.134142   -1.150548
     31          8           0        0.574587   -2.337544   -1.166315
     32          1           0        1.096493   -1.581489   -0.830987
     33          7           0       -0.919544   -0.481209    0.432014
     34          1           0       -0.658812   -1.462463    0.488749
     35          6           0       -0.195497    0.432024    1.283439
     36          1           0       -0.755058    1.367696    1.366570
     37          6           0        1.202845    0.725777    0.716990
     38          6           0       -0.041207   -0.205649    2.679178
     39          1           0        0.407655   -1.204321    2.589404
     40          1           0       -1.030641   -0.300768    3.134923
     41          8           0        1.798501   -0.055439   -0.027592
     42          8           0        0.811680    0.638944    3.476062
     43          1           0        0.582972    0.556677    4.415216
     44          7           0        1.836635    1.836817    1.193057
     45          1           0        1.424950    2.325539    1.980945
     46          6           0        3.280348    1.874427    1.061246
     47          1           0        3.521122    1.778543   -0.001533
     48          6           0        3.878951    0.637038    1.751896
     49          6           0        3.892006    3.190623    1.570586
     50          1           0        4.974889    3.195570    1.407233
     51          1           0        3.489185    4.016115    0.971804
     52          8           0        3.360361    0.121789    2.820886
     53          6           0        3.610847    3.480462    3.034676
     54          8           0        2.865493    2.819406    3.734079
     55          8           0        4.273343    4.561493    3.446180
     56          7           0        4.948257    0.076955    1.256848
     57          1           0        5.335219    0.458894    0.398745
     58          6           0        5.615814   -1.137730    1.770971
     59          1           0        5.406278   -1.210508    2.839606
     60          6           0        7.129326   -1.016821    1.603775
     61          6           0        5.117464   -2.406421    1.039529
     62          1           0        5.773392   -3.223397    1.363250
     63          1           0        5.258531   -2.274395   -0.040610
     64          8           0        7.908428   -1.713848    2.196360
     65          6           0        3.655314   -2.766292    1.318225
     66          1           0        3.005398   -1.923366    1.056642
     67          1           0        3.520008   -2.966054    2.389872
     68          6           0        3.207320   -3.994662    0.506479
     69          1           0        3.857274   -4.848066    0.718241
     70          1           0        2.193576   -4.275752    0.823752
     71          7           0        3.227122   -3.730255   -0.933050
     72          1           0        2.336120   -3.373565   -1.270412
     73          7           0        4.993713   -5.214947   -1.376345
     74          1           0        5.412914   -5.776368   -2.110081
     75          1           0        5.665114   -4.567586   -0.976373
     76          7           0        3.396574   -4.893683   -3.024161
     77          1           0        2.458044   -4.521287   -3.182584
     78          6           0        3.817985   -4.615182   -1.846287
     79          8           0        7.466956   -0.094943    0.668665
     80          1           0        8.438484   -0.114767    0.564417
     81          1           0        2.495452    0.542555    3.121209
     82          1           0        4.046179    4.730945    4.381946
 ---------------------------------------------------------------------

 SCF Done:  E(RB3LYP) =  -2166.33834560     A.U. after    1 cycles

 Alpha  occ. eigenvalues --  -19.37340 -19.34334 -19.33727 -19.32975 -19.29417
 Alpha  occ. eigenvalues --  -19.28469 -19.27359 -19.25107 -19.23500 -19.18391
 Alpha  occ. eigenvalues --  -14.56792 -14.52133 -14.47763 -14.43538 -14.41240
 Alpha  occ. eigenvalues --  -14.40262 -14.36623 -14.34324 -10.50324 -10.47819
 Alpha  occ. eigenvalues --  -10.45942 -10.44588 -10.42275 -10.39970 -10.39599
 Alpha  occ. eigenvalues --  -10.39419 -10.37730 -10.37146 -10.34997 -10.33968
 Alpha  occ. eigenvalues --  -10.32723 -10.32443 -10.31881 -10.30359 -10.29403
 Alpha  occ. eigenvalues --  -10.28229 -10.24410 -10.23466 -10.22812 -10.22679
 Alpha  occ. eigenvalues --  -10.22476 -10.22378 -10.22087  -1.28129  -1.25693
 Alpha  occ. eigenvalues --   -1.24267  -1.20496  -1.19205  -1.16915  -1.15534
 Alpha  occ. eigenvalues --   -1.15464  -1.13786  -1.12055  -1.10336  -1.09240
 Alpha  occ. eigenvalues --   -1.05023  -1.03536  -1.00066  -0.96960  -0.95352
 Alpha  occ. eigenvalues --   -0.94341  -0.93790  -0.90868  -0.90348  -0.89028
 Alpha  occ. eigenvalues --   -0.87542  -0.85454  -0.84782  -0.82743  -0.81960
 Alpha  occ. eigenvalues --   -0.79873  -0.78322  -0.77878  -0.77259  -0.76476
 Alpha  occ. eigenvalues --   -0.75574  -0.74689  -0.73548  -0.72493  -0.71647
 Alpha  occ. eigenvalues --   -0.70708  -0.69954  -0.68488  -0.68290  -0.67122
 Alpha  occ. eigenvalues --   -0.66465  -0.66022  -0.65764  -0.65342  -0.64388
 Alpha  occ. eigenvalues --   -0.64101  -0.63600  -0.62755  -0.62204  -0.61823
 Alpha  occ. eigenvalues --   -0.61474  -0.61147  -0.61036  -0.60722  -0.60069
 Alpha  occ. eigenvalues --   -0.59803  -0.58923  -0.58257  -0.58056  -0.57386
 Alpha  occ. eigenvalues --   -0.56618  -0.56285  -0.55934  -0.55598  -0.55074
 Alpha  occ. eigenvalues --   -0.54717  -0.54389  -0.54254  -0.53959  -0.53588
 Alpha  occ. eigenvalues --   -0.53544  -0.53164  -0.52813  -0.52388  -0.52205
 Alpha  occ. eigenvalues --   -0.51781  -0.50983  -0.50580  -0.50234  -0.49870
 Alpha  occ. eigenvalues --   -0.49294  -0.48950  -0.48598  -0.48169  -0.47916
 Alpha  occ. eigenvalues --   -0.46949  -0.46904  -0.46510  -0.46400  -0.45954
 Alpha  occ. eigenvalues --   -0.45468  -0.45211  -0.44957  -0.44478  -0.43874
 Alpha  occ. eigenvalues --   -0.43686  -0.43459  -0.42754  -0.42254  -0.42158
 Alpha  occ. eigenvalues --   -0.41724  -0.41335  -0.40593  -0.39348  -0.38793
 Alpha  occ. eigenvalues --   -0.37925  -0.37872  -0.37539  -0.36646  -0.32872
 Alpha  occ. eigenvalues --   -0.32667  -0.32557  -0.31644  -0.29543  -0.28815
 Alpha  occ. eigenvalues --   -0.28296  -0.27821
 Alpha virt. eigenvalues --   -0.19144  -0.14501  -0.14316  -0.12597  -0.09558
 Alpha virt. eigenvalues --   -0.08826  -0.07750  -0.05261  -0.04936  -0.04829
 Alpha virt. eigenvalues --   -0.04381  -0.03632  -0.03447  -0.03187  -0.02066

 Mulliken charges:
               1
     1  N   -0.689479
     2  H    0.305866
     3  H    0.317037
     4  C   -0.078735
     5  H    0.146879
     6  C    0.592647
     7  C   -0.350675
     8  H    0.162109
     9  H    0.135834
    10  O   -0.523088
    11  C    0.170630
    12  C   -0.189319
    13  H    0.107393
    14  C   -0.152211
    15  H    0.144555
    16  C   -0.128578
    17  H    0.127352
    18  C   -0.133791
    19  H    0.135372
    20  C   -0.128833
    21  H    0.133383
    22  N   -0.622119
    23  H    0.350497
    24  C   -0.044730
    25  H    0.195351
    26  C    0.589705
    27  C   -0.065171
    28  H    0.153563
    29  H    0.208088
    30  O   -0.514728
    31  O   -0.667175
    32  H    0.444639
    33  N   -0.600082
    34  H    0.348147
    35  C   -0.075457
    36  H    0.214654
    37  C    0.640544
    38  C   -0.073621
    39  H    0.174829
    40  H    0.208443
    41  O   -0.539087
    42  O   -0.656868
    43  H    0.446770
    44  N   -0.598885
    45  H    0.381824
    46  C   -0.063660
    47  H    0.224705
    48  C    0.660521
    49  C   -0.386521
    50  H    0.219440
    51  H    0.246333
    52  O   -0.581542
    53  C    0.590686
    54  O   -0.476438
    55  O   -0.532003
    56  N   -0.547731
    57  H    0.395031
    58  C   -0.093738
    59  H    0.227637
    60  C    0.606171
    61  C   -0.279654
    62  H    0.196656
    63  H    0.173620
    64  O   -0.412278
    65  C   -0.278558
    66  H    0.140938
    67  H    0.142597
    68  C   -0.156781
    69  H    0.190198
    70  H    0.153379
    71  N   -0.633088
    72  H    0.352482
    73  N   -0.737635
    74  H    0.346035
    75  H    0.309208
    76  N   -0.626076
    77  H    0.270530
    78  C    0.545638
    79  O   -0.590525
    80  H    0.445008
    81  H    0.513519
    82  H    0.442413
 Sum of Mulliken charges =   1.00000

 Dipole moment (field-independent basis, Debye):
    X=             16.7646    Y=              8.6372    Z=             12.4624  Tot=             22.6045
 Quadrupole moment (field-independent basis, Debye-Ang):
   XX=           -157.7999   YY=           -238.7975   ZZ=           -213.1741
   XY=             28.1646   XZ=             22.6099   YZ=              4.5166

 Normal termination of Gaussian 16 at Tue May 17 15:39:34 2022.
