 Gaussian 16, Revision C.01,
 Gaussian 16:  ES64L-G16RevC.01  3-Jul-2019

 ----------------------------------------------------------------------
 # B3LYP/6-31G* empiricaldispersion=gd3 guess=read geom=check nosymm in
 tegral(ultrafinegrid)
 ----------------------------------------------------------------------

 ------------------------------------------------------
 Candidate Structure: Conf:962 Charge calc in gas phase
 ------------------------------------------------------
 Structure from the checkpoint file:  "conf-962.chk"
 Charge =  1 Multiplicity = 1

                          Input orientation:
 ---------------------------------------------------------------------
 Center     Atomic      Atomic             Coordinates (Angstroms)
 Number     Number       Type             X           Y           Z
 ---------------------------------------------------------------------
      1          7           0       -4.547596   -3.083762   -2.322328
      2          1           0       -5.542429   -3.115279   -2.111933
      3          1           0       -4.379441   -3.699643   -3.114412
      4          6           0       -4.158699   -1.718475   -2.627425
      5          1           0       -4.767928   -1.226441   -3.408679
      6          6           0       -2.694280   -1.668168   -3.046093
      7          6           0       -4.262281   -0.850295   -1.335952
      8          1           0       -3.618423   -1.337201   -0.592645
      9          1           0       -3.845257    0.142278   -1.545051
     10          8           0       -1.840656   -2.442960   -2.597491
     11          6           0       -5.676519   -0.738342   -0.818347
     12          6           0       -6.512682    0.298384   -1.254079
     13          1           0       -6.125592    1.047444   -1.942105
     14          6           0       -6.190013   -1.690416    0.074246
     15          1           0       -5.551462   -2.503892    0.410530
     16          6           0       -7.832159    0.383740   -0.809321
     17          1           0       -8.466599    1.196145   -1.152291
     18          6           0       -7.510774   -1.607876    0.519359
     19          1           0       -7.894952   -2.352506    1.210957
     20          6           0       -8.334458   -0.570199    0.078932
     21          1           0       -9.361000   -0.503139    0.427306
     22          7           0       -2.330849   -0.638208   -3.857112
     23          1           0       -3.032169    0.041883   -4.122417
     24          6           0       -0.928303   -0.240020   -3.897327
     25          1           0       -0.357514   -0.956116   -4.496944
     26          6           0       -0.425351   -0.230055   -2.450178
     27          6           0       -0.732646    1.161228   -4.510634
     28          1           0       -1.272788    1.898908   -3.899739
     29          1           0       -1.161609    1.166878   -5.519928
     30          8           0       -1.084506    0.359523   -1.584272
     31          8           0        0.645229    1.439900   -4.615664
     32          1           0        0.944116    1.960738   -3.848254
     33          7           0        0.741863   -0.867008   -2.204071
     34          1           0        1.167728   -1.383940   -2.963601
     35          6           0        1.157044   -1.179111   -0.845845
     36          1           0        0.575804   -0.499538   -0.231105
     37          6           0        2.594210   -0.733905   -0.550245
     38          6           0        0.786802   -2.601593   -0.413908
     39          1           0        1.324983   -2.855665    0.501490
     40          1           0        1.055429   -3.340797   -1.176416
     41          8           0        3.475604   -1.477102   -0.127183
     42          8           0       -0.616581   -2.677245   -0.118086
     43          1           0       -1.229872   -1.316964    0.728867
     44          7           0        2.725080    0.607568   -0.708988
     45          1           0        1.896706    1.140899   -0.953568
     46          6           0        3.844226    1.374753   -0.176522
     47          1           0        4.773841    0.911811   -0.521039
     48          6           0        3.744774    1.329841    1.373620
     49          6           0        3.749550    2.839862   -0.660385
     50          1           0        3.009761    3.351267   -0.037358
     51          1           0        4.717282    3.328490   -0.534487
     52          8           0        2.986517    2.091868    1.982067
     53          6           0        3.276568    2.940038   -2.095459
     54          8           0        2.118384    2.737296   -2.429615
     55          8           0        4.249500    3.251515   -2.955984
     56          7           0        4.470332    0.362733    1.971217
     57          1           0        4.961861   -0.296350    1.379630
     58          6           0        4.393246    0.105082    3.400565
     59          1           0        3.895447    0.970526    3.844005
     60          6           0        5.766380    0.010853    4.063893
     61          6           0        3.607902   -1.187671    3.746464
     62          1           0        3.568330   -1.261205    4.838548
     63          1           0        4.186194   -2.050114    3.392558
     64          8           0        5.903617   -0.085488    5.259745
     65          6           0        2.206060   -1.269825    3.131337
     66          1           0        1.829519   -2.291605    3.274245
     67          1           0        2.284987   -1.118969    2.051198
     68          6           0        1.176127   -0.285409    3.703769
     69          1           0        0.994351   -0.473823    4.766133
     70          1           0        1.520238    0.747277    3.613346
     71          7           0       -0.113613   -0.397316    2.999327
     72          1           0       -0.571674   -1.297021    3.091967
     73          7           0       -1.441389   -0.314332    1.019670
     74          1           0       -1.442203    0.206748    0.110374
     75          1           0       -2.357542   -0.244669    1.474947
     76          7           0        0.200816    1.301047    1.304068
     77          1           0        1.006586    1.690570    1.799978
     78          6           0       -0.332996    0.288556    1.840024
     79          8           0        6.784467   -0.007544    3.177611
     80          1           0        7.607811   -0.103578    3.694609
     81          1           0       -1.119944   -2.762015   -0.962723
     82          1           0        3.864845    3.288335   -3.854010
 ---------------------------------------------------------------------

 SCF Done:  E(RB3LYP) =  -2166.38330387     A.U. after    1 cycles

 Alpha  occ. eigenvalues --  -19.30727 -19.28865 -19.27323 -19.25447 -19.24727
 Alpha  occ. eigenvalues --  -19.23482 -19.23404 -19.23403 -19.22818 -19.22681
 Alpha  occ. eigenvalues --  -14.55314 -14.49217 -14.48811 -14.47644 -14.47061
 Alpha  occ. eigenvalues --  -14.47038 -14.42780 -14.40564 -10.43667 -10.43256
 Alpha  occ. eigenvalues --  -10.41407 -10.41129 -10.40338 -10.39982 -10.39942
 Alpha  occ. eigenvalues --  -10.35577 -10.35182 -10.34698 -10.34284 -10.33963
 Alpha  occ. eigenvalues --  -10.33855 -10.33595 -10.32733 -10.30864 -10.29512
 Alpha  occ. eigenvalues --  -10.29405 -10.29181 -10.28088 -10.27010 -10.26918
 Alpha  occ. eigenvalues --  -10.26759 -10.26743 -10.26541  -1.21783  -1.19601
 Alpha  occ. eigenvalues --   -1.17070  -1.15398  -1.14802  -1.14355  -1.14199
 Alpha  occ. eigenvalues --   -1.13239  -1.12751  -1.11054  -1.10628  -1.05766
 Alpha  occ. eigenvalues --   -1.05383  -1.03938  -1.03735  -1.03462  -0.99591
 Alpha  occ. eigenvalues --   -0.98545  -0.93387  -0.91355  -0.90208  -0.88614
 Alpha  occ. eigenvalues --   -0.86840  -0.85702  -0.85496  -0.82252  -0.80957
 Alpha  occ. eigenvalues --   -0.80670  -0.79187  -0.77306  -0.75324  -0.74003
 Alpha  occ. eigenvalues --   -0.73425  -0.72175  -0.71719  -0.71482  -0.70874
 Alpha  occ. eigenvalues --   -0.70191  -0.69432  -0.69300  -0.68957  -0.68534
 Alpha  occ. eigenvalues --   -0.68449  -0.66826  -0.66037  -0.65252  -0.64060
 Alpha  occ. eigenvalues --   -0.63213  -0.62892  -0.62021  -0.61649  -0.61207
 Alpha  occ. eigenvalues --   -0.61047  -0.60322  -0.59881  -0.59342  -0.58650
 Alpha  occ. eigenvalues --   -0.58336  -0.58003  -0.57442  -0.57253  -0.56790
 Alpha  occ. eigenvalues --   -0.56420  -0.55905  -0.55499  -0.55155  -0.54633
 Alpha  occ. eigenvalues --   -0.54532  -0.54364  -0.54050  -0.53301  -0.52978
 Alpha  occ. eigenvalues --   -0.52913  -0.52421  -0.52242  -0.52098  -0.51409
 Alpha  occ. eigenvalues --   -0.50691  -0.50548  -0.50102  -0.49896  -0.49748
 Alpha  occ. eigenvalues --   -0.49480  -0.49165  -0.48893  -0.48554  -0.48466
 Alpha  occ. eigenvalues --   -0.48240  -0.47748  -0.47304  -0.46858  -0.46703
 Alpha  occ. eigenvalues --   -0.45777  -0.45753  -0.44905  -0.44220  -0.43364
 Alpha  occ. eigenvalues --   -0.43046  -0.42270  -0.42116  -0.41885  -0.41462
 Alpha  occ. eigenvalues --   -0.40606  -0.40500  -0.39555  -0.39201  -0.38996
 Alpha  occ. eigenvalues --   -0.38827  -0.38097  -0.37452  -0.37100  -0.36563
 Alpha  occ. eigenvalues --   -0.36371  -0.35872  -0.35402  -0.34385  -0.33396
 Alpha  occ. eigenvalues --   -0.32910  -0.32081
 Alpha virt. eigenvalues --   -0.11459  -0.10936  -0.10603  -0.10296  -0.09616
 Alpha virt. eigenvalues --   -0.08499  -0.08188  -0.07956  -0.07456  -0.06671
 Alpha virt. eigenvalues --   -0.04209  -0.02940  -0.02481  -0.01982  -0.01898

 Mulliken charges:
               1
     1  N   -0.721403
     2  H    0.325026
     3  H    0.318305
     4  C   -0.053701
     5  H    0.135654
     6  C    0.638520
     7  C   -0.356170
     8  H    0.125804
     9  H    0.157110
    10  O   -0.562504
    11  C    0.147929
    12  C   -0.180041
    13  H    0.124350
    14  C   -0.196572
    15  H    0.140181
    16  C   -0.127098
    17  H    0.149545
    18  C   -0.128201
    19  H    0.148201
    20  C   -0.126788
    21  H    0.151706
    22  N   -0.599244
    23  H    0.346064
    24  C   -0.014066
    25  H    0.178519
    26  C    0.635525
    27  C   -0.073425
    28  H    0.159044
    29  H    0.170505
    30  O   -0.579087
    31  O   -0.648094
    32  H    0.435514
    33  N   -0.576878
    34  H    0.357212
    35  C   -0.132290
    36  H    0.185498
    37  C    0.627401
    38  C   -0.044399
    39  H    0.185097
    40  H    0.177874
    41  O   -0.531781
    42  O   -0.677317
    43  H    0.431237
    44  N   -0.605004
    45  H    0.384878
    46  C   -0.050710
    47  H    0.191193
    48  C    0.624271
    49  C   -0.380214
    50  H    0.226148
    51  H    0.206575
    52  O   -0.547346
    53  C    0.595670
    54  O   -0.484551
    55  O   -0.533510
    56  N   -0.568608
    57  H    0.366689
    58  C   -0.080351
    59  H    0.218639
    60  C    0.599829
    61  C   -0.279886
    62  H    0.188696
    63  H    0.167508
    64  O   -0.442187
    65  C   -0.292979
    66  H    0.152715
    67  H    0.163648
    68  C   -0.178529
    69  H    0.184785
    70  H    0.198319
    71  N   -0.573414
    72  H    0.342356
    73  N   -0.859022
    74  H    0.471532
    75  H    0.405356
    76  N   -0.601493
    77  H    0.370105
    78  C    0.535696
    79  O   -0.567063
    80  H    0.428859
    81  H    0.469025
    82  H    0.429614
 Sum of Mulliken charges =   1.00000

 Dipole moment (field-independent basis, Debye):
    X=             -1.5044    Y=             -1.5009    Z=             -2.3677  Tot=              3.1815
 Quadrupole moment (field-independent basis, Debye-Ang):
   XX=           -151.0664   YY=           -237.9184   ZZ=           -207.7323
   XY=             13.6221   XZ=             12.1624   YZ=            -12.8076

 Normal termination of Gaussian 16 at Tue May 17 15:39:41 2022.
