 Gaussian 16, Revision C.01,
 Gaussian 16:  ES64L-G16RevC.01  3-Jul-2019

 ----------------------------------------------------------------------
 # B3LYP/6-31G* empiricaldispersion=gd3 guess=read geom=check nosymm in
 tegral(ultrafinegrid)
 ----------------------------------------------------------------------

 ------------------------------------------------------
 Candidate Structure: Conf:669 Charge calc in gas phase
 ------------------------------------------------------
 Structure from the checkpoint file:  "conf-669.chk"
 Charge =  1 Multiplicity = 1

                          Input orientation:
 ---------------------------------------------------------------------
 Center     Atomic      Atomic             Coordinates (Angstroms)
 Number     Number       Type             X           Y           Z
 ---------------------------------------------------------------------
      1          7           0       -1.830393   -3.875991   -1.530782
      2          1           0       -2.302535   -4.598234   -2.070767
      3          1           0       -0.832679   -3.980663   -1.721597
      4          6           0       -2.231504   -2.549277   -2.000235
      5          1           0       -3.275096   -2.579691   -2.331869
      6          6           0       -1.310092   -2.050339   -3.119290
      7          6           0       -2.098592   -1.490048   -0.867485
      8          1           0       -1.077148   -1.581004   -0.478781
      9          1           0       -2.163020   -0.492273   -1.322133
     10          8           0       -0.099808   -2.320559   -3.085725
     11          6           0       -3.120786   -1.581368    0.244017
     12          6           0       -3.955888   -0.486826    0.505497
     13          1           0       -3.872689    0.408833   -0.107682
     14          6           0       -3.253353   -2.728898    1.042892
     15          1           0       -2.637915   -3.594754    0.827797
     16          6           0       -4.894327   -0.525702    1.538515
     17          1           0       -5.532920    0.334289    1.721242
     18          6           0       -4.191563   -2.769472    2.075233
     19          1           0       -4.284339   -3.667348    2.680520
     20          6           0       -5.013197   -1.668706    2.329628
     21          1           0       -5.742472   -1.704038    3.134006
     22          7           0       -1.843622   -1.221887   -4.043385
     23          1           0       -2.818103   -0.942011   -3.997292
     24          6           0       -1.039947   -0.488747   -5.022842
     25          1           0       -0.244746   -1.153724   -5.376808
     26          6           0       -0.411045    0.745313   -4.336047
     27          6           0       -1.952744   -0.055252   -6.175761
     28          1           0       -2.332228   -0.943477   -6.688563
     29          1           0       -1.375264    0.542470   -6.892275
     30          8           0       -0.753857    1.900857   -4.594794
     31          8           0       -3.080326    0.649090   -5.677843
     32          1           0       -2.733576    1.508068   -5.376335
     33          7           0        0.517690    0.442730   -3.392965
     34          1           0        0.679342   -0.540699   -3.160566
     35          6           0        1.108016    1.448189   -2.540985
     36          1           0        1.603842    2.222459   -3.137525
     37          6           0        2.084879    0.753578   -1.601690
     38          6           0        0.039928    2.137049   -1.647430
     39          1           0       -0.504083    1.370403   -1.082563
     40          1           0       -0.650265    2.676902   -2.297854
     41          8           0        1.924844   -0.419118   -1.262063
     42          8           0        0.712544    3.033622   -0.741640
     43          1           0        0.211604    3.856756   -0.642397
     44          7           0        3.055967    1.536915   -1.048425
     45          1           0        2.970091    2.542628   -1.158363
     46          6           0        3.660225    1.058471    0.184632
     47          1           0        4.140516    0.097027   -0.004994
     48          6           0        2.574297    0.815864    1.234570
     49          6           0        4.752956    1.995975    0.729925
     50          1           0        5.165995    1.577312    1.653371
     51          1           0        5.577773    2.027869    0.007784
     52          8           0        1.583732    1.645177    1.399694
     53          6           0        4.303834    3.421242    0.989319
     54          8           0        3.242513    3.893140    0.623161
     55          8           0        5.238344    4.108318    1.650995
     56          7           0        2.665679   -0.221492    2.014008
     57          1           0        3.337574   -0.958275    1.716786
     58          6           0        1.779014   -0.495445    3.156113
     59          1           0        0.954989    0.222877    3.105164
     60          6           0        2.513063   -0.217704    4.475654
     61          6           0        1.222063   -1.925435    3.107442
     62          1           0        0.688206   -2.078126    4.048916
     63          1           0        2.060550   -2.628442    3.115961
     64          8           0        2.140880   -0.642069    5.539531
     65          6           0        0.288490   -2.180284    1.897287
     66          1           0        0.378677   -1.362240    1.169586
     67          1           0       -0.756166   -2.173727    2.227586
     68          6           0        0.559876   -3.498675    1.143120
     69          1           0        0.719459   -4.319859    1.848247
     70          1           0       -0.311929   -3.766336    0.541923
     71          7           0        1.703753   -3.419477    0.211028
     72          1           0        1.501203   -2.792593   -0.564451
     73          7           0        3.355146   -4.056769    1.741267
     74          1           0        4.353563   -4.047571    1.911726
     75          1           0        2.967328   -4.991405    1.703190
     76          7           0        3.814646   -2.292826    0.313146
     77          1           0        3.355350   -1.751371   -0.421083
     78          6           0        2.987153   -3.216532    0.705625
     79          8           0        3.590681    0.584640    4.309759
     80          1           0        3.969853    0.731571    5.198563
     81          1           0        1.486212    2.329580    0.672949
     82          1           0        4.923336    5.027083    1.761424
 ---------------------------------------------------------------------

 SCF Done:  E(RB3LYP) =  -2166.37696767     A.U. after    1 cycles

 Alpha  occ. eigenvalues --  -19.34728 -19.32579 -19.31415 -19.30367 -19.27568
 Alpha  occ. eigenvalues --  -19.26329 -19.25370 -19.22433 -19.22342 -19.21783
 Alpha  occ. eigenvalues --  -14.53025 -14.50020 -14.46172 -14.46101 -14.44044
 Alpha  occ. eigenvalues --  -14.43792 -14.40277 -14.38584 -10.47158 -10.45927
 Alpha  occ. eigenvalues --  -10.43775 -10.42813 -10.39336 -10.39098 -10.38280
 Alpha  occ. eigenvalues --  -10.38209 -10.36959 -10.36590 -10.35910 -10.34838
 Alpha  occ. eigenvalues --  -10.32728 -10.31817 -10.31630 -10.31066 -10.29339
 Alpha  occ. eigenvalues --  -10.28331 -10.27996 -10.27015 -10.26059 -10.25824
 Alpha  occ. eigenvalues --  -10.25715 -10.25608 -10.25374  -1.25272  -1.23872
 Alpha  occ. eigenvalues --   -1.22092  -1.18399  -1.16597  -1.15028  -1.14362
 Alpha  occ. eigenvalues --   -1.13267  -1.13205  -1.10670  -1.09879  -1.07313
 Alpha  occ. eigenvalues --   -1.07068  -1.03371  -1.02017  -0.98017  -0.97670
 Alpha  occ. eigenvalues --   -0.94798  -0.94056  -0.92358  -0.91578  -0.89110
 Alpha  occ. eigenvalues --   -0.86228  -0.85743  -0.84607  -0.83159  -0.81146
 Alpha  occ. eigenvalues --   -0.79758  -0.79540  -0.78320  -0.77879  -0.74987
 Alpha  occ. eigenvalues --   -0.74214  -0.73186  -0.72479  -0.71064  -0.70567
 Alpha  occ. eigenvalues --   -0.69633  -0.69380  -0.68726  -0.68483  -0.68188
 Alpha  occ. eigenvalues --   -0.67328  -0.66024  -0.65154  -0.64618  -0.64373
 Alpha  occ. eigenvalues --   -0.63554  -0.62993  -0.62655  -0.61723  -0.61587
 Alpha  occ. eigenvalues --   -0.61012  -0.60141  -0.59883  -0.59063  -0.59010
 Alpha  occ. eigenvalues --   -0.58387  -0.57860  -0.57753  -0.57496  -0.57097
 Alpha  occ. eigenvalues --   -0.56998  -0.56676  -0.56238  -0.55155  -0.54997
 Alpha  occ. eigenvalues --   -0.54495  -0.54111  -0.53635  -0.53374  -0.52958
 Alpha  occ. eigenvalues --   -0.52888  -0.52584  -0.52157  -0.51996  -0.51753
 Alpha  occ. eigenvalues --   -0.51470  -0.51181  -0.50995  -0.50749  -0.50447
 Alpha  occ. eigenvalues --   -0.49759  -0.49704  -0.49343  -0.48955  -0.48588
 Alpha  occ. eigenvalues --   -0.48292  -0.47387  -0.46873  -0.46692  -0.46371
 Alpha  occ. eigenvalues --   -0.45541  -0.45380  -0.44982  -0.44750  -0.44512
 Alpha  occ. eigenvalues --   -0.43968  -0.43116  -0.42641  -0.42255  -0.41894
 Alpha  occ. eigenvalues --   -0.41809  -0.41157  -0.40840  -0.40368  -0.39864
 Alpha  occ. eigenvalues --   -0.38360  -0.37905  -0.37566  -0.36439  -0.36150
 Alpha  occ. eigenvalues --   -0.35704  -0.34975  -0.33848  -0.33000  -0.32128
 Alpha  occ. eigenvalues --   -0.31725  -0.31053
 Alpha virt. eigenvalues --   -0.16370  -0.12614  -0.12456  -0.10623  -0.09469
 Alpha virt. eigenvalues --   -0.07718  -0.07092  -0.06720  -0.06393  -0.06137
 Alpha virt. eigenvalues --   -0.03737  -0.03618  -0.02711  -0.01475  -0.01326

 Mulliken charges:
               1
     1  N   -0.720905
     2  H    0.321346
     3  H    0.326237
     4  C   -0.061161
     5  H    0.157313
     6  C    0.608638
     7  C   -0.369964
     8  H    0.159798
     9  H    0.136052
    10  O   -0.561684
    11  C    0.163534
    12  C   -0.195676
    13  H    0.114128
    14  C   -0.188660
    15  H    0.170015
    16  C   -0.127003
    17  H    0.140594
    18  C   -0.134095
    19  H    0.141332
    20  C   -0.127943
    21  H    0.144923
    22  N   -0.591894
    23  H    0.358041
    24  C   -0.087630
    25  H    0.195958
    26  C    0.628676
    27  C   -0.056365
    28  H    0.171775
    29  H    0.164302
    30  O   -0.541855
    31  O   -0.630063
    32  H    0.418170
    33  N   -0.660079
    34  H    0.412100
    35  C   -0.013756
    36  H    0.195239
    37  C    0.597611
    38  C   -0.081085
    39  H    0.174033
    40  H    0.212556
    41  O   -0.528166
    42  O   -0.659294
    43  H    0.441188
    44  N   -0.604965
    45  H    0.380878
    46  C   -0.088047
    47  H    0.241895
    48  C    0.645151
    49  C   -0.388352
    50  H    0.229034
    51  H    0.238347
    52  O   -0.593662
    53  C    0.593464
    54  O   -0.480759
    55  O   -0.535744
    56  N   -0.550349
    57  H    0.400997
    58  C   -0.110986
    59  H    0.232651
    60  C    0.615852
    61  C   -0.310709
    62  H    0.202130
    63  H    0.200407
    64  O   -0.422516
    65  C   -0.298707
    66  H    0.142679
    67  H    0.181667
    68  C   -0.195061
    69  H    0.164110
    70  H    0.200485
    71  N   -0.585458
    72  H    0.352672
    73  N   -0.729164
    74  H    0.352570
    75  H    0.349056
    76  N   -0.732183
    77  H    0.322727
    78  C    0.561616
    79  O   -0.578954
    80  H    0.433888
    81  H    0.509809
    82  H    0.437248
 Sum of Mulliken charges =   1.00000

 Dipole moment (field-independent basis, Debye):
    X=              8.7885    Y=              3.4256    Z=              2.0184  Tot=              9.6460
 Quadrupole moment (field-independent basis, Debye-Ang):
   XX=           -192.7513   YY=           -189.3363   ZZ=           -218.8311
   XY=             25.0087   XZ=             21.6620   YZ=              5.4864

 Normal termination of Gaussian 16 at Tue May 17 15:39:44 2022.
