 Gaussian 16, Revision C.01,
 Gaussian 16:  ES64L-G16RevC.01  3-Jul-2019

 ----------------------------------------------------------------------
 # B3LYP/6-31G* empiricaldispersion=gd3 guess=read geom=check nosymm in
 tegral(ultrafinegrid)
 ----------------------------------------------------------------------

 ------------------------------------------------------
 Candidate Structure: Conf:367 Charge calc in gas phase
 ------------------------------------------------------
 Structure from the checkpoint file:  "conf-367.chk"
 Charge =  1 Multiplicity = 1

                          Input orientation:
 ---------------------------------------------------------------------
 Center     Atomic      Atomic             Coordinates (Angstroms)
 Number     Number       Type             X           Y           Z
 ---------------------------------------------------------------------
      1          7           0       -4.636568   -1.263634   -1.620856
      2          1           0       -5.649423   -1.297596   -1.711519
      3          1           0       -4.343991   -2.088544   -1.101590
      4          6           0       -4.033440   -1.313691   -2.952276
      5          1           0       -4.364525   -2.181587   -3.556847
      6          6           0       -2.530187   -1.549117   -2.741713
      7          6           0       -4.397472   -0.038157   -3.743907
      8          1           0       -3.981540    0.829801   -3.218290
      9          1           0       -3.938979   -0.087637   -4.739348
     10          8           0       -2.151690   -2.365384   -1.901749
     11          6           0       -5.894350    0.118342   -3.906413
     12          6           0       -6.564713   -0.518523   -4.959109
     13          1           0       -5.995992   -1.095163   -5.685732
     14          6           0       -6.643128    0.860343   -2.983363
     15          1           0       -6.132896    1.350634   -2.158259
     16          6           0       -7.949921   -0.415892   -5.089148
     17          1           0       -8.453092   -0.911705   -5.914644
     18          6           0       -8.029292    0.964930   -3.110518
     19          1           0       -8.594970    1.547273   -2.388282
     20          6           0       -8.686431    0.327382   -4.164293
     21          1           0       -9.764627    0.411462   -4.266560
     22          7           0       -1.660359   -0.873415   -3.562172
     23          1           0       -1.987113    0.001582   -3.956035
     24          6           0       -0.231868   -0.911182   -3.301234
     25          1           0       -0.068280   -1.652271   -2.520696
     26          6           0        0.204036    0.456308   -2.770043
     27          6           0        0.580150   -1.336394   -4.535749
     28          1           0        0.286290   -2.359807   -4.806000
     29          1           0        1.644642   -1.354883   -4.279623
     30          8           0       -0.431148    1.489250   -2.948075
     31          8           0        0.433440   -0.425474   -5.607551
     32          1           0       -0.447529   -0.564376   -5.988723
     33          7           0        1.361515    0.402820   -2.047564
     34          1           0        1.718664   -0.516893   -1.782012
     35          6           0        1.854645    1.551164   -1.328407
     36          1           0        1.944892    2.413972   -1.997840
     37          6           0        3.193637    1.182314   -0.701612
     38          6           0        0.840997    1.907788   -0.204035
     39          1           0        0.598645    1.002167    0.362959
     40          1           0       -0.059689    2.288973   -0.687713
     41          8           0        3.581573    0.023180   -0.613704
     42          8           0        1.394913    2.906913    0.697041
     43          1           0        0.667723    3.441948    1.055313
     44          7           0        3.887621    2.194016   -0.083767
     45          1           0        3.462779    3.113385   -0.056972
     46          6           0        4.796070    1.808598    0.985742
     47          1           0        5.553365    1.136490    0.579321
     48          6           0        3.990920    1.003453    2.022730
     49          6           0        5.479660    3.034200    1.602491
     50          1           0        5.872929    3.664227    0.796218
     51          1           0        4.783558    3.658666    2.175144
     52          8           0        2.778183    1.359137    2.345163
     53          6           0        6.637188    2.624660    2.497463
     54          8           0        6.952184    1.473615    2.721283
     55          8           0        7.265313    3.695256    2.990823
     56          7           0        4.484384   -0.061039    2.576962
     57          1           0        5.469594   -0.286077    2.404606
     58          6           0        3.765959   -1.033608    3.424327
     59          1           0        3.457077   -0.540222    4.351779
     60          6           0        4.807944   -2.102075    3.762589
     61          6           0        2.525837   -1.644319    2.723223
     62          1           0        1.793397   -0.841031    2.604544
     63          1           0        2.091125   -2.362652    3.424464
     64          8           0        5.921723   -2.125428    3.287463
     65          6           0        2.829574   -2.301652    1.362203
     66          1           0        3.122900   -3.348782    1.497983
     67          1           0        3.677626   -1.795632    0.892330
     68          6           0        1.628224   -2.207477    0.402804
     69          1           0        0.842313   -2.907941    0.695233
     70          1           0        1.204503   -1.193632    0.475658
     71          7           0        1.985849   -2.473792   -0.994908
     72          1           0        2.946451   -2.229405   -1.209618
     73          7           0        0.307320   -4.086906   -1.339413
     74          1           0        0.046798   -4.877596   -1.918647
     75          1           0       -0.444456   -3.398420   -1.323123
     76          7           0        2.253743   -4.239638   -2.592395
     77          1           0        3.217696   -3.902473   -2.633446
     78          6           0        1.571592   -3.634173   -1.689282
     79          8           0        4.312427   -2.994420    4.622890
     80          1           0        5.000213   -3.666079    4.798026
     81          1           0        2.356757    2.067469    1.770196
     82          1           0        8.014299    3.387404    3.537935
 ---------------------------------------------------------------------

 SCF Done:  E(RB3LYP) =  -2166.34234472     A.U. after    1 cycles

 Alpha  occ. eigenvalues --  -19.36684 -19.33150 -19.32836 -19.32819 -19.27857
 Alpha  occ. eigenvalues --  -19.27614 -19.27244 -19.21863 -19.21550 -19.20063
 Alpha  occ. eigenvalues --  -14.55024 -14.51446 -14.46046 -14.43967 -14.43603
 Alpha  occ. eigenvalues --  -14.39829 -14.37171 -14.35319 -10.49148 -10.46296
 Alpha  occ. eigenvalues --  -10.45757 -10.43904 -10.40950 -10.39032 -10.38333
 Alpha  occ. eigenvalues --  -10.38003 -10.36934 -10.36744 -10.36029 -10.35021
 Alpha  occ. eigenvalues --  -10.31853 -10.31616 -10.31009 -10.30920 -10.29478
 Alpha  occ. eigenvalues --  -10.29244 -10.25710 -10.25207 -10.24215 -10.24136
 Alpha  occ. eigenvalues --  -10.24111 -10.24059 -10.23949  -1.27233  -1.24157
 Alpha  occ. eigenvalues --   -1.24084  -1.19704  -1.18826  -1.15635  -1.15385
 Alpha  occ. eigenvalues --   -1.13658  -1.12145  -1.11638  -1.09360  -1.08441
 Alpha  occ. eigenvalues --   -1.04663  -1.03491  -1.00360  -0.96315  -0.95811
 Alpha  occ. eigenvalues --   -0.95100  -0.93330  -0.90849  -0.90576  -0.89840
 Alpha  occ. eigenvalues --   -0.87317  -0.84743  -0.84203  -0.82892  -0.82007
 Alpha  occ. eigenvalues --   -0.79533  -0.79192  -0.78072  -0.77544  -0.76672
 Alpha  occ. eigenvalues --   -0.74797  -0.73631  -0.72529  -0.72280  -0.71152
 Alpha  occ. eigenvalues --   -0.70071  -0.69649  -0.68771  -0.67573  -0.67069
 Alpha  occ. eigenvalues --   -0.66141  -0.65988  -0.65685  -0.64289  -0.64214
 Alpha  occ. eigenvalues --   -0.63373  -0.63234  -0.62177  -0.62080  -0.61417
 Alpha  occ. eigenvalues --   -0.61036  -0.60659  -0.60562  -0.59704  -0.59315
 Alpha  occ. eigenvalues --   -0.58856  -0.58529  -0.58424  -0.57292  -0.57159
 Alpha  occ. eigenvalues --   -0.56468  -0.56017  -0.55908  -0.55249  -0.55045
 Alpha  occ. eigenvalues --   -0.54678  -0.54213  -0.53995  -0.53702  -0.53595
 Alpha  occ. eigenvalues --   -0.52830  -0.52512  -0.52121  -0.51921  -0.51578
 Alpha  occ. eigenvalues --   -0.51083  -0.50881  -0.50654  -0.50538  -0.50253
 Alpha  occ. eigenvalues --   -0.50160  -0.49544  -0.48657  -0.47945  -0.47150
 Alpha  occ. eigenvalues --   -0.46879  -0.46698  -0.46282  -0.46053  -0.45831
 Alpha  occ. eigenvalues --   -0.45290  -0.45232  -0.44955  -0.44793  -0.44632
 Alpha  occ. eigenvalues --   -0.44122  -0.43245  -0.43151  -0.42120  -0.41586
 Alpha  occ. eigenvalues --   -0.41235  -0.40758  -0.40624  -0.40448  -0.39553
 Alpha  occ. eigenvalues --   -0.39139  -0.36344  -0.35935  -0.35482  -0.34217
 Alpha  occ. eigenvalues --   -0.33681  -0.32919  -0.32458  -0.30180  -0.30024
 Alpha  occ. eigenvalues --   -0.29652  -0.29357
 Alpha virt. eigenvalues --   -0.18530  -0.13594  -0.12532  -0.12233  -0.08904
 Alpha virt. eigenvalues --   -0.07523  -0.06071  -0.05480  -0.05285  -0.05174
 Alpha virt. eigenvalues --   -0.04037  -0.03880  -0.03653  -0.02765  -0.02056

 Mulliken charges:
               1
     1  N   -0.735078
     2  H    0.317387
     3  H    0.319178
     4  C   -0.054356
     5  H    0.154558
     6  C    0.627736
     7  C   -0.372108
     8  H    0.162253
     9  H    0.140785
    10  O   -0.535853
    11  C    0.143744
    12  C   -0.178184
    13  H    0.125264
    14  C   -0.179037
    15  H    0.136123
    16  C   -0.128340
    17  H    0.141300
    18  C   -0.130074
    19  H    0.138411
    20  C   -0.128111
    21  H    0.141585
    22  N   -0.620825
    23  H    0.361317
    24  C   -0.108331
    25  H    0.177568
    26  C    0.636827
    27  C   -0.032262
    28  H    0.166705
    29  H    0.156295
    30  O   -0.526959
    31  O   -0.605049
    32  H    0.400877
    33  N   -0.659321
    34  H    0.411402
    35  C   -0.040374
    36  H    0.212605
    37  C    0.604200
    38  C   -0.104178
    39  H    0.182325
    40  H    0.233324
    41  O   -0.513925
    42  O   -0.667434
    43  H    0.446649
    44  N   -0.624822
    45  H    0.363931
    46  C   -0.025225
    47  H    0.235882
    48  C    0.636659
    49  C   -0.411435
    50  H    0.238612
    51  H    0.207617
    52  O   -0.591614
    53  C    0.610146
    54  O   -0.459795
    55  O   -0.542931
    56  N   -0.554085
    57  H    0.421654
    58  C   -0.056060
    59  H    0.223429
    60  C    0.606760
    61  C   -0.300958
    62  H    0.172906
    63  H    0.203125
    64  O   -0.446013
    65  C   -0.307358
    66  H    0.177135
    67  H    0.165863
    68  C   -0.130214
    69  H    0.201433
    70  H    0.116634
    71  N   -0.640922
    72  H    0.333462
    73  N   -0.770660
    74  H    0.344334
    75  H    0.376882
    76  N   -0.627093
    77  H    0.265672
    78  C    0.551002
    79  O   -0.550810
    80  H    0.444655
    81  H    0.482593
    82  H    0.440991
 Sum of Mulliken charges =   1.00000

 Dipole moment (field-independent basis, Debye):
    X=             13.0587    Y=              7.2221    Z=              9.2355  Tot=             17.5494
 Quadrupole moment (field-independent basis, Debye-Ang):
   XX=           -134.9785   YY=           -217.8118   ZZ=           -203.5475
   XY=             35.0268   XZ=             69.4809   YZ=              5.2288

 Normal termination of Gaussian 16 at Tue May 17 15:39:37 2022.
