 Gaussian 16, Revision C.01,
 Gaussian 16:  ES64L-G16RevC.01  3-Jul-2019

 ----------------------------------------------------------------------
 # B3LYP/6-31G* empiricaldispersion=gd3 guess=read geom=check nosymm in
 tegral(ultrafinegrid)
 ----------------------------------------------------------------------

 ------------------------------------------------------
 Candidate Structure: Conf:662 Charge calc in gas phase
 ------------------------------------------------------
 Structure from the checkpoint file:  "conf-662.chk"
 Charge =  1 Multiplicity = 1

                          Input orientation:
 ---------------------------------------------------------------------
 Center     Atomic      Atomic             Coordinates (Angstroms)
 Number     Number       Type             X           Y           Z
 ---------------------------------------------------------------------
      1          7           0       -6.229922   -0.570663   -2.857998
      2          1           0       -7.012066    0.060890   -3.024670
      3          1           0       -6.614234   -1.382985   -2.379298
      4          6           0       -5.635787   -0.968207   -4.140329
      5          1           0       -6.146937   -1.813354   -4.622551
      6          6           0       -4.183556   -1.403564   -3.944671
      7          6           0       -5.640412    0.218002   -5.140146
      8          1           0       -5.083845    1.049794   -4.690052
      9          1           0       -5.091494   -0.104374   -6.031012
     10          8           0       -3.537867   -2.004161   -4.797014
     11          6           0       -7.042432    0.656322   -5.498612
     12          6           0       -7.811861   -0.100016   -6.394427
     13          1           0       -7.376439   -0.979952   -6.863423
     14          6           0       -7.615564    1.792117   -4.911445
     15          1           0       -7.024567    2.397450   -4.226864
     16          6           0       -9.121474    0.270406   -6.695678
     17          1           0       -9.702281   -0.321382   -7.397655
     18          6           0       -8.928902    2.164958   -5.210172
     19          1           0       -9.356127    3.052100   -4.751025
     20          6           0       -9.684490    1.403983   -6.102079
     21          1           0      -10.703998    1.693914   -6.339454
     22          7           0       -3.629658   -1.006555   -2.756658
     23          1           0       -4.239139   -0.503480   -2.115671
     24          6           0       -2.244076   -1.290007   -2.515526
     25          1           0       -2.027226   -2.264346   -2.982036
     26          6           0       -1.944948   -1.414271   -1.040117
     27          6           0       -1.319806   -0.252633   -3.214222
     28          1           0       -1.316952    0.694429   -2.673743
     29          1           0       -1.705383   -0.113527   -4.227011
     30          8           0       -2.952816   -1.429370   -0.219376
     31          8           0        0.045818   -0.699474   -3.235741
     32          1           0        0.168355   -1.317427   -3.975809
     33          7           0       -0.701107   -1.485880   -0.640772
     34          1           0        0.025190   -1.463502   -1.369366
     35          6           0       -0.189306   -1.216391    0.716137
     36          1           0       -0.713831   -0.337123    1.105528
     37          6           0        1.300566   -0.878716    0.478241
     38          6           0       -0.397520   -2.382688    1.674975
     39          1           0        0.130893   -2.183338    2.614748
     40          1           0       -0.016685   -3.310429    1.232939
     41          8           0        1.891104   -1.422922   -0.450093
     42          8           0       -1.815242   -2.447045    1.909115
     43          1           0       -2.056416   -3.268449    2.366500
     44          7           0        1.834325    0.067904    1.272864
     45          1           0        1.278692    0.545799    1.976137
     46          6           0        2.979141    0.843468    0.807072
     47          1           0        3.672353    0.163909    0.308167
     48          6           0        3.586487    1.518793    2.046995
     49          6           0        2.521719    1.969194   -0.182239
     50          1           0        2.016239    2.746928    0.396531
     51          1           0        3.401023    2.391374   -0.675333
     52          8           0        2.846252    1.873996    2.962845
     53          6           0        1.530139    1.439429   -1.198340
     54          8           0        0.336276    1.323403   -0.952691
     55          8           0        2.091213    1.042099   -2.337759
     56          7           0        4.916178    1.723621    2.015688
     57          1           0        5.479269    1.444381    1.219347
     58          6           0        5.614306    2.456459    3.066821
     59          1           0        5.052084    3.370497    3.290776
     60          6           0        6.970814    2.848998    2.498907
     61          6           0        5.755700    1.644707    4.373522
     62          1           0        4.741750    1.404450    4.709921
     63          1           0        6.201461    2.291629    5.133935
     64          8           0        7.398266    2.476210    1.426287
     65          6           0        6.581024    0.363041    4.217995
     66          1           0        7.614781    0.608844    3.933039
     67          1           0        6.175669   -0.248102    3.401859
     68          6           0        6.594302   -0.485618    5.492089
     69          1           0        5.562228   -0.736563    5.766408
     70          1           0        7.117193   -1.437279    5.298558
     71          7           0        7.178854    0.248462    6.603732
     72          1           0        8.087778    0.651257    6.397139
     73          7           0        7.847744    0.494375    8.804262
     74          1           0        7.714803    0.164338    9.753750
     75          1           0        7.685123    1.492872    8.725067
     76          7           0        6.492983   -1.325884    8.306688
     77          1           0        6.138820   -1.884938    7.531044
     78          6           0        7.113167   -0.279386    7.901983
     79          8           0        7.649341    3.636843    3.348170
     80          1           0        8.510593    3.839565    2.934791
     81          1           0       -2.677631   -1.747105    0.697550
     82          1           0        1.405332    0.548456   -2.849111
 ---------------------------------------------------------------------

 SCF Done:  E(RB3LYP) =  -2166.35014218     A.U. after    1 cycles

 Alpha  occ. eigenvalues --  -19.35587 -19.32426 -19.30532 -19.28949 -19.28669
 Alpha  occ. eigenvalues --  -19.24909 -19.24039 -19.23578 -19.21876 -19.21306
 Alpha  occ. eigenvalues --  -14.53720 -14.48468 -14.46471 -14.46294 -14.41442
 Alpha  occ. eigenvalues --  -14.40267 -14.38247 -14.33105 -10.48103 -10.42492
 Alpha  occ. eigenvalues --  -10.42404 -10.41509 -10.39304 -10.39259 -10.39120
 Alpha  occ. eigenvalues --  -10.38059 -10.37703 -10.36582 -10.35493 -10.33064
 Alpha  occ. eigenvalues --  -10.32472 -10.31437 -10.30838 -10.28662 -10.27483
 Alpha  occ. eigenvalues --  -10.26760 -10.26756 -10.26573 -10.25803 -10.25600
 Alpha  occ. eigenvalues --  -10.25584 -10.25510 -10.25345  -1.26253  -1.20343
 Alpha  occ. eigenvalues --   -1.20048  -1.18838  -1.17389  -1.16884  -1.13999
 Alpha  occ. eigenvalues --   -1.13474  -1.11204  -1.11183  -1.10838  -1.05258
 Alpha  occ. eigenvalues --   -1.03891  -1.02802  -1.02225  -0.98564  -0.94100
 Alpha  occ. eigenvalues --   -0.93840  -0.92177  -0.90158  -0.88721  -0.88509
 Alpha  occ. eigenvalues --   -0.87553  -0.85346  -0.82844  -0.82689  -0.81030
 Alpha  occ. eigenvalues --   -0.80850  -0.80118  -0.78516  -0.76120  -0.74975
 Alpha  occ. eigenvalues --   -0.74151  -0.73182  -0.72216  -0.71192  -0.70404
 Alpha  occ. eigenvalues --   -0.69502  -0.69171  -0.68414  -0.67549  -0.67059
 Alpha  occ. eigenvalues --   -0.66087  -0.65061  -0.64753  -0.64149  -0.63237
 Alpha  occ. eigenvalues --   -0.63124  -0.61545  -0.60856  -0.60300  -0.59991
 Alpha  occ. eigenvalues --   -0.59355  -0.59102  -0.58855  -0.58435  -0.58133
 Alpha  occ. eigenvalues --   -0.58035  -0.57955  -0.57624  -0.56922  -0.56733
 Alpha  occ. eigenvalues --   -0.56188  -0.55975  -0.55448  -0.54965  -0.54921
 Alpha  occ. eigenvalues --   -0.54537  -0.54316  -0.53463  -0.53141  -0.52703
 Alpha  occ. eigenvalues --   -0.52369  -0.52027  -0.51503  -0.51236  -0.50797
 Alpha  occ. eigenvalues --   -0.50708  -0.50426  -0.50173  -0.49613  -0.49262
 Alpha  occ. eigenvalues --   -0.49168  -0.48547  -0.48543  -0.47942  -0.47765
 Alpha  occ. eigenvalues --   -0.46997  -0.46652  -0.46488  -0.46166  -0.46021
 Alpha  occ. eigenvalues --   -0.45307  -0.44431  -0.44038  -0.43507  -0.43233
 Alpha  occ. eigenvalues --   -0.42664  -0.42202  -0.42048  -0.41526  -0.41146
 Alpha  occ. eigenvalues --   -0.40723  -0.40664  -0.40567  -0.39607  -0.38487
 Alpha  occ. eigenvalues --   -0.37476  -0.37100  -0.36430  -0.35930  -0.35702
 Alpha  occ. eigenvalues --   -0.35316  -0.33634  -0.31655  -0.31110  -0.30935
 Alpha  occ. eigenvalues --   -0.30177  -0.27831
 Alpha virt. eigenvalues --   -0.17283  -0.11676  -0.10494  -0.08370  -0.08319
 Alpha virt. eigenvalues --   -0.07679  -0.06910  -0.06886  -0.06237  -0.05995
 Alpha virt. eigenvalues --   -0.03171  -0.01736  -0.01509  -0.01149  -0.00315

 Mulliken charges:
               1
     1  N   -0.771702
     2  H    0.334217
     3  H    0.319429
     4  C   -0.049514
     5  H    0.168848
     6  C    0.609527
     7  C   -0.371718
     8  H    0.149196
     9  H    0.185249
    10  O   -0.529597
    11  C    0.157743
    12  C   -0.180212
    13  H    0.137185
    14  C   -0.198974
    15  H    0.130806
    16  C   -0.127112
    17  H    0.147464
    18  C   -0.126679
    19  H    0.144915
    20  C   -0.127588
    21  H    0.147859
    22  N   -0.617875
    23  H    0.374424
    24  C   -0.048646
    25  H    0.221345
    26  C    0.630943
    27  C   -0.076551
    28  H    0.206445
    29  H    0.205239
    30  O   -0.565396
    31  O   -0.635698
    32  H    0.436238
    33  N   -0.580743
    34  H    0.429788
    35  C   -0.085894
    36  H    0.215223
    37  C    0.604354
    38  C   -0.027640
    39  H    0.193813
    40  H    0.191981
    41  O   -0.515397
    42  O   -0.654875
    43  H    0.445613
    44  N   -0.587747
    45  H    0.359699
    46  C   -0.084313
    47  H    0.206727
    48  C    0.640727
    49  C   -0.329302
    50  H    0.199369
    51  H    0.196376
    52  O   -0.533499
    53  C    0.584096
    54  O   -0.513636
    55  O   -0.563924
    56  N   -0.620908
    57  H    0.361513
    58  C   -0.038901
    59  H    0.204590
    60  C    0.586208
    61  C   -0.263306
    62  H    0.179150
    63  H    0.180573
    64  O   -0.466489
    65  C   -0.301861
    66  H    0.146239
    67  H    0.141932
    68  C   -0.129085
    69  H    0.154726
    70  H    0.148179
    71  N   -0.602446
    72  H    0.321856
    73  N   -0.749805
    74  H    0.340557
    75  H    0.319541
    76  N   -0.640301
    77  H    0.275270
    78  C    0.578573
    79  O   -0.557634
    80  H    0.429593
    81  H    0.483071
    82  H    0.448560
 Sum of Mulliken charges =   1.00000

 Dipole moment (field-independent basis, Debye):
    X=             -3.3456    Y=             -1.6137    Z=             -1.9353  Tot=              4.1884
 Quadrupole moment (field-independent basis, Debye-Ang):
   XX=           -123.2453   YY=           -217.4857   ZZ=           -231.3881
   XY=             42.6540   XZ=             44.4626   YZ=             11.4430

 Normal termination of Gaussian 16 at Tue May 17 15:39:30 2022.
