 Gaussian 16, Revision C.01,
 Gaussian 16:  ES64L-G16RevC.01  3-Jul-2019

 ----------------------------------------------------------------------
 # B3LYP/6-31G* empiricaldispersion=gd3 guess=read geom=check nosymm in
 tegral(ultrafinegrid)
 ----------------------------------------------------------------------

 ------------------------------------------------------
 Candidate Structure: Conf:876 Charge calc in gas phase
 ------------------------------------------------------
 Structure from the checkpoint file:  "conf-876.chk"
 Charge =  1 Multiplicity = 1

                          Input orientation:
 ---------------------------------------------------------------------
 Center     Atomic      Atomic             Coordinates (Angstroms)
 Number     Number       Type             X           Y           Z
 ---------------------------------------------------------------------
      1          7           0       -3.883934   -3.334064   -2.396080
      2          1           0       -3.728859   -3.810622   -3.281605
      3          1           0       -3.382453   -3.851558   -1.675939
      4          6           0       -3.422227   -1.947143   -2.441970
      5          1           0       -3.916517   -1.464939   -3.294297
      6          6           0       -1.903590   -1.871426   -2.633389
      7          6           0       -3.848330   -1.255394   -1.134335
      8          1           0       -4.944647   -1.260868   -1.120359
      9          1           0       -3.531856   -1.896761   -0.303436
     10          8           0       -1.127252   -2.061432   -1.659887
     11          6           0       -3.325544    0.144641   -0.882090
     12          6           0       -2.847842    0.963226   -1.914960
     13          1           0       -2.857859    0.623162   -2.944110
     14          6           0       -3.270872    0.643793    0.433101
     15          1           0       -3.627860    0.027554    1.254479
     16          6           0       -2.325175    2.232862   -1.655419
     17          1           0       -1.943001    2.819765   -2.483711
     18          6           0       -2.752679    1.917776    0.699497
     19          1           0       -2.722459    2.280394    1.722945
     20          6           0       -2.273352    2.716310   -0.347834
     21          1           0       -1.874432    3.705042   -0.140409
     22          7           0       -1.443618   -1.668269   -3.876488
     23          1           0       -2.118048   -1.329779   -4.554354
     24          6           0       -0.032777   -1.330206   -4.145356
     25          1           0        0.588696   -2.098462   -3.680172
     26          6           0        0.187351    0.048383   -3.491614
     27          6           0        0.235156   -1.313504   -5.653430
     28          1           0        1.265701   -0.981880   -5.808618
     29          1           0       -0.421173   -0.571730   -6.135241
     30          8           0       -0.478434    1.020052   -3.845287
     31          8           0        0.136935   -2.599658   -6.229714
     32          1           0       -0.797219   -2.842909   -6.308139
     33          7           0        1.044583    0.018053   -2.448706
     34          1           0        1.587969   -0.846480   -2.233864
     35          6           0        1.141693    1.068829   -1.471305
     36          1           0        0.407133    1.844303   -1.707556
     37          6           0        2.576444    1.634336   -1.410547
     38          6           0        0.881765    0.470930   -0.075733
     39          1           0        0.832926    1.218915    0.713279
     40          1           0        1.631940   -0.272272    0.180689
     41          8           0        3.536232    0.940197   -1.712009
     42          8           0       -0.402011   -0.267080   -0.007652
     43          1           0       -1.205849    0.289845    0.153820
     44          7           0        2.708598    2.897660   -0.901694
     45          1           0        1.890608    3.313665   -0.473040
     46          6           0        3.984756    3.185603   -0.256167
     47          1           0        4.768957    3.053247   -1.002618
     48          6           0        4.169783    2.156006    0.889440
     49          6           0        4.014953    4.624309    0.278540
     50          1           0        3.860459    5.317597   -0.557475
     51          1           0        3.221984    4.788571    1.013772
     52          8           0        3.200208    1.717331    1.508826
     53          6           0        5.324446    4.989136    0.956936
     54          8           0        5.425026    5.619498    1.978187
     55          8           0        6.397918    4.529083    0.255289
     56          7           0        5.445305    1.790104    1.120333
     57          1           0        6.179216    2.236404    0.585327
     58          6           0        5.828683    0.828899    2.141768
     59          1           0        5.033330    0.824324    2.895905
     60          6           0        7.105867    1.239963    2.870132
     61          6           0        5.976735   -0.604571    1.579940
     62          1           0        6.414964   -1.225910    2.368524
     63          1           0        6.694152   -0.583647    0.748319
     64          8           0        7.612057    0.571450    3.737502
     65          6           0        4.637414   -1.194036    1.122052
     66          1           0        4.168114   -0.538853    0.382834
     67          1           0        3.955406   -1.238941    1.981441
     68          6           0        4.780609   -2.603143    0.522395
     69          1           0        5.287631   -2.558653   -0.448614
     70          1           0        5.401478   -3.237353    1.163287
     71          7           0        3.503295   -3.300462    0.359617
     72          1           0        3.129927   -3.645926    1.235292
     73          7           0        1.272393   -3.402310   -0.267972
     74          1           0        0.616695   -3.246977   -1.026221
     75          1           0        1.252379   -4.358816    0.067234
     76          7           0        2.686934   -2.070548   -1.523856
     77          1           0        3.603858   -1.633580   -1.561635
     78          6           0        2.537025   -2.884615   -0.529051
     79          8           0        7.622008    2.417141    2.436451
     80          1           0        8.425066    2.577956    2.968285
     81          1           0       -0.612877   -1.013010   -0.715732
     82          1           0        7.192153    4.786099    0.761381
 ---------------------------------------------------------------------

 SCF Done:  E(RB3LYP) =  -2166.36127001     A.U. after    1 cycles

 Alpha  occ. eigenvalues --  -19.37964 -19.29208 -19.28922 -19.26729 -19.24301
 Alpha  occ. eigenvalues --  -19.23166 -19.23005 -19.22822 -19.21971 -19.21691
 Alpha  occ. eigenvalues --  -14.50474 -14.47162 -14.46094 -14.45449 -14.44806
 Alpha  occ. eigenvalues --  -14.43687 -14.43580 -14.38677 -10.42909 -10.41465
 Alpha  occ. eigenvalues --  -10.41268 -10.40115 -10.39215 -10.38784 -10.38745
 Alpha  occ. eigenvalues --  -10.38392 -10.35596 -10.35021 -10.34156 -10.34147
 Alpha  occ. eigenvalues --  -10.33714 -10.33418 -10.32050 -10.31368 -10.31279
 Alpha  occ. eigenvalues --  -10.31017 -10.30744 -10.30720 -10.30549 -10.30419
 Alpha  occ. eigenvalues --  -10.30357 -10.28222 -10.27420  -1.24391  -1.19792
 Alpha  occ. eigenvalues --   -1.19544  -1.17736  -1.15560  -1.13878  -1.13347
 Alpha  occ. eigenvalues --   -1.11852  -1.10791  -1.10726  -1.07547  -1.06154
 Alpha  occ. eigenvalues --   -1.03744  -1.03292  -1.02869  -1.01024  -0.98337
 Alpha  occ. eigenvalues --   -0.97587  -0.93869  -0.91428  -0.89857  -0.89669
 Alpha  occ. eigenvalues --   -0.88359  -0.87205  -0.86252  -0.83985  -0.83254
 Alpha  occ. eigenvalues --   -0.81029  -0.78191  -0.77817  -0.76989  -0.75285
 Alpha  occ. eigenvalues --   -0.73942  -0.72282  -0.71810  -0.71656  -0.71168
 Alpha  occ. eigenvalues --   -0.69955  -0.69307  -0.69082  -0.68731  -0.68323
 Alpha  occ. eigenvalues --   -0.67618  -0.66962  -0.65104  -0.64655  -0.64060
 Alpha  occ. eigenvalues --   -0.63506  -0.62712  -0.62415  -0.61463  -0.61199
 Alpha  occ. eigenvalues --   -0.60514  -0.60422  -0.59523  -0.58788  -0.58180
 Alpha  occ. eigenvalues --   -0.57687  -0.57565  -0.57183  -0.56830  -0.56737
 Alpha  occ. eigenvalues --   -0.56630  -0.56124  -0.55640  -0.55592  -0.55064
 Alpha  occ. eigenvalues --   -0.54858  -0.54371  -0.54113  -0.53936  -0.53746
 Alpha  occ. eigenvalues --   -0.53027  -0.52679  -0.52277  -0.51974  -0.51876
 Alpha  occ. eigenvalues --   -0.51386  -0.51272  -0.50801  -0.50499  -0.50307
 Alpha  occ. eigenvalues --   -0.49785  -0.49308  -0.48938  -0.48658  -0.48416
 Alpha  occ. eigenvalues --   -0.48147  -0.47795  -0.47712  -0.47390  -0.46811
 Alpha  occ. eigenvalues --   -0.46274  -0.45890  -0.45503  -0.45103  -0.45017
 Alpha  occ. eigenvalues --   -0.43951  -0.42935  -0.42808  -0.41683  -0.41361
 Alpha  occ. eigenvalues --   -0.41046  -0.40764  -0.38285  -0.37799  -0.37584
 Alpha  occ. eigenvalues --   -0.37544  -0.37130  -0.37028  -0.36510  -0.36400
 Alpha  occ. eigenvalues --   -0.35646  -0.35508  -0.35461  -0.35275  -0.34580
 Alpha  occ. eigenvalues --   -0.34443  -0.32508
 Alpha virt. eigenvalues --   -0.14016  -0.12391  -0.11864  -0.11019  -0.08716
 Alpha virt. eigenvalues --   -0.08276  -0.08184  -0.07453  -0.05847  -0.04940
 Alpha virt. eigenvalues --   -0.04681  -0.03970  -0.02756  -0.02499  -0.01680

 Mulliken charges:
               1
     1  N   -0.689200
     2  H    0.318814
     3  H    0.320502
     4  C   -0.080533
     5  H    0.158714
     6  C    0.644240
     7  C   -0.329483
     8  H    0.207598
     9  H    0.164113
    10  O   -0.633573
    11  C    0.127251
    12  C   -0.176727
    13  H    0.147580
    14  C   -0.249531
    15  H    0.164528
    16  C   -0.130530
    17  H    0.183934
    18  C   -0.153227
    19  H    0.171212
    20  C   -0.150822
    21  H    0.159471
    22  N   -0.575749
    23  H    0.350988
    24  C   -0.080238
    25  H    0.206852
    26  C    0.603707
    27  C   -0.069542
    28  H    0.190797
    29  H    0.156195
    30  O   -0.540963
    31  O   -0.591707
    32  H    0.396036
    33  N   -0.631221
    34  H    0.432659
    35  C   -0.118661
    36  H    0.194255
    37  C    0.640374
    38  C   -0.095193
    39  H    0.219222
    40  H    0.242988
    41  O   -0.502396
    42  O   -0.675168
    43  H    0.470225
    44  N   -0.584008
    45  H    0.333446
    46  C   -0.054860
    47  H    0.208201
    48  C    0.628183
    49  C   -0.377933
    50  H    0.211043
    51  H    0.191573
    52  O   -0.565354
    53  C    0.582585
    54  O   -0.428263
    55  O   -0.574956
    56  N   -0.592221
    57  H    0.364858
    58  C   -0.065837
    59  H    0.214963
    60  C    0.597662
    61  C   -0.267835
    62  H    0.182784
    63  H    0.150713
    64  O   -0.439592
    65  C   -0.286964
    66  H    0.173068
    67  H    0.144791
    68  C   -0.171972
    69  H    0.173829
    70  H    0.170133
    71  N   -0.582126
    72  H    0.330233
    73  N   -0.786313
    74  H    0.360890
    75  H    0.334725
    76  N   -0.737433
    77  H    0.323829
    78  C    0.637002
    79  O   -0.585268
    80  H    0.428322
    81  H    0.534027
    82  H    0.426286
 Sum of Mulliken charges =   1.00000

 Dipole moment (field-independent basis, Debye):
    X=              2.6127    Y=             -0.7788    Z=             -3.8573  Tot=              4.7235
 Quadrupole moment (field-independent basis, Debye-Ang):
   XX=           -166.1764   YY=           -205.6397   ZZ=           -233.9698
   XY=             26.4729   XZ=             22.1148   YZ=              4.7279

 Normal termination of Gaussian 16 at Tue May 17 15:39:43 2022.
