 Gaussian 16, Revision C.01,
 Gaussian 16:  ES64L-G16RevC.01  3-Jul-2019

 ----------------------------------------------------------------------
 # B3LYP/6-31G* empiricaldispersion=gd3 guess=read geom=check nosymm in
 tegral(ultrafinegrid)
 ----------------------------------------------------------------------

 ------------------------------------------------------
 Candidate Structure: Conf:950 Charge calc in gas phase
 ------------------------------------------------------
 Structure from the checkpoint file:  "conf-950.chk"
 Charge =  1 Multiplicity = 1

                          Input orientation:
 ---------------------------------------------------------------------
 Center     Atomic      Atomic             Coordinates (Angstroms)
 Number     Number       Type             X           Y           Z
 ---------------------------------------------------------------------
      1          7           0       -5.675056   -1.602113   -3.692966
      2          1           0       -5.422139   -2.402679   -4.265849
      3          1           0       -5.757250   -1.905592   -2.726002
      4          6           0       -4.748491   -0.502202   -3.828496
      5          1           0       -4.654799   -0.257115   -4.893036
      6          6           0       -3.354405   -0.778520   -3.283805
      7          6           0       -5.276121    0.767198   -3.084270
      8          1           0       -5.588496    0.452506   -2.081386
      9          1           0       -4.448044    1.473163   -2.945921
     10          8           0       -3.339620   -1.358037   -2.125794
     11          6           0       -6.404277    1.429189   -3.839328
     12          6           0       -6.149502    2.557806   -4.628848
     13          1           0       -5.144602    2.974942   -4.664772
     14          6           0       -7.706178    0.914353   -3.789786
     15          1           0       -7.911397    0.035015   -3.187787
     16          6           0       -7.174568    3.164352   -5.355592
     17          1           0       -6.964673    4.044893   -5.956173
     18          6           0       -8.731871    1.519350   -4.515769
     19          1           0       -9.738312    1.113733   -4.466162
     20          6           0       -8.468867    2.644321   -5.300656
     21          1           0       -9.269973    3.116749   -5.861713
     22          7           0       -2.310933   -0.394170   -3.982422
     23          1           0       -2.499932   -0.009766   -4.908694
     24          6           0       -0.876474   -0.362707   -3.667259
     25          1           0       -0.435567   -1.320002   -3.968462
     26          6           0       -0.669179   -0.060667   -2.175878
     27          6           0       -0.264804    0.767586   -4.514166
     28          1           0        0.829376    0.710706   -4.438175
     29          1           0       -0.601846    1.730735   -4.106785
     30          8           0       -1.390764    0.752719   -1.618300
     31          8           0       -0.726688    0.553235   -5.839105
     32          1           0       -0.492571    1.315107   -6.391847
     33          7           0        0.335022   -0.751297   -1.569876
     34          1           0        0.805404   -1.484525   -2.087859
     35          6           0        0.378821   -0.839357   -0.112362
     36          1           0       -0.148901    0.044534    0.259525
     37          6           0        1.800460   -0.810847    0.465015
     38          6           0       -0.345259   -2.104706    0.364426
     39          1           0       -0.459472   -2.062793    1.449873
     40          1           0        0.242510   -2.997339    0.113005
     41          8           0        2.007199   -1.330782    1.559252
     42          8           0       -1.625186   -2.166313   -0.291938
     43          1           0       -2.210384   -2.751303    0.212226
     44          7           0        2.744541   -0.210817   -0.300897
     45          1           0        2.383330    0.443378   -0.987364
     46          6           0        4.007404    0.197891    0.309806
     47          1           0        4.377713   -0.613540    0.939582
     48          6           0        3.732524    1.445007    1.181785
     49          6           0        5.048361    0.504195   -0.788210
     50          1           0        5.237292   -0.406901   -1.362939
     51          1           0        4.686836    1.294990   -1.452694
     52          8           0        2.798553    2.195207    0.900211
     53          6           0        6.322850    0.935252   -0.080516
     54          8           0        6.955891    0.189761    0.636220
     55          8           0        6.566689    2.242480   -0.239701
     56          7           0        4.580617    1.628615    2.220045
     57          1           0        5.284599    0.923351    2.416615
     58          6           0        4.546028    2.820171    3.045698
     59          1           0        3.815099    3.492728    2.584293
     60          6           0        5.901681    3.526614    2.999566
     61          6           0        4.113788    2.531842    4.503156
     62          1           0        4.118976    3.486044    5.036633
     63          1           0        4.883455    1.909923    4.968278
     64          8           0        6.873310    3.175122    2.361772
     65          6           0        2.720099    1.861725    4.617177
     66          1           0        2.210679    1.887171    3.645528
     67          1           0        2.094494    2.451514    5.299374
     68          6           0        2.723038    0.412516    5.141921
     69          1           0        3.252413    0.357909    6.099451
     70          1           0        1.689711    0.111058    5.353218
     71          7           0        3.295746   -0.576952    4.242284
     72          1           0        2.826350   -0.652428    3.345715
     73          7           0        5.009209   -1.515211    3.000915
     74          1           0        5.952111   -1.884388    3.066814
     75          1           0        4.341786   -2.223125    2.709357
     76          7           0        5.583984   -0.582145    5.034413
     77          1           0        5.235453   -0.053184    5.832708
     78          6           0        4.651077   -0.856786    4.193835
     79          8           0        5.902502    4.622607    3.779181
     80          1           0        6.789371    5.025521    3.710970
     81          1           0       -2.493446   -1.470648   -1.598538
     82          1           0        7.153022    2.520692    0.497106
 ---------------------------------------------------------------------

 SCF Done:  E(RB3LYP) =  -2166.33714330     A.U. after    1 cycles

 Alpha  occ. eigenvalues --  -19.35943 -19.30713 -19.29926 -19.27361 -19.26569
 Alpha  occ. eigenvalues --  -19.25146 -19.23547 -19.22147 -19.19978 -19.19515
 Alpha  occ. eigenvalues --  -14.55250 -14.51289 -14.46888 -14.44268 -14.43609
 Alpha  occ. eigenvalues --  -14.39923 -14.39583 -14.33383 -10.48030 -10.44110
 Alpha  occ. eigenvalues --  -10.40724 -10.40088 -10.40072 -10.38985 -10.38591
 Alpha  occ. eigenvalues --  -10.37088 -10.36749 -10.36684 -10.36422 -10.33218
 Alpha  occ. eigenvalues --  -10.32181 -10.31216 -10.30562 -10.28563 -10.28178
 Alpha  occ. eigenvalues --  -10.28027 -10.26974 -10.26500 -10.26482 -10.26306
 Alpha  occ. eigenvalues --  -10.26253 -10.25658 -10.25127  -1.26086  -1.19112
 Alpha  occ. eigenvalues --   -1.18521  -1.17453  -1.17018  -1.16459  -1.15372
 Alpha  occ. eigenvalues --   -1.11924  -1.11434  -1.09450  -1.07646  -1.07592
 Alpha  occ. eigenvalues --   -1.03304  -1.02782  -1.02400  -1.00379  -0.94576
 Alpha  occ. eigenvalues --   -0.93997  -0.93415  -0.90006  -0.89110  -0.88107
 Alpha  occ. eigenvalues --   -0.87781  -0.85863  -0.84373  -0.81961  -0.81209
 Alpha  occ. eigenvalues --   -0.80807  -0.79601  -0.78396  -0.76583  -0.75353
 Alpha  occ. eigenvalues --   -0.74637  -0.74021  -0.73204  -0.71038  -0.69149
 Alpha  occ. eigenvalues --   -0.68440  -0.68272  -0.67786  -0.67105  -0.66738
 Alpha  occ. eigenvalues --   -0.66378  -0.66241  -0.66087  -0.64537  -0.63320
 Alpha  occ. eigenvalues --   -0.62756  -0.62231  -0.61791  -0.61057  -0.60384
 Alpha  occ. eigenvalues --   -0.60054  -0.59646  -0.58721  -0.58388  -0.58158
 Alpha  occ. eigenvalues --   -0.58022  -0.56985  -0.56643  -0.56476  -0.56337
 Alpha  occ. eigenvalues --   -0.55871  -0.55410  -0.54805  -0.54754  -0.54224
 Alpha  occ. eigenvalues --   -0.53934  -0.53619  -0.53304  -0.53197  -0.53037
 Alpha  occ. eigenvalues --   -0.52542  -0.52185  -0.51791  -0.51111  -0.50272
 Alpha  occ. eigenvalues --   -0.49818  -0.49735  -0.49584  -0.49480  -0.49335
 Alpha  occ. eigenvalues --   -0.48927  -0.48520  -0.48307  -0.48231  -0.47773
 Alpha  occ. eigenvalues --   -0.47314  -0.46858  -0.46114  -0.45629  -0.45414
 Alpha  occ. eigenvalues --   -0.44300  -0.43963  -0.43270  -0.42977  -0.42876
 Alpha  occ. eigenvalues --   -0.42446  -0.42116  -0.41695  -0.41620  -0.41457
 Alpha  occ. eigenvalues --   -0.41083  -0.40645  -0.40089  -0.39638  -0.37979
 Alpha  occ. eigenvalues --   -0.37717  -0.36637  -0.36546  -0.35527  -0.33829
 Alpha  occ. eigenvalues --   -0.33313  -0.33087  -0.32475  -0.32224  -0.31417
 Alpha  occ. eigenvalues --   -0.31129  -0.27450
 Alpha virt. eigenvalues --   -0.16979  -0.14041  -0.10124  -0.07987  -0.07703
 Alpha virt. eigenvalues --   -0.07628  -0.07115  -0.06322  -0.06255  -0.05626
 Alpha virt. eigenvalues --   -0.05473  -0.04426  -0.02253  -0.01167  -0.00880

 Mulliken charges:
               1
     1  N   -0.681486
     2  H    0.324766
     3  H    0.326394
     4  C   -0.076294
     5  H    0.181144
     6  C    0.654123
     7  C   -0.374395
     8  H    0.177200
     9  H    0.172479
    10  O   -0.589097
    11  C    0.169517
    12  C   -0.186267
    13  H    0.115042
    14  C   -0.150425
    15  H    0.136894
    16  C   -0.126916
    17  H    0.145194
    18  C   -0.131212
    19  H    0.149152
    20  C   -0.124458
    21  H    0.150795
    22  N   -0.583038
    23  H    0.396655
    24  C   -0.045580
    25  H    0.197702
    26  C    0.571572
    27  C   -0.057041
    28  H    0.175800
    29  H    0.188752
    30  O   -0.484755
    31  O   -0.625481
    32  H    0.434363
    33  N   -0.617412
    34  H    0.348685
    35  C   -0.108189
    36  H    0.246333
    37  C    0.636756
    38  C   -0.033247
    39  H    0.203027
    40  H    0.165208
    41  O   -0.528835
    42  O   -0.665846
    43  H    0.437313
    44  N   -0.583568
    45  H    0.341543
    46  C   -0.105155
    47  H    0.240391
    48  C    0.612217
    49  C   -0.334335
    50  H    0.184368
    51  H    0.167581
    52  O   -0.554701
    53  C    0.567964
    54  O   -0.455410
    55  O   -0.568363
    56  N   -0.593061
    57  H    0.390908
    58  C   -0.075468
    59  H    0.215630
    60  C    0.609712
    61  C   -0.283970
    62  H    0.177412
    63  H    0.162628
    64  O   -0.484793
    65  C   -0.274239
    66  H    0.155965
    67  H    0.148961
    68  C   -0.160613
    69  H    0.158750
    70  H    0.150164
    71  N   -0.608281
    72  H    0.359493
    73  N   -0.769939
    74  H    0.350101
    75  H    0.328186
    76  N   -0.642279
    77  H    0.277116
    78  C    0.554486
    79  O   -0.552371
    80  H    0.426271
    81  H    0.502883
    82  H    0.448921
 Sum of Mulliken charges =   1.00000

 Dipole moment (field-independent basis, Debye):
    X=             -8.4864    Y=             -1.6165    Z=            -13.4161  Tot=             15.9569
 Quadrupole moment (field-independent basis, Debye-Ang):
   XX=           -206.8044   YY=           -211.9782   ZZ=           -165.7454
   XY=             29.3613   XZ=             30.8883   YZ=              8.7271

 Normal termination of Gaussian 16 at Tue May 17 15:39:34 2022.
