 Gaussian 16, Revision C.01,
 Gaussian 16:  ES64L-G16RevC.01  3-Jul-2019

 ----------------------------------------------------------------------
 # B3LYP/6-31G* empiricaldispersion=gd3 guess=read geom=check nosymm in
 tegral(ultrafinegrid)
 ----------------------------------------------------------------------

 ------------------------------------------------------
 Candidate Structure: Conf:883 Charge calc in gas phase
 ------------------------------------------------------
 Structure from the checkpoint file:  "conf-883.chk"
 Charge =  1 Multiplicity = 1

                          Input orientation:
 ---------------------------------------------------------------------
 Center     Atomic      Atomic             Coordinates (Angstroms)
 Number     Number       Type             X           Y           Z
 ---------------------------------------------------------------------
      1          7           0       -4.223117   -3.864252   -4.421078
      2          1           0       -3.463186   -4.195052   -5.014755
      3          1           0       -4.343498   -4.583944   -3.706550
      4          6           0       -3.817622   -2.637590   -3.745349
      5          1           0       -3.472935   -1.920645   -4.501809
      6          6           0       -2.718099   -2.857057   -2.695343
      7          6           0       -5.050975   -2.032280   -3.018072
      8          1           0       -5.804581   -1.822883   -3.784087
      9          1           0       -5.459451   -2.810401   -2.362803
     10          8           0       -2.715426   -3.843609   -1.965675
     11          6           0       -4.726244   -0.794947   -2.211438
     12          6           0       -4.519236   -0.876024   -0.827394
     13          1           0       -4.631603   -1.835878   -0.329441
     14          6           0       -4.559153    0.447115   -2.840071
     15          1           0       -4.722374    0.528121   -3.912743
     16          6           0       -4.162750    0.254080   -0.089576
     17          1           0       -4.014665    0.168968    0.983900
     18          6           0       -4.192933    1.577267   -2.108173
     19          1           0       -4.068317    2.530808   -2.613926
     20          6           0       -3.996944    1.484247   -0.728423
     21          1           0       -3.730180    2.369430   -0.155257
     22          7           0       -1.788040   -1.859120   -2.590395
     23          1           0       -1.929453   -0.996867   -3.104728
     24          6           0       -0.966023   -1.735837   -1.402720
     25          1           0       -1.412717   -2.338876   -0.606682
     26          6           0       -0.891445   -0.264022   -1.018985
     27          6           0        0.472420   -2.246065   -1.684138
     28          1           0        0.863673   -1.713844   -2.561768
     29          1           0        0.413642   -3.311618   -1.916905
     30          8           0       -0.803910    0.621776   -1.867616
     31          8           0        1.344710   -2.105645   -0.564855
     32          1           0        1.493886   -1.153094   -0.405637
     33          7           0       -0.817713    0.009881    0.314333
     34          1           0       -0.713653   -0.745791    1.006890
     35          6           0       -0.402694    1.334443    0.682001
     36          1           0       -1.080277    2.075831    0.244071
     37          6           0        1.026059    1.604081    0.181660
     38          6           0       -0.424386    1.459441    2.216634
     39          1           0        0.180019    0.674841    2.684876
     40          1           0       -1.459129    1.370840    2.559725
     41          8           0        1.847898    0.712030   -0.024168
     42          8           0        0.107608    2.762966    2.567594
     43          1           0       -0.250191    3.046587    3.423612
     44          7           0        1.405050    2.919550    0.118042
     45          1           0        0.781565    3.616217    0.511275
     46          6           0        2.823838    3.200406    0.157734
     47          1           0        3.297518    2.635342   -0.650388
     48          6           0        3.410733    2.647836    1.469342
     49          6           0        3.143368    4.690648   -0.048356
     50          1           0        4.226400    4.853002   -0.068770
     51          1           0        2.769640    4.991956   -1.033924
     52          8           0        2.724526    2.581187    2.560112
     53          6           0        2.528036    5.603442    0.997683
     54          8           0        1.756509    5.234524    1.862840
     55          8           0        2.934366    6.864377    0.834577
     56          7           0        4.648124    2.219691    1.499048
     57          1           0        5.189126    2.247719    0.640332
     58          6           0        5.301508    1.587862    2.664568
     59          1           0        4.803495    1.960351    3.560551
     60          6           0        6.769429    1.993183    2.749254
     61          6           0        5.194158    0.041455    2.616751
     62          1           0        5.625095   -0.317328    3.558929
     63          1           0        5.832217   -0.340990    1.809230
     64          8           0        7.422037    1.874782    3.751911
     65          6           0        3.753333   -0.447021    2.434308
     66          1           0        3.408323   -0.213047    1.423253
     67          1           0        3.086299    0.080301    3.123077
     68          6           0        3.586322   -1.961607    2.654910
     69          1           0        4.335448   -2.516517    2.080550
     70          1           0        3.770482   -2.213983    3.707877
     71          7           0        2.283546   -2.470134    2.234289
     72          1           0        2.224643   -2.731725    1.253629
     73          7           0        1.107737   -1.324701    3.937734
     74          1           0        0.191154   -1.360260    4.372606
     75          1           0        1.820082   -1.641987    4.587158
     76          7           0       -0.071788   -2.173048    2.135928
     77          1           0        0.067995   -2.673616    1.257525
     78          6           0        1.072098   -2.021885    2.721186
     79          8           0        7.248384    2.419783    1.555366
     80          1           0        8.202545    2.601784    1.662745
     81          1           0        1.740223    2.837613    2.490948
     82          1           0        2.495804    7.421139    1.507854
 ---------------------------------------------------------------------

 SCF Done:  E(RB3LYP) =  -2166.37009147     A.U. after    1 cycles

 Alpha  occ. eigenvalues --  -19.36258 -19.33470 -19.33450 -19.31857 -19.28484
 Alpha  occ. eigenvalues --  -19.27138 -19.26536 -19.23027 -19.20610 -19.17319
 Alpha  occ. eigenvalues --  -14.56092 -14.50443 -14.44694 -14.44170 -14.43912
 Alpha  occ. eigenvalues --  -14.42096 -14.37014 -14.36377 -10.49528 -10.46876
 Alpha  occ. eigenvalues --  -10.45701 -10.42732 -10.41121 -10.39196 -10.37503
 Alpha  occ. eigenvalues --  -10.37303 -10.37233 -10.36216 -10.35439 -10.33894
 Alpha  occ. eigenvalues --  -10.32671 -10.32431 -10.31062 -10.30371 -10.29471
 Alpha  occ. eigenvalues --  -10.27890 -10.25456 -10.25237 -10.25178 -10.25094
 Alpha  occ. eigenvalues --  -10.24683 -10.24585 -10.24325  -1.27162  -1.24788
 Alpha  occ. eigenvalues --   -1.24000  -1.18659  -1.17759  -1.16000  -1.15271
 Alpha  occ. eigenvalues --   -1.12974  -1.12763  -1.10013  -1.09155  -1.07702
 Alpha  occ. eigenvalues --   -1.06876  -1.02301  -0.98709  -0.98163  -0.96021
 Alpha  occ. eigenvalues --   -0.94029  -0.93757  -0.93131  -0.91312  -0.88803
 Alpha  occ. eigenvalues --   -0.87788  -0.84718  -0.83919  -0.82625  -0.82075
 Alpha  occ. eigenvalues --   -0.80296  -0.79092  -0.78125  -0.76839  -0.76358
 Alpha  occ. eigenvalues --   -0.74473  -0.73799  -0.72548  -0.72247  -0.71663
 Alpha  occ. eigenvalues --   -0.70581  -0.69161  -0.68799  -0.67673  -0.66662
 Alpha  occ. eigenvalues --   -0.66472  -0.65785  -0.64766  -0.64530  -0.64341
 Alpha  occ. eigenvalues --   -0.64138  -0.63912  -0.63242  -0.62657  -0.60933
 Alpha  occ. eigenvalues --   -0.60905  -0.60728  -0.60633  -0.60056  -0.59858
 Alpha  occ. eigenvalues --   -0.58874  -0.57857  -0.57639  -0.57334  -0.56985
 Alpha  occ. eigenvalues --   -0.56515  -0.56022  -0.55686  -0.55439  -0.55028
 Alpha  occ. eigenvalues --   -0.54647  -0.54159  -0.53912  -0.53484  -0.53288
 Alpha  occ. eigenvalues --   -0.52926  -0.52752  -0.52462  -0.52273  -0.51422
 Alpha  occ. eigenvalues --   -0.51295  -0.50986  -0.50839  -0.50644  -0.50267
 Alpha  occ. eigenvalues --   -0.49270  -0.48848  -0.48645  -0.47950  -0.47625
 Alpha  occ. eigenvalues --   -0.47456  -0.46761  -0.46721  -0.46097  -0.46051
 Alpha  occ. eigenvalues --   -0.45796  -0.45376  -0.45198  -0.44918  -0.44283
 Alpha  occ. eigenvalues --   -0.43504  -0.42536  -0.42448  -0.41793  -0.41619
 Alpha  occ. eigenvalues --   -0.40878  -0.40521  -0.40361  -0.39758  -0.39546
 Alpha  occ. eigenvalues --   -0.39294  -0.36945  -0.36354  -0.35511  -0.35047
 Alpha  occ. eigenvalues --   -0.34551  -0.32041  -0.31614  -0.30961  -0.30817
 Alpha  occ. eigenvalues --   -0.30130  -0.28482
 Alpha virt. eigenvalues --   -0.18410  -0.13474  -0.12651  -0.12308  -0.07966
 Alpha virt. eigenvalues --   -0.07164  -0.06731  -0.06358  -0.06208  -0.04572
 Alpha virt. eigenvalues --   -0.04484  -0.04225  -0.03438  -0.03299  -0.02406

 Mulliken charges:
               1
     1  N   -0.694732
     2  H    0.303572
     3  H    0.316325
     4  C   -0.074613
     5  H    0.135869
     6  C    0.590291
     7  C   -0.340146
     8  H    0.174918
     9  H    0.162917
    10  O   -0.531501
    11  C    0.152145
    12  C   -0.187346
    13  H    0.148169
    14  C   -0.195954
    15  H    0.136063
    16  C   -0.127875
    17  H    0.119847
    18  C   -0.111158
    19  H    0.133800
    20  C   -0.132866
    21  H    0.108765
    22  N   -0.601426
    23  H    0.351666
    24  C   -0.060802
    25  H    0.190511
    26  C    0.610991
    27  C   -0.043508
    28  H    0.150686
    29  H    0.185637
    30  O   -0.545239
    31  O   -0.681888
    32  H    0.442346
    33  N   -0.646064
    34  H    0.401072
    35  C   -0.048046
    36  H    0.200372
    37  C    0.639637
    38  C   -0.114283
    39  H    0.214401
    40  H    0.198900
    41  O   -0.537614
    42  O   -0.663979
    43  H    0.443856
    44  N   -0.605412
    45  H    0.379398
    46  C   -0.063072
    47  H    0.222571
    48  C    0.664794
    49  C   -0.382957
    50  H    0.213350
    51  H    0.245094
    52  O   -0.583286
    53  C    0.588769
    54  O   -0.472644
    55  O   -0.535577
    56  N   -0.556650
    57  H    0.390586
    58  C   -0.091473
    59  H    0.230527
    60  C    0.607191
    61  C   -0.280046
    62  H    0.196364
    63  H    0.166961
    64  O   -0.414743
    65  C   -0.312348
    66  H    0.179277
    67  H    0.168504
    68  C   -0.159279
    69  H    0.172722
    70  H    0.156665
    71  N   -0.594760
    72  H    0.369080
    73  N   -0.758740
    74  H    0.347120
    75  H    0.335451
    76  N   -0.718543
    77  H    0.318428
    78  C    0.591129
    79  O   -0.588197
    80  H    0.443954
    81  H    0.515942
    82  H    0.440137
 Sum of Mulliken charges =   1.00000

 Dipole moment (field-independent basis, Debye):
    X=             16.3975    Y=             15.1142    Z=              8.3145  Tot=             23.8002
 Quadrupole moment (field-independent basis, Debye-Ang):
   XX=           -169.6506   YY=           -183.6460   ZZ=           -213.4261
   XY=             30.8823   XZ=             11.0157   YZ=             13.9000

 Normal termination of Gaussian 16 at Tue May 17 15:39:43 2022.
