 Gaussian 16, Revision C.01,
 Gaussian 16:  ES64L-G16RevC.01  3-Jul-2019

 ----------------------------------------------------------------------
 # B3LYP/6-31G* empiricaldispersion=gd3 guess=read geom=check nosymm in
 tegral(ultrafinegrid)
 ----------------------------------------------------------------------

 ------------------------------------------------------
 Candidate Structure: Conf:981 Charge calc in gas phase
 ------------------------------------------------------
 Structure from the checkpoint file:  "conf-981.chk"
 Charge =  1 Multiplicity = 1

                          Input orientation:
 ---------------------------------------------------------------------
 Center     Atomic      Atomic             Coordinates (Angstroms)
 Number     Number       Type             X           Y           Z
 ---------------------------------------------------------------------
      1          7           0       -4.706297   -2.150491   -2.090841
      2          1           0       -5.039853   -2.423506   -3.012134
      3          1           0       -4.193282   -2.934819   -1.694965
      4          6           0       -3.913840   -0.940244   -2.121238
      5          1           0       -4.523543   -0.145027   -2.564919
      6          6           0       -2.648739   -1.056195   -2.970276
      7          6           0       -3.552309   -0.511816   -0.670571
      8          1           0       -4.514280   -0.408719   -0.156402
      9          1           0       -3.021527   -1.341966   -0.187135
     10          8           0       -1.954667   -2.157715   -2.999259
     11          6           0       -2.724605    0.752340   -0.582247
     12          6           0       -1.451248    0.730499   -0.000716
     13          1           0       -1.076714   -0.205225    0.403009
     14          6           0       -3.197883    1.962678   -1.109481
     15          1           0       -4.195620    2.016398   -1.541497
     16          6           0       -0.653798    1.874819    0.048264
     17          1           0        0.347127    1.823239    0.471750
     18          6           0       -2.405844    3.112310   -1.066920
     19          1           0       -2.787272    4.042526   -1.478345
     20          6           0       -1.132314    3.069738   -0.491989
     21          1           0       -0.517847    3.964783   -0.464723
     22          7           0       -2.253635   -0.059152   -3.723207
     23          1           0       -2.728158    0.846966   -3.641875
     24          6           0       -0.942242    0.072092   -4.402947
     25          1           0       -0.805867   -0.762537   -5.096580
     26          6           0        0.122103    0.085020   -3.289123
     27          6           0       -0.963264    1.437538   -5.131358
     28          1           0       -1.569172    1.366583   -6.038501
     29          1           0        0.064184    1.703876   -5.411017
     30          8           0        0.400879    1.139474   -2.719076
     31          8           0       -1.574373    2.414378   -4.306631
     32          1           0       -0.967632    2.571938   -3.556529
     33          7           0        0.628140   -1.117323   -2.925345
     34          1           0        0.341780   -1.923588   -3.463576
     35          6           0        1.077126   -1.372698   -1.552614
     36          1           0        0.533339   -0.660678   -0.923205
     37          6           0        2.558514   -1.057156   -1.277121
     38          6           0        0.684701   -2.785548   -1.114740
     39          1           0        1.212765   -3.032546   -0.190550
     40          1           0        0.966429   -3.535548   -1.861604
     41          8           0        3.282208   -1.834995   -0.664599
     42          8           0       -0.738799   -2.891824   -0.903055
     43          1           0       -0.917279   -2.695332    0.071321
     44          7           0        2.928445    0.194809   -1.647250
     45          1           0        2.195821    0.812415   -1.996396
     46          6           0        4.041882    0.825691   -0.958504
     47          1           0        4.966767    0.289739   -1.193696
     48          6           0        3.758070    0.786287    0.563067
     49          6           0        4.148672    2.291622   -1.425682
     50          1           0        3.251276    2.835760   -1.118349
     51          1           0        5.026624    2.755253   -0.967626
     52          8           0        2.610987    0.955823    0.986694
     53          6           0        4.246154    2.348162   -2.938774
     54          8           0        3.313201    2.540455   -3.687452
     55          8           0        5.506001    2.097939   -3.356139
     56          7           0        4.829901    0.579741    1.352739
     57          1           0        5.723807    0.360029    0.932403
     58          6           0        4.744810    0.539289    2.808303
     59          1           0        3.899831    1.166830    3.097414
     60          6           0        5.978101    1.138010    3.473443
     61          6           0        4.543552   -0.900265    3.356960
     62          1           0        4.525883   -0.834882    4.451674
     63          1           0        5.425538   -1.494259    3.085983
     64          8           0        6.010715    1.460883    4.635326
     65          6           0        3.280512   -1.594077    2.825608
     66          1           0        3.331533   -2.654948    3.098915
     67          1           0        3.273254   -1.565765    1.731922
     68          6           0        1.977964   -0.971458    3.366030
     69          1           0        1.782299   -1.306685    4.391189
     70          1           0        2.061624    0.115947    3.396284
     71          7           0        0.785194   -1.243486    2.567036
     72          1           0        0.723084   -0.689537    1.721812
     73          7           0       -1.064568   -2.466485    1.789886
     74          1           0       -1.550260   -3.329949    2.038275
     75          1           0       -1.659642   -1.684228    2.067789
     76          7           0        0.409207   -3.533498    3.225624
     77          1           0        1.313462   -3.498817    3.694801
     78          6           0        0.143876   -2.461024    2.587676
     79          8           0        7.045680    1.196954    2.640043
     80          1           0        7.798535    1.538214    3.161071
     81          1           0       -1.657759   -2.524821   -2.072802
     82          1           0        5.500368    2.115615   -4.333041
 ---------------------------------------------------------------------

 SCF Done:  E(RB3LYP) =  -2166.36941584     A.U. after    1 cycles

 Alpha  occ. eigenvalues --  -19.33335 -19.28821 -19.28672 -19.28404 -19.26624
 Alpha  occ. eigenvalues --  -19.26198 -19.23052 -19.22512 -19.22496 -19.21973
 Alpha  occ. eigenvalues --  -14.54520 -14.49822 -14.46548 -14.46183 -14.45380
 Alpha  occ. eigenvalues --  -14.44868 -14.44331 -14.38147 -10.47203 -10.42888
 Alpha  occ. eigenvalues --  -10.41419 -10.40927 -10.39351 -10.39090 -10.38316
 Alpha  occ. eigenvalues --  -10.37745 -10.37378 -10.36119 -10.35921 -10.35441
 Alpha  occ. eigenvalues --  -10.34345 -10.33190 -10.32050 -10.30833 -10.30379
 Alpha  occ. eigenvalues --  -10.30257 -10.29534 -10.29520 -10.29252 -10.28904
 Alpha  occ. eigenvalues --  -10.28822 -10.27976 -10.26558  -1.24319  -1.19480
 Alpha  occ. eigenvalues --   -1.19393  -1.18249  -1.14991  -1.14487  -1.14175
 Alpha  occ. eigenvalues --   -1.13298  -1.10596  -1.10467  -1.10461  -1.07184
 Alpha  occ. eigenvalues --   -1.06238  -1.02966  -1.02895  -1.02789  -0.98752
 Alpha  occ. eigenvalues --   -0.96210  -0.93851  -0.92506  -0.90219  -0.89424
 Alpha  occ. eigenvalues --   -0.88426  -0.87316  -0.84839  -0.83621  -0.83453
 Alpha  occ. eigenvalues --   -0.80543  -0.79442  -0.78626  -0.76867  -0.76323
 Alpha  occ. eigenvalues --   -0.75474  -0.72480  -0.71297  -0.71201  -0.71060
 Alpha  occ. eigenvalues --   -0.70485  -0.69670  -0.69273  -0.68818  -0.67893
 Alpha  occ. eigenvalues --   -0.67338  -0.66809  -0.66009  -0.64932  -0.64701
 Alpha  occ. eigenvalues --   -0.64320  -0.62947  -0.62811  -0.62006  -0.61414
 Alpha  occ. eigenvalues --   -0.61063  -0.60380  -0.59947  -0.59910  -0.59020
 Alpha  occ. eigenvalues --   -0.58417  -0.57659  -0.57153  -0.56769  -0.56547
 Alpha  occ. eigenvalues --   -0.56209  -0.55957  -0.55808  -0.55560  -0.55455
 Alpha  occ. eigenvalues --   -0.55307  -0.54865  -0.54434  -0.54246  -0.53879
 Alpha  occ. eigenvalues --   -0.53324  -0.53109  -0.52528  -0.52369  -0.51922
 Alpha  occ. eigenvalues --   -0.51674  -0.51248  -0.50898  -0.50833  -0.50207
 Alpha  occ. eigenvalues --   -0.49924  -0.49252  -0.49075  -0.48947  -0.48450
 Alpha  occ. eigenvalues --   -0.48107  -0.47757  -0.47514  -0.47090  -0.46772
 Alpha  occ. eigenvalues --   -0.46432  -0.45759  -0.45603  -0.45384  -0.44610
 Alpha  occ. eigenvalues --   -0.44242  -0.44119  -0.43173  -0.42393  -0.41686
 Alpha  occ. eigenvalues --   -0.40881  -0.40564  -0.40436  -0.40184  -0.39291
 Alpha  occ. eigenvalues --   -0.38060  -0.37438  -0.37238  -0.37151  -0.36683
 Alpha  occ. eigenvalues --   -0.35687  -0.35582  -0.35354  -0.35106  -0.34742
 Alpha  occ. eigenvalues --   -0.34162  -0.31861
 Alpha virt. eigenvalues --   -0.17953  -0.12671  -0.11201  -0.10960  -0.09628
 Alpha virt. eigenvalues --   -0.09362  -0.07765  -0.06668  -0.05962  -0.05020
 Alpha virt. eigenvalues --   -0.04738  -0.03637  -0.03432  -0.02207  -0.01867

 Mulliken charges:
               1
     1  N   -0.682377
     2  H    0.331363
     3  H    0.320254
     4  C   -0.092900
     5  H    0.186536
     6  C    0.628767
     7  C   -0.364992
     8  H    0.212659
     9  H    0.140532
    10  O   -0.614357
    11  C    0.159171
    12  C   -0.212126
    13  H    0.106301
    14  C   -0.216517
    15  H    0.144570
    16  C   -0.120992
    17  H    0.184987
    18  C   -0.131300
    19  H    0.163444
    20  C   -0.137902
    21  H    0.157620
    22  N   -0.536298
    23  H    0.400263
    24  C   -0.095341
    25  H    0.200098
    26  C    0.631699
    27  C   -0.067168
    28  H    0.185230
    29  H    0.195581
    30  O   -0.516790
    31  O   -0.627484
    32  H    0.437691
    33  N   -0.581967
    34  H    0.353678
    35  C   -0.110165
    36  H    0.196462
    37  C    0.639962
    38  C   -0.100071
    39  H    0.217768
    40  H    0.181600
    41  O   -0.515351
    42  O   -0.719869
    43  H    0.494412
    44  N   -0.625227
    45  H    0.399876
    46  C   -0.050154
    47  H    0.189162
    48  C    0.649225
    49  C   -0.371077
    50  H    0.196627
    51  H    0.197166
    52  O   -0.560233
    53  C    0.581042
    54  O   -0.457966
    55  O   -0.554446
    56  N   -0.595869
    57  H    0.359030
    58  C   -0.067019
    59  H    0.208097
    60  C    0.595659
    61  C   -0.276551
    62  H    0.179534
    63  H    0.157575
    64  O   -0.439507
    65  C   -0.300805
    66  H    0.150355
    67  H    0.188816
    68  C   -0.149933
    69  H    0.168363
    70  H    0.174708
    71  N   -0.604493
    72  H    0.349696
    73  N   -0.839312
    74  H    0.364541
    75  H    0.348088
    76  N   -0.616054
    77  H    0.301290
    78  C    0.563612
    79  O   -0.580960
    80  H    0.429839
    81  H    0.488491
    82  H    0.422135
 Sum of Mulliken charges =   1.00000

 Dipole moment (field-independent basis, Debye):
    X=              0.6284    Y=             -1.2891    Z=            -10.0757  Tot=             10.1773
 Quadrupole moment (field-independent basis, Debye-Ang):
   XX=           -163.5956   YY=           -239.1927   ZZ=           -199.3957
   XY=             17.7753   XZ=             19.9728   YZ=              6.3852

 Normal termination of Gaussian 16 at Tue May 17 15:39:48 2022.
