 Gaussian 16, Revision C.01,
 Gaussian 16:  ES64L-G16RevC.01  3-Jul-2019

 ----------------------------------------------------------------------
 # B3LYP/6-31G* empiricaldispersion=gd3 guess=read geom=check nosymm in
 tegral(ultrafinegrid)
 ----------------------------------------------------------------------

 ------------------------------------------------------
 Candidate Structure: Conf:123 Charge calc in gas phase
 ------------------------------------------------------
 Structure from the checkpoint file:  "conf-123.chk"
 Charge =  1 Multiplicity = 1

                          Input orientation:
 ---------------------------------------------------------------------
 Center     Atomic      Atomic             Coordinates (Angstroms)
 Number     Number       Type             X           Y           Z
 ---------------------------------------------------------------------
      1          7           0       -5.244310   -1.681471   -3.737914
      2          1           0       -4.907831   -1.728768   -2.777200
      3          1           0       -6.262121   -1.670379   -3.708248
      4          6           0       -4.759416   -0.456042   -4.353770
      5          1           0       -5.043237   -0.472991   -5.413847
      6          6           0       -3.246075   -0.443179   -4.225468
      7          6           0       -5.281666    0.882547   -3.732295
      8          1           0       -4.956059    0.908333   -2.685355
      9          1           0       -4.799554    1.727393   -4.243531
     10          8           0       -2.671588   -0.645563   -3.153529
     11          6           0       -6.782593    0.991752   -3.836005
     12          6           0       -7.609161    0.513646   -2.809644
     13          1           0       -7.159862    0.118384   -1.901305
     14          6           0       -7.380805    1.510685   -4.992608
     15          1           0       -6.752540    1.889347   -5.796646
     16          6           0       -8.999478    0.554362   -2.934865
     17          1           0       -9.625375    0.184729   -2.127408
     18          6           0       -8.768802    1.554549   -5.120590
     19          1           0       -9.216019    1.966198   -6.021119
     20          6           0       -9.582390    1.074266   -4.091359
     21          1           0      -10.663563    1.109842   -4.189105
     22          7           0       -2.519074   -0.118495   -5.338208
     23          1           0       -2.963963    0.338174   -6.125230
     24          6           0       -1.101845    0.102068   -5.166632
     25          1           0       -0.611821   -0.849293   -4.927012
     26          6           0       -0.867778    1.026893   -3.976711
     27          6           0       -0.481157    0.642027   -6.462203
     28          1           0       -0.538968   -0.160313   -7.212153
     29          1           0        0.581508    0.867073   -6.285059
     30          8           0       -1.641782    2.058459   -3.889247
     31          8           0       -1.221833    1.785832   -6.843776
     32          1           0       -0.920674    2.078938   -7.717637
     33          7           0        0.115559    0.763535   -3.152648
     34          1           0        0.634605   -0.117816   -3.252496
     35          6           0        0.529806    1.465512   -1.934893
     36          1           0        1.006632    2.417331   -2.203720
     37          6           0        1.648478    0.571104   -1.340227
     38          6           0       -0.639536    1.714112   -0.964677
     39          1           0       -0.272373    1.924974    0.043545
     40          1           0       -1.285307    0.833364   -0.927843
     41          8           0        1.975709   -0.466231   -1.911192
     42          8           0       -1.469976    2.798112   -1.422427
     43          1           0       -1.073783    3.648814   -1.170605
     44          7           0        2.210207    1.038477   -0.211534
     45          1           0        2.034845    1.999314    0.078014
     46          6           0        3.529056    0.598177    0.222425
     47          1           0        3.500111   -0.467307    0.466779
     48          6           0        3.877325    1.464486    1.443515
     49          6           0        4.614522    0.828170   -0.874451
     50          1           0        5.603086    0.613478   -0.463975
     51          1           0        4.405656    0.146598   -1.702986
     52          8           0        3.393317    2.590113    1.544147
     53          6           0        4.558756    2.246413   -1.409615
     54          8           0        3.615948    2.708878   -2.025310
     55          8           0        5.663644    2.953549   -1.118686
     56          7           0        4.769441    0.934022    2.312777
     57          1           0        5.210358    0.058293    2.057736
     58          6           0        5.518180    1.785696    3.233265
     59          1           0        4.859097    2.608185    3.520208
     60          6           0        6.734228    2.427102    2.558035
     61          6           0        5.962722    1.015419    4.488202
     62          1           0        6.605023    1.685168    5.070198
     63          1           0        6.589896    0.163882    4.185626
     64          8           0        7.337419    3.363321    3.019166
     65          6           0        4.785580    0.534903    5.342157
     66          1           0        4.121511   -0.094942    4.733643
     67          1           0        4.189777    1.395141    5.671971
     68          6           0        5.253704   -0.249274    6.569545
     69          1           0        5.863881   -1.112993    6.249038
     70          1           0        5.903704    0.387238    7.182308
     71          7           0        4.118939   -0.648774    7.384256
     72          1           0        3.354152   -1.056025    6.855567
     73          7           0        3.135921   -1.764643    9.157218
     74          1           0        3.298906   -2.156922   10.078388
     75          1           0        2.409390   -1.055865    9.179547
     76          7           0        5.450498   -1.553658    9.188669
     77          1           0        6.255527   -1.313057    8.611085
     78          6           0        4.338990   -1.320689    8.596326
     79          8           0        7.079011    1.796872    1.406354
     80          1           0        7.847803    2.273852    1.040129
     81          1           0       -1.607729    2.517109   -2.988170
     82          1           0        5.536300    3.853108   -1.478804
 ---------------------------------------------------------------------

 SCF Done:  E(RB3LYP) =  -2166.33080021     A.U. after    2 cycles

 Alpha  occ. eigenvalues --  -19.33926 -19.32395 -19.30337 -19.29082 -19.27268
 Alpha  occ. eigenvalues --  -19.25989 -19.24789 -19.23647 -19.22912 -19.22826
 Alpha  occ. eigenvalues --  -14.53326 -14.48764 -14.47598 -14.47554 -14.40200
 Alpha  occ. eigenvalues --  -14.39038 -14.38114 -14.32973 -10.47273 -10.43184
 Alpha  occ. eigenvalues --  -10.42958 -10.41009 -10.40623 -10.39257 -10.39094
 Alpha  occ. eigenvalues --  -10.38854 -10.37676 -10.37072 -10.36438 -10.33589
 Alpha  occ. eigenvalues --  -10.32301 -10.31477 -10.31228 -10.28762 -10.28468
 Alpha  occ. eigenvalues --  -10.27244 -10.27017 -10.26656 -10.25661 -10.25654
 Alpha  occ. eigenvalues --  -10.25479 -10.25472 -10.25257  -1.25018  -1.21277
 Alpha  occ. eigenvalues --   -1.19617  -1.18816  -1.18072  -1.15580  -1.15221
 Alpha  occ. eigenvalues --   -1.14494  -1.12209  -1.10724  -1.10482  -1.05948
 Alpha  occ. eigenvalues --   -1.04246  -1.04221  -1.02140  -0.97148  -0.93925
 Alpha  occ. eigenvalues --   -0.93768  -0.92032  -0.90993  -0.89097  -0.88485
 Alpha  occ. eigenvalues --   -0.88134  -0.84898  -0.83208  -0.82845  -0.81195
 Alpha  occ. eigenvalues --   -0.80960  -0.79929  -0.78422  -0.75702  -0.75111
 Alpha  occ. eigenvalues --   -0.73804  -0.73510  -0.72372  -0.71719  -0.70277
 Alpha  occ. eigenvalues --   -0.69512  -0.69156  -0.68796  -0.67990  -0.67126
 Alpha  occ. eigenvalues --   -0.66174  -0.65239  -0.64868  -0.64518  -0.63113
 Alpha  occ. eigenvalues --   -0.62769  -0.61992  -0.61862  -0.61194  -0.60447
 Alpha  occ. eigenvalues --   -0.59748  -0.59048  -0.58915  -0.58467  -0.58195
 Alpha  occ. eigenvalues --   -0.57548  -0.57429  -0.57173  -0.56766  -0.56718
 Alpha  occ. eigenvalues --   -0.56150  -0.56134  -0.55014  -0.54845  -0.54343
 Alpha  occ. eigenvalues --   -0.54074  -0.53788  -0.53556  -0.52968  -0.52864
 Alpha  occ. eigenvalues --   -0.52643  -0.52190  -0.51770  -0.51515  -0.51172
 Alpha  occ. eigenvalues --   -0.50660  -0.50318  -0.50047  -0.49660  -0.49356
 Alpha  occ. eigenvalues --   -0.49164  -0.48923  -0.48609  -0.48503  -0.48034
 Alpha  occ. eigenvalues --   -0.47480  -0.47314  -0.46681  -0.46414  -0.46214
 Alpha  occ. eigenvalues --   -0.46003  -0.44254  -0.43817  -0.43460  -0.43346
 Alpha  occ. eigenvalues --   -0.42616  -0.42495  -0.42224  -0.40956  -0.40769
 Alpha  occ. eigenvalues --   -0.40582  -0.40568  -0.40309  -0.39855  -0.39528
 Alpha  occ. eigenvalues --   -0.39435  -0.37835  -0.37775  -0.37285  -0.36516
 Alpha  occ. eigenvalues --   -0.34926  -0.32144  -0.31481  -0.30803  -0.30438
 Alpha  occ. eigenvalues --   -0.30132  -0.27720
 Alpha virt. eigenvalues --   -0.15749  -0.11950  -0.10459  -0.09357  -0.09206
 Alpha virt. eigenvalues --   -0.08072  -0.07739  -0.06781  -0.06418  -0.04679
 Alpha virt. eigenvalues --   -0.03437  -0.03168  -0.02474  -0.01648  -0.01082

 Mulliken charges:
               1
     1  N   -0.709963
     2  H    0.313182
     3  H    0.321744
     4  C   -0.071003
     5  H    0.152021
     6  C    0.668585
     7  C   -0.371591
     8  H    0.154932
     9  H    0.144794
    10  O   -0.555696
    11  C    0.170811
    12  C   -0.196263
    13  H    0.126420
    14  C   -0.178390
    15  H    0.120542
    16  C   -0.126596
    17  H    0.145157
    18  C   -0.126187
    19  H    0.144216
    20  C   -0.127576
    21  H    0.147315
    22  N   -0.598266
    23  H    0.363779
    24  C   -0.038589
    25  H    0.204391
    26  C    0.669594
    27  C   -0.068417
    28  H    0.179760
    29  H    0.161425
    30  O   -0.557339
    31  O   -0.610469
    32  H    0.424128
    33  N   -0.599368
    34  H    0.402172
    35  C   -0.094060
    36  H    0.229417
    37  C    0.652039
    38  C   -0.088991
    39  H    0.198716
    40  H    0.234587
    41  O   -0.523559
    42  O   -0.626077
    43  H    0.437062
    44  N   -0.614152
    45  H    0.362486
    46  C   -0.070300
    47  H    0.196273
    48  C    0.643205
    49  C   -0.371184
    50  H    0.203849
    51  H    0.221772
    52  O   -0.528919
    53  C    0.594311
    54  O   -0.486367
    55  O   -0.546589
    56  N   -0.595422
    57  H    0.344482
    58  C   -0.064144
    59  H    0.219622
    60  C    0.598551
    61  C   -0.297256
    62  H    0.192423
    63  H    0.147341
    64  O   -0.437547
    65  C   -0.283628
    66  H    0.136722
    67  H    0.165316
    68  C   -0.120306
    69  H    0.138258
    70  H    0.166887
    71  N   -0.606958
    72  H    0.317126
    73  N   -0.753056
    74  H    0.340518
    75  H    0.319633
    76  N   -0.636757
    77  H    0.278552
    78  C    0.577300
    79  O   -0.578694
    80  H    0.427012
    81  H    0.476458
    82  H    0.424791
 Sum of Mulliken charges =   1.00000

 Dipole moment (field-independent basis, Debye):
    X=              2.1571    Y=              7.6578    Z=            -14.3097  Tot=             16.3726
 Quadrupole moment (field-independent basis, Debye-Ang):
   XX=           -162.9240   YY=           -244.9930   ZZ=           -172.9308
   XY=              0.8300   XZ=              2.2637   YZ=            -18.9260

 Normal termination of Gaussian 16 at Tue May 17 15:39:44 2022.
