 Gaussian 16, Revision C.01,
 Gaussian 16:  ES64L-G16RevC.01  3-Jul-2019

 ----------------------------------------------------------------------
 # B3LYP/6-31G* empiricaldispersion=gd3 guess=read geom=check nosymm in
 tegral(ultrafinegrid)
 ----------------------------------------------------------------------

 -----------------------------------------------------
 Candidate Structure: Conf:34 Charge calc in gas phase
 -----------------------------------------------------
 Structure from the checkpoint file:  "conf-34.chk"
 Charge =  1 Multiplicity = 1

                          Input orientation:
 ---------------------------------------------------------------------
 Center     Atomic      Atomic             Coordinates (Angstroms)
 Number     Number       Type             X           Y           Z
 ---------------------------------------------------------------------
      1          7           0       -4.235466   -4.748775   -2.494538
      2          1           0       -4.082841   -5.341154   -3.309021
      3          1           0       -3.544876   -5.029796   -1.798085
      4          6           0       -4.013998   -3.352038   -2.829510
      5          1           0       -4.548891   -3.127509   -3.760397
      6          6           0       -2.531558   -3.001431   -2.995806
      7          6           0       -4.580002   -2.429131   -1.705190
      8          1           0       -4.203572   -2.816944   -0.749433
      9          1           0       -4.159047   -1.421376   -1.818364
     10          8           0       -1.656389   -3.564636   -2.335173
     11          6           0       -6.089160   -2.355104   -1.712975
     12          6           0       -6.733398   -1.226830   -2.237548
     13          1           0       -6.139519   -0.392215   -2.608944
     14          6           0       -6.869503   -3.415218   -1.230453
     15          1           0       -6.378774   -4.300317   -0.839828
     16          6           0       -8.126851   -1.152467   -2.281223
     17          1           0       -8.610767   -0.267653   -2.686321
     18          6           0       -8.261895   -3.343318   -1.273579
     19          1           0       -8.855650   -4.171375   -0.895692
     20          6           0       -8.894879   -2.213269   -1.798169
     21          1           0       -9.979685   -2.158939   -1.827105
     22          7           0       -2.232104   -1.989932   -3.872851
     23          1           0       -3.006233   -1.401754   -4.163128
     24          6           0       -0.912608   -1.372289   -3.843080
     25          1           0       -0.155868   -2.157767   -3.816881
     26          6           0       -0.744651   -0.514963   -2.606162
     27          6           0       -0.678616   -0.546515   -5.133719
     28          1           0        0.275443   -0.019017   -5.045897
     29          1           0       -1.476400    0.212206   -5.227844
     30          8           0       -1.814562    0.208320   -2.298918
     31          8           0       -0.567533   -1.375652   -6.259417
     32          1           0       -1.379555   -1.900489   -6.352451
     33          7           0        0.384236   -0.508937   -1.974872
     34          1           0        1.086549   -1.518295   -2.183497
     35          6           0        0.649160    0.366339   -0.829753
     36          1           0        0.338183    1.391276   -1.083323
     37          6           0        2.160019    0.402736   -0.479843
     38          6           0       -0.148286   -0.072952    0.423801
     39          1           0        0.301025    0.336375    1.333052
     40          1           0       -0.135972   -1.166245    0.487530
     41          8           0        2.974313   -0.428685   -0.869057
     42          8           0       -1.526054    0.325426    0.313622
     43          1           0       -1.670928    1.132392    0.831989
     44          7           0        2.476474    1.414037    0.360594
     45          1           0        1.867263    2.222352    0.479231
     46          6           0        3.840113    1.578075    0.860103
     47          1           0        4.533430    1.645411    0.011804
     48          6           0        4.173803    0.371513    1.773546
     49          6           0        3.934801    2.841753    1.741998
     50          1           0        3.389044    2.634088    2.671114
     51          1           0        4.980604    3.023105    1.998184
     52          8           0        3.515575    0.196814    2.793842
     53          6           0        3.315078    4.080523    1.127636
     54          8           0        2.179518    4.122135    0.675984
     55          8           0        4.126956    5.140909    1.162356
     56          7           0        5.201621   -0.415279    1.376810
     57          1           0        5.672379   -0.226981    0.501492
     58          6           0        5.675670   -1.543539    2.173883
     59          1           0        5.354735   -1.365273    3.205031
     60          6           0        7.202588   -1.633158    2.199299
     61          6           0        5.093914   -2.888716    1.676155
     62          1           0        5.669714   -3.699635    2.133079
     63          1           0        5.287082   -2.949150    0.595422
     64          8           0        7.802393   -2.476942    2.819145
     65          6           0        3.594767   -3.048930    1.997224
     66          1           0        3.098279   -2.074746    2.019200
     67          1           0        3.490321   -3.465690    3.005939
     68          6           0        2.832888   -3.942553    1.009975
     69          1           0        3.280763   -4.942026    0.940027
     70          1           0        1.813830   -4.070727    1.387984
     71          7           0        2.807649   -3.302338   -0.311425
     72          1           0        3.538049   -2.619086   -0.466182
     73          7           0        0.547016   -3.609360   -0.881013
     74          1           0       -0.192940   -3.534994   -1.577665
     75          1           0        0.326500   -4.044323   -0.002039
     76          7           0        1.912448   -2.457947   -2.311603
     77          1           0        2.888400   -2.236151   -2.495028
     78          6           0        1.771583   -3.141526   -1.174477
     79          8           0        7.800928   -0.694389    1.427245
     80          1           0        8.764657   -0.844035    1.495682
     81          1           0       -1.825237    0.460412   -1.364143
     82          1           0        3.642302    5.907085    0.794176
 ---------------------------------------------------------------------

 SCF Done:  E(RB3LYP) =  -2166.35308348     A.U. after    1 cycles

 Alpha  occ. eigenvalues --  -19.31805 -19.30656 -19.30371 -19.29397 -19.25304
 Alpha  occ. eigenvalues --  -19.24571 -19.24140 -19.24132 -19.23141 -19.21899
 Alpha  occ. eigenvalues --  -14.48034 -14.47820 -14.47484 -14.46926 -14.46244
 Alpha  occ. eigenvalues --  -14.44878 -14.40311 -14.40199 -10.43637 -10.43616
 Alpha  occ. eigenvalues --  -10.41584 -10.41458 -10.40634 -10.40060 -10.39379
 Alpha  occ. eigenvalues --  -10.37426 -10.36939 -10.35576 -10.35116 -10.34745
 Alpha  occ. eigenvalues --  -10.34024 -10.33086 -10.31994 -10.31365 -10.29267
 Alpha  occ. eigenvalues --  -10.28700 -10.27769 -10.26042 -10.25218 -10.24870
 Alpha  occ. eigenvalues --  -10.24660 -10.24606 -10.24520  -1.22325  -1.21736
 Alpha  occ. eigenvalues --   -1.20004  -1.16884  -1.16193  -1.15767  -1.13950
 Alpha  occ. eigenvalues --   -1.12660  -1.12401  -1.11071  -1.09666  -1.06500
 Alpha  occ. eigenvalues --   -1.04402  -1.04255  -1.03282  -1.00148  -0.97971
 Alpha  occ. eigenvalues --   -0.96041  -0.92227  -0.91456  -0.90239  -0.89266
 Alpha  occ. eigenvalues --   -0.87089  -0.85087  -0.84855  -0.80721  -0.80182
 Alpha  occ. eigenvalues --   -0.79652  -0.79209  -0.78084  -0.76286  -0.74691
 Alpha  occ. eigenvalues --   -0.72979  -0.72563  -0.72343  -0.71187  -0.70975
 Alpha  occ. eigenvalues --   -0.69793  -0.69246  -0.68516  -0.68222  -0.67350
 Alpha  occ. eigenvalues --   -0.66626  -0.66431  -0.64582  -0.64484  -0.63599
 Alpha  occ. eigenvalues --   -0.63035  -0.62279  -0.61679  -0.61220  -0.61015
 Alpha  occ. eigenvalues --   -0.60345  -0.60221  -0.59412  -0.58792  -0.58694
 Alpha  occ. eigenvalues --   -0.58233  -0.57726  -0.57118  -0.56952  -0.56573
 Alpha  occ. eigenvalues --   -0.56438  -0.56134  -0.55770  -0.54938  -0.54636
 Alpha  occ. eigenvalues --   -0.54300  -0.54285  -0.53450  -0.53225  -0.52778
 Alpha  occ. eigenvalues --   -0.52153  -0.52134  -0.51910  -0.51749  -0.51537
 Alpha  occ. eigenvalues --   -0.50836  -0.50678  -0.50229  -0.50129  -0.49922
 Alpha  occ. eigenvalues --   -0.49838  -0.49644  -0.49113  -0.48459  -0.47891
 Alpha  occ. eigenvalues --   -0.47782  -0.47393  -0.47066  -0.46487  -0.45460
 Alpha  occ. eigenvalues --   -0.45306  -0.44983  -0.44746  -0.44246  -0.43954
 Alpha  occ. eigenvalues --   -0.43212  -0.42818  -0.41434  -0.41005  -0.41002
 Alpha  occ. eigenvalues --   -0.40464  -0.40203  -0.39866  -0.39459  -0.38549
 Alpha  occ. eigenvalues --   -0.38438  -0.38237  -0.37904  -0.37736  -0.36999
 Alpha  occ. eigenvalues --   -0.36059  -0.35457  -0.34708  -0.33202  -0.32815
 Alpha  occ. eigenvalues --   -0.30701  -0.30298
 Alpha virt. eigenvalues --   -0.13910  -0.10932  -0.10583  -0.10003  -0.08564
 Alpha virt. eigenvalues --   -0.07977  -0.06571  -0.06293  -0.05985  -0.05884
 Alpha virt. eigenvalues --   -0.03488  -0.03292  -0.02791  -0.01901  -0.01320

 Mulliken charges:
               1
     1  N   -0.684474
     2  H    0.316206
     3  H    0.312614
     4  C   -0.082311
     5  H    0.161689
     6  C    0.612614
     7  C   -0.363166
     8  H    0.158765
     9  H    0.139748
    10  O   -0.545528
    11  C    0.169678
    12  C   -0.190296
    13  H    0.107510
    14  C   -0.153841
    15  H    0.143807
    16  C   -0.127758
    17  H    0.137777
    18  C   -0.132607
    19  H    0.142206
    20  C   -0.127010
    21  H    0.142984
    22  N   -0.597475
    23  H    0.349373
    24  C   -0.102542
    25  H    0.236764
    26  C    0.609106
    27  C   -0.033947
    28  H    0.178593
    29  H    0.143825
    30  O   -0.605055
    31  O   -0.586805
    32  H    0.405856
    33  N   -0.569983
    34  H    0.446128
    35  C   -0.120573
    36  H    0.183458
    37  C    0.621103
    38  C   -0.065552
    39  H    0.196384
    40  H    0.189154
    41  O   -0.538975
    42  O   -0.631246
    43  H    0.432886
    44  N   -0.619416
    45  H    0.372664
    46  C   -0.034601
    47  H    0.171462
    48  C    0.641494
    49  C   -0.400921
    50  H    0.230395
    51  H    0.205171
    52  O   -0.530119
    53  C    0.601065
    54  O   -0.484011
    55  O   -0.536419
    56  N   -0.591540
    57  H    0.351494
    58  C   -0.070539
    59  H    0.223600
    60  C    0.591519
    61  C   -0.283836
    62  H    0.197686
    63  H    0.140096
    64  O   -0.436765
    65  C   -0.304245
    66  H    0.180382
    67  H    0.173169
    68  C   -0.138583
    69  H    0.182001
    70  H    0.148167
    71  N   -0.606687
    72  H    0.360385
    73  N   -0.798662
    74  H    0.431158
    75  H    0.347008
    76  N   -0.756255
    77  H    0.320356
    78  C    0.699803
    79  O   -0.577286
    80  H    0.429701
    81  H    0.462094
    82  H    0.429936
 Sum of Mulliken charges =   1.00000

 Dipole moment (field-independent basis, Debye):
    X=              4.3599    Y=             -0.3927    Z=             -3.4706  Tot=              5.5864
 Quadrupole moment (field-independent basis, Debye-Ang):
   XX=           -165.4985   YY=           -198.4369   ZZ=           -234.8927
   XY=             19.1170   XZ=             21.7472   YZ=              7.7923

 Normal termination of Gaussian 16 at Tue May 17 15:39:36 2022.
