 Gaussian 16, Revision C.01,
 Gaussian 16:  ES64L-G16RevC.01  3-Jul-2019

 ----------------------------------------------------------------------
 # B3LYP/6-31G* empiricaldispersion=gd3 guess=read geom=check nosymm in
 tegral(ultrafinegrid)
 ----------------------------------------------------------------------

 ------------------------------------------------------
 Candidate Structure: Conf:112 Charge calc in gas phase
 ------------------------------------------------------
 Structure from the checkpoint file:  "conf-112.chk"
 Charge =  1 Multiplicity = 1

                          Input orientation:
 ---------------------------------------------------------------------
 Center     Atomic      Atomic             Coordinates (Angstroms)
 Number     Number       Type             X           Y           Z
 ---------------------------------------------------------------------
      1          7           0       -4.958658   -2.793595   -3.872282
      2          1           0       -4.737997   -3.768728   -4.070553
      3          1           0       -5.310535   -2.805954   -2.914497
      4          6           0       -3.723042   -2.021357   -3.881025
      5          1           0       -3.203059   -2.221276   -4.827502
      6          6           0       -2.783573   -2.415105   -2.719865
      7          6           0       -4.037183   -0.496275   -3.844160
      8          1           0       -3.134221    0.071471   -4.100982
      9          1           0       -4.766006   -0.316467   -4.640768
     10          8           0       -3.129735   -3.189710   -1.839552
     11          6           0       -4.572063   -0.020984   -2.511001
     12          6           0       -5.905741   -0.255847   -2.145984
     13          1           0       -6.571484   -0.740917   -2.854681
     14          6           0       -3.731299    0.628332   -1.596638
     15          1           0       -2.704371    0.845779   -1.876900
     16          6           0       -6.378716    0.127790   -0.890570
     17          1           0       -7.414987   -0.062020   -0.624348
     18          6           0       -4.203118    1.011897   -0.340564
     19          1           0       -3.534711    1.514035    0.355651
     20          6           0       -5.527309    0.758411    0.019595
     21          1           0       -5.897894    1.057399    0.996391
     22          7           0       -1.531668   -1.838540   -2.736550
     23          1           0       -1.356870   -1.066390   -3.368428
     24          6           0       -0.693773   -1.865470   -1.553468
     25          1           0       -1.216583   -2.455759   -0.797114
     26          6           0       -0.443685   -0.437198   -1.080222
     27          6           0        0.674231   -2.518417   -1.879667
     28          1           0        1.135325   -1.969201   -2.712799
     29          1           0        0.494417   -3.546906   -2.200684
     30          8           0       -0.185903    0.465445   -1.880199
     31          8           0        1.551965   -2.577526   -0.757654
     32          1           0        1.804056   -1.667729   -0.505598
     33          7           0       -0.422376   -0.224866    0.264510
     34          1           0       -0.401665   -1.023875    0.917113
     35          6           0        0.190475    1.000123    0.713875
     36          1           0       -0.389295    1.871687    0.391831
     37          6           0        1.620589    1.107253    0.177568
     38          6           0        0.280088    0.961341    2.253435
     39          1           0        0.738573    0.023967    2.582655
     40          1           0       -0.728400    1.039422    2.669438
     41          8           0        2.345252    0.117217    0.020051
     42          8           0        1.086386    2.084338    2.704467
     43          1           0        0.907262    2.226143    3.648488
     44          7           0        2.157558    2.350126    0.131539
     45          1           0        1.597766    3.198588    0.151765
     46          6           0        3.599973    2.479608    0.096231
     47          1           0        3.999162    2.179662   -0.880451
     48          6           0        4.151628    1.521702    1.154500
     49          6           0        4.055511    3.916495    0.445252
     50          1           0        3.801755    4.132514    1.489698
     51          1           0        5.138539    3.996138    0.331967
     52          8           0        3.606422    1.447921    2.329648
     53          6           0        3.350284    4.968933   -0.400711
     54          8           0        2.141828    5.061563   -0.477830
     55          8           0        4.213917    5.781747   -1.015653
     56          7           0        5.225461    0.808257    0.944542
     57          1           0        5.660117    0.833177    0.027369
     58          6           0        5.639212   -0.282237    1.855715
     59          1           0        5.532942    0.082500    2.878813
     60          6           0        7.099897   -0.651576    1.650901
     61          6           0        4.729244   -1.523246    1.640524
     62          1           0        5.089180   -2.090446    0.772388
     63          1           0        3.730024   -1.165032    1.386454
     64          8           0        7.722004   -1.316252    2.438228
     65          6           0        4.631899   -2.410106    2.882123
     66          1           0        4.235585   -1.802228    3.704861
     67          1           0        5.621805   -2.763850    3.191028
     68          6           0        3.720154   -3.632725    2.639715
     69          1           0        4.233101   -4.340568    1.981350
     70          1           0        3.566571   -4.164298    3.588628
     71          7           0        2.438109   -3.348906    2.006385
     72          1           0        2.347366   -3.544283    1.015615
     73          7           0        1.535076   -2.121915    3.811776
     74          1           0        0.634038   -2.011408    4.265309
     75          1           0        2.182508   -2.608154    4.421684
     76          7           0        0.223653   -2.518537    1.943502
     77          1           0        0.254416   -2.997242    1.043409
     78          6           0        1.357884   -2.693000    2.544758
     79          8           0        7.577071   -0.211988    0.462078
     80          1           0        8.497603   -0.527106    0.371314
     81          1           0        2.659157    1.824347    2.412487
     82          1           0        3.701710    6.451122   -1.512404
 ---------------------------------------------------------------------

 SCF Done:  E(RB3LYP) =  -2166.35888779     A.U. after    1 cycles

 Alpha  occ. eigenvalues --  -19.36009 -19.33258 -19.32949 -19.32215 -19.27555
 Alpha  occ. eigenvalues --  -19.26942 -19.26721 -19.23563 -19.21361 -19.17684
 Alpha  occ. eigenvalues --  -14.55593 -14.50490 -14.45283 -14.44352 -14.44344
 Alpha  occ. eigenvalues --  -14.42505 -14.37109 -14.36028 -10.49451 -10.46166
 Alpha  occ. eigenvalues --  -10.45537 -10.42974 -10.41411 -10.38788 -10.37839
 Alpha  occ. eigenvalues --  -10.37813 -10.37434 -10.36010 -10.35915 -10.34312
 Alpha  occ. eigenvalues --  -10.32731 -10.31746 -10.31415 -10.30803 -10.29522
 Alpha  occ. eigenvalues --  -10.27959 -10.24617 -10.24589 -10.24232 -10.23880
 Alpha  occ. eigenvalues --  -10.23777 -10.23772 -10.23466  -1.26898  -1.24062
 Alpha  occ. eigenvalues --   -1.23825  -1.18885  -1.17995  -1.15229  -1.15047
 Alpha  occ. eigenvalues --   -1.13367  -1.12615  -1.10538  -1.09582  -1.07727
 Alpha  occ. eigenvalues --   -1.07111  -1.02775  -0.99052  -0.98372  -0.95773
 Alpha  occ. eigenvalues --   -0.93927  -0.93850  -0.92883  -0.90194  -0.89008
 Alpha  occ. eigenvalues --   -0.87519  -0.84494  -0.83823  -0.82273  -0.81860
 Alpha  occ. eigenvalues --   -0.79251  -0.79237  -0.78470  -0.76652  -0.75995
 Alpha  occ. eigenvalues --   -0.74629  -0.74173  -0.72314  -0.72078  -0.71312
 Alpha  occ. eigenvalues --   -0.70089  -0.69057  -0.68861  -0.67793  -0.67493
 Alpha  occ. eigenvalues --   -0.66119  -0.65452  -0.65096  -0.64917  -0.64701
 Alpha  occ. eigenvalues --   -0.64041  -0.63182  -0.62608  -0.61773  -0.61155
 Alpha  occ. eigenvalues --   -0.61084  -0.60686  -0.60358  -0.59943  -0.59276
 Alpha  occ. eigenvalues --   -0.58640  -0.58223  -0.57845  -0.57287  -0.56670
 Alpha  occ. eigenvalues --   -0.56640  -0.56149  -0.55449  -0.54990  -0.54855
 Alpha  occ. eigenvalues --   -0.54802  -0.54358  -0.53993  -0.53606  -0.53386
 Alpha  occ. eigenvalues --   -0.53187  -0.52944  -0.52549  -0.52037  -0.51420
 Alpha  occ. eigenvalues --   -0.51203  -0.50714  -0.50473  -0.50307  -0.49931
 Alpha  occ. eigenvalues --   -0.49443  -0.48947  -0.48254  -0.47874  -0.47311
 Alpha  occ. eigenvalues --   -0.46817  -0.46583  -0.46484  -0.46194  -0.45551
 Alpha  occ. eigenvalues --   -0.45504  -0.45167  -0.45027  -0.44316  -0.43806
 Alpha  occ. eigenvalues --   -0.43643  -0.42660  -0.42366  -0.41941  -0.41504
 Alpha  occ. eigenvalues --   -0.40847  -0.40400  -0.40146  -0.39960  -0.38815
 Alpha  occ. eigenvalues --   -0.38155  -0.37353  -0.36961  -0.35981  -0.35414
 Alpha  occ. eigenvalues --   -0.34956  -0.32089  -0.31330  -0.30989  -0.29857
 Alpha  occ. eigenvalues --   -0.29749  -0.28605
 Alpha virt. eigenvalues --   -0.18357  -0.13090  -0.12583  -0.11970  -0.07979
 Alpha virt. eigenvalues --   -0.07863  -0.06559  -0.05279  -0.05070  -0.04303
 Alpha virt. eigenvalues --   -0.03996  -0.03683  -0.03511  -0.03307  -0.02110

 Mulliken charges:
               1
     1  N   -0.694111
     2  H    0.308547
     3  H    0.317785
     4  C   -0.090125
     5  H    0.154939
     6  C    0.590007
     7  C   -0.350908
     8  H    0.135891
     9  H    0.179701
    10  O   -0.505120
    11  C    0.156634
    12  C   -0.188984
    13  H    0.154840
    14  C   -0.203272
    15  H    0.135787
    16  C   -0.125954
    17  H    0.140177
    18  C   -0.125516
    19  H    0.101586
    20  C   -0.126694
    21  H    0.129508
    22  N   -0.605486
    23  H    0.342035
    24  C   -0.082356
    25  H    0.203356
    26  C    0.615692
    27  C   -0.041596
    28  H    0.147155
    29  H    0.180517
    30  O   -0.554378
    31  O   -0.680807
    32  H    0.443914
    33  N   -0.632235
    34  H    0.408632
    35  C   -0.037003
    36  H    0.197924
    37  C    0.640907
    38  C   -0.114839
    39  H    0.218150
    40  H    0.201913
    41  O   -0.556158
    42  O   -0.659141
    43  H    0.441241
    44  N   -0.622318
    45  H    0.395124
    46  C   -0.018903
    47  H    0.208812
    48  C    0.661764
    49  C   -0.395988
    50  H    0.213023
    51  H    0.213539
    52  O   -0.595388
    53  C    0.608503
    54  O   -0.447577
    55  O   -0.536794
    56  N   -0.567029
    57  H    0.392725
    58  C   -0.072768
    59  H    0.226183
    60  C    0.602020
    61  C   -0.298041
    62  H    0.165126
    63  H    0.211050
    64  O   -0.417870
    65  C   -0.280208
    66  H    0.148498
    67  H    0.185235
    68  C   -0.167769
    69  H    0.177552
    70  H    0.168752
    71  N   -0.611874
    72  H    0.369912
    73  N   -0.761001
    74  H    0.345604
    75  H    0.335782
    76  N   -0.732187
    77  H    0.317364
    78  C    0.611076
    79  O   -0.586062
    80  H    0.444029
    81  H    0.497054
    82  H    0.440896
 Sum of Mulliken charges =   1.00000

 Dipole moment (field-independent basis, Debye):
    X=             20.2153    Y=              7.2647    Z=              6.9785  Tot=             22.5861
 Quadrupole moment (field-independent basis, Debye-Ang):
   XX=           -150.9943   YY=           -200.8880   ZZ=           -206.5860
   XY=             19.2068   XZ=              4.6194   YZ=              1.5908

 Normal termination of Gaussian 16 at Tue May 17 15:39:40 2022.
