 Gaussian 16, Revision C.01,
 Gaussian 16:  ES64L-G16RevC.01  3-Jul-2019

 ----------------------------------------------------------------------
 # B3LYP/6-31G* empiricaldispersion=gd3 guess=read geom=check nosymm in
 tegral(ultrafinegrid)
 ----------------------------------------------------------------------

 ------------------------------------------------------
 Candidate Structure: Conf:549 Charge calc in gas phase
 ------------------------------------------------------
 Structure from the checkpoint file:  "conf-549.chk"
 Charge =  1 Multiplicity = 1

                          Input orientation:
 ---------------------------------------------------------------------
 Center     Atomic      Atomic             Coordinates (Angstroms)
 Number     Number       Type             X           Y           Z
 ---------------------------------------------------------------------
      1          7           0       -4.555671    0.502958   -3.837537
      2          1           0       -4.492336    0.476727   -4.855629
      3          1           0       -5.550212    0.526223   -3.622689
      4          6           0       -3.957587   -0.711929   -3.274056
      5          1           0       -4.316866   -0.792818   -2.238309
      6          6           0       -2.435971   -0.547980   -3.164860
      7          6           0       -4.315848   -2.031674   -4.001306
      8          1           0       -3.957591   -1.966339   -5.037286
      9          1           0       -3.763395   -2.849165   -3.527809
     10          8           0       -1.675045   -1.517909   -2.993202
     11          6           0       -5.804217   -2.288369   -3.966602
     12          6           0       -6.391395   -2.896597   -2.848262
     13          1           0       -5.758257   -3.235858   -2.030401
     14          6           0       -6.635242   -1.867066   -5.012984
     15          1           0       -6.194898   -1.407166   -5.895359
     16          6           0       -7.772186   -3.081016   -2.777186
     17          1           0       -8.209604   -3.561847   -1.906492
     18          6           0       -8.018210   -2.049506   -4.946394
     19          1           0       -8.646345   -1.723913   -5.770963
     20          6           0       -8.590234   -2.655631   -3.826823
     21          1           0       -9.665246   -2.802298   -3.774853
     22          7           0       -1.987266    0.718268   -3.235165
     23          1           0       -2.669394    1.434217   -3.479425
     24          6           0       -0.569847    1.047722   -3.234839
     25          1           0       -0.098672    0.623038   -4.131102
     26          6           0        0.079208    0.469788   -1.968328
     27          6           0       -0.386490    2.564674   -3.255317
     28          1           0        0.690073    2.781572   -3.324843
     29          1           0       -0.766378    2.976831   -2.310173
     30          8           0       -0.158115    0.941079   -0.851576
     31          8           0       -1.111414    3.040536   -4.379481
     32          1           0       -1.090393    4.009510   -4.373374
     33          7           0        0.926506   -0.566326   -2.178827
     34          1           0        0.926499   -0.964792   -3.109582
     35          6           0        1.393013   -1.427692   -1.105740
     36          1           0        0.994215   -0.987075   -0.190246
     37          6           0        2.915669   -1.378228   -0.914092
     38          6           0        0.835982   -2.852732   -1.224594
     39          1           0        1.366000   -3.488916   -0.514623
     40          1           0        1.022229   -3.259408   -2.227586
     41          8           0        3.545572   -2.366681   -0.535569
     42          8           0       -0.558246   -2.911753   -0.910336
     43          1           0       -1.445417   -1.638023    0.266178
     44          7           0        3.449015   -0.146541   -1.077429
     45          1           0        2.895419    0.565141   -1.547509
     46          6           0        4.884588    0.119479   -0.950230
     47          1           0        5.428168   -0.735315   -1.367928
     48          6           0        5.215338    0.262571    0.564971
     49          6           0        5.272828    1.426093   -1.669304
     50          1           0        5.002858    2.259798   -1.011076
     51          1           0        6.355443    1.453291   -1.801891
     52          8           0        5.381925    1.357158    1.092820
     53          6           0        4.571783    1.652671   -2.990039
     54          8           0        3.357692    1.706517   -3.125896
     55          8           0        5.423253    1.826155   -4.010350
     56          7           0        5.226227   -0.912407    1.241141
     57          1           0        4.900867   -1.757257    0.768683
     58          6           0        5.214631   -0.922081    2.696620
     59          1           0        6.112268   -0.430464    3.080169
     60          6           0        5.201064   -2.373341    3.150315
     61          6           0        3.967952   -0.212114    3.303518
     62          1           0        4.144710    0.865347    3.266109
     63          1           0        3.892543   -0.498325    4.360365
     64          8           0        4.697223   -3.283163    2.526270
     65          6           0        2.675929   -0.542342    2.538478
     66          1           0        2.674323   -1.595746    2.234207
     67          1           0        2.648347    0.046847    1.615351
     68          6           0        1.418292   -0.216567    3.356664
     69          1           0        1.258904   -0.943872    4.162051
     70          1           0        1.516284    0.757652    3.842917
     71          7           0        0.198715   -0.129706    2.533852
     72          1           0       -0.075446    0.797507    2.234269
     73          7           0       -0.026462   -2.411134    2.086168
     74          1           0       -0.383869   -3.136917    1.476804
     75          1           0        0.603601   -2.674899    2.827301
     76          7           0       -1.316288   -0.873547    0.937399
     77          1           0       -1.226663    0.021466    0.455184
     78          6           0       -0.365946   -1.135856    1.853291
     79          8           0        5.745465   -2.509594    4.373417
     80          1           0        5.669207   -3.450469    4.624611
     81          1           0       -1.057510   -2.587443   -1.691152
     82          1           0        4.893076    2.000514   -4.813030
 ---------------------------------------------------------------------

 SCF Done:  E(RB3LYP) =  -2166.42435632     A.U. after    1 cycles

 Alpha  occ. eigenvalues --  -19.29653 -19.29086 -19.25703 -19.24431 -19.24321
 Alpha  occ. eigenvalues --  -19.24047 -19.23565 -19.22466 -19.22457 -19.20718
 Alpha  occ. eigenvalues --  -14.51021 -14.50852 -14.48012 -14.47935 -14.46196
 Alpha  occ. eigenvalues --  -14.46001 -14.44258 -14.41446 -10.46444 -10.42560
 Alpha  occ. eigenvalues --  -10.41521 -10.40928 -10.39442 -10.38963 -10.37678
 Alpha  occ. eigenvalues --  -10.35601 -10.34240 -10.34200 -10.34095 -10.34022
 Alpha  occ. eigenvalues --  -10.33434 -10.33114 -10.31887 -10.29828 -10.29667
 Alpha  occ. eigenvalues --  -10.29116 -10.26994 -10.26662 -10.25726 -10.25724
 Alpha  occ. eigenvalues --  -10.25582 -10.25547 -10.25338  -1.20687  -1.20066
 Alpha  occ. eigenvalues --   -1.16057  -1.15253  -1.14368  -1.13825  -1.12580
 Alpha  occ. eigenvalues --   -1.12418  -1.11759  -1.11578  -1.11159  -1.04986
 Alpha  occ. eigenvalues --   -1.04876  -1.02903  -1.02715  -1.02625  -1.01337
 Alpha  occ. eigenvalues --   -0.98425  -0.92156  -0.90972  -0.89650  -0.87972
 Alpha  occ. eigenvalues --   -0.85970  -0.85507  -0.85075  -0.81030  -0.80699
 Alpha  occ. eigenvalues --   -0.79770  -0.79117  -0.76803  -0.76232  -0.74545
 Alpha  occ. eigenvalues --   -0.73119  -0.72829  -0.71852  -0.71573  -0.70136
 Alpha  occ. eigenvalues --   -0.69357  -0.68557  -0.67897  -0.67650  -0.67149
 Alpha  occ. eigenvalues --   -0.66113  -0.64993  -0.64666  -0.63983  -0.63386
 Alpha  occ. eigenvalues --   -0.62510  -0.62233  -0.61799  -0.61453  -0.60996
 Alpha  occ. eigenvalues --   -0.59759  -0.59383  -0.59241  -0.58825  -0.58671
 Alpha  occ. eigenvalues --   -0.58209  -0.57688  -0.57626  -0.57161  -0.56870
 Alpha  occ. eigenvalues --   -0.56215  -0.55626  -0.55072  -0.54859  -0.53879
 Alpha  occ. eigenvalues --   -0.53779  -0.53491  -0.53301  -0.52704  -0.52620
 Alpha  occ. eigenvalues --   -0.52462  -0.52297  -0.51729  -0.51244  -0.50833
 Alpha  occ. eigenvalues --   -0.50454  -0.50102  -0.49926  -0.49751  -0.49600
 Alpha  occ. eigenvalues --   -0.48935  -0.48623  -0.48522  -0.48097  -0.47779
 Alpha  occ. eigenvalues --   -0.47309  -0.47034  -0.46551  -0.45995  -0.45773
 Alpha  occ. eigenvalues --   -0.44933  -0.44786  -0.44649  -0.44229  -0.43413
 Alpha  occ. eigenvalues --   -0.42325  -0.41936  -0.41816  -0.41206  -0.40743
 Alpha  occ. eigenvalues --   -0.40615  -0.40315  -0.39344  -0.38790  -0.38394
 Alpha  occ. eigenvalues --   -0.38061  -0.37437  -0.37042  -0.36983  -0.36866
 Alpha  occ. eigenvalues --   -0.35766  -0.34844  -0.34395  -0.33804  -0.33341
 Alpha  occ. eigenvalues --   -0.31626  -0.30961
 Alpha virt. eigenvalues --   -0.11636  -0.10247  -0.09578  -0.08963  -0.08736
 Alpha virt. eigenvalues --   -0.08697  -0.06831  -0.06795  -0.06590  -0.06312
 Alpha virt. eigenvalues --   -0.04025  -0.02112  -0.01756  -0.01377  -0.01114

 Mulliken charges:
               1
     1  N   -0.745562
     2  H    0.316143
     3  H    0.335288
     4  C   -0.075170
     5  H    0.175896
     6  C    0.634339
     7  C   -0.363092
     8  H    0.150911
     9  H    0.169282
    10  O   -0.603493
    11  C    0.169678
    12  C   -0.182543
    13  H    0.120956
    14  C   -0.195768
    15  H    0.123668
    16  C   -0.126380
    17  H    0.142379
    18  C   -0.127147
    19  H    0.145446
    20  C   -0.128789
    21  H    0.146752
    22  N   -0.592771
    23  H    0.386005
    24  C   -0.031757
    25  H    0.174119
    26  C    0.636397
    27  C   -0.069651
    28  H    0.170685
    29  H    0.160815
    30  O   -0.576608
    31  O   -0.622662
    32  H    0.415212
    33  N   -0.579724
    34  H    0.352490
    35  C   -0.108442
    36  H    0.192168
    37  C    0.627734
    38  C   -0.055125
    39  H    0.190086
    40  H    0.164242
    41  O   -0.537199
    42  O   -0.681524
    43  H    0.376698
    44  N   -0.626778
    45  H    0.391257
    46  C   -0.064206
    47  H    0.195408
    48  C    0.634351
    49  C   -0.384953
    50  H    0.226321
    51  H    0.206487
    52  O   -0.520852
    53  C    0.592881
    54  O   -0.495410
    55  O   -0.538328
    56  N   -0.645608
    57  H    0.402888
    58  C   -0.006759
    59  H    0.204557
    60  C    0.567174
    61  C   -0.303803
    62  H    0.199707
    63  H    0.164843
    64  O   -0.457939
    65  C   -0.302129
    66  H    0.166779
    67  H    0.172816
    68  C   -0.181329
    69  H    0.178185
    70  H    0.195926
    71  N   -0.578513
    72  H    0.372494
    73  N   -0.747809
    74  H    0.401029
    75  H    0.381782
    76  N   -0.749092
    77  H    0.390408
    78  C    0.737997
    79  O   -0.557932
    80  H    0.424812
    81  H    0.456834
    82  H    0.422519
 Sum of Mulliken charges =   1.00000

 Dipole moment (field-independent basis, Debye):
    X=              0.0184    Y=             -1.4654    Z=             -1.7880  Tot=              2.3119
 Quadrupole moment (field-independent basis, Debye-Ang):
   XX=           -182.9386   YY=           -226.9900   ZZ=           -170.6978
   XY=              0.2086   XZ=             22.6010   YZ=            -28.9812

 Normal termination of Gaussian 16 at Tue May 17 15:39:38 2022.
