 Gaussian 16, Revision C.01,
 Gaussian 16:  ES64L-G16RevC.01  3-Jul-2019

 ----------------------------------------------------------------------
 # B3LYP/6-31G* empiricaldispersion=gd3 guess=read geom=check nosymm in
 tegral(ultrafinegrid)
 ----------------------------------------------------------------------

 ------------------------------------------------------
 Candidate Structure: Conf:684 Charge calc in gas phase
 ------------------------------------------------------
 Structure from the checkpoint file:  "conf-684.chk"
 Charge =  1 Multiplicity = 1

                          Input orientation:
 ---------------------------------------------------------------------
 Center     Atomic      Atomic             Coordinates (Angstroms)
 Number     Number       Type             X           Y           Z
 ---------------------------------------------------------------------
      1          7           0       -4.108876   -2.768043   -1.350481
      2          1           0       -5.113328   -2.864850   -1.220711
      3          1           0       -3.826638   -3.405955   -2.090406
      4          6           0       -3.776222   -1.391827   -1.681006
      5          1           0       -4.425274   -0.935691   -2.451622
      6          6           0       -2.324219   -1.348387   -2.192354
      7          6           0       -3.926170   -0.517558   -0.396359
      8          1           0       -4.988060   -0.499614   -0.123238
      9          1           0       -3.406367   -1.045153    0.410349
     10          8           0       -1.499295   -2.210781   -1.859295
     11          6           0       -3.415930    0.896893   -0.572977
     12          6           0       -2.126810    1.258333   -0.155349
     13          1           0       -1.549594    0.442933    0.272755
     14          6           0       -4.181315    1.876026   -1.217872
     15          1           0       -5.193884    1.639576   -1.538187
     16          6           0       -1.589727    2.529019   -0.365494
     17          1           0       -0.593685    2.735529   -0.019748
     18          6           0       -3.658847    3.154093   -1.452186
     19          1           0       -4.270038    3.896425   -1.957942
     20          6           0       -2.367461    3.480388   -1.031970
     21          1           0       -1.968492    4.472935   -1.217299
     22          7           0       -2.013127   -0.270493   -2.948284
     23          1           0       -2.740507    0.426838   -3.059343
     24          6           0       -0.693529    0.122640   -3.456251
     25          1           0       -0.225984   -0.724319   -3.971740
     26          6           0        0.242188    0.521152   -2.293073
     27          6           0       -0.878014    1.276171   -4.457129
     28          1           0       -1.430313    2.090643   -3.958581
     29          1           0       -1.479043    0.920113   -5.299570
     30          8           0        0.658331    1.672120   -2.103390
     31          8           0        0.356999    1.709439   -4.970623
     32          1           0        0.806572    2.169418   -4.240524
     33          7           0        0.550825   -0.529754   -1.508573
     34          1           0        0.164245   -1.432719   -1.791187
     35          6           0        1.167060   -0.472113   -0.200320
     36          1           0        0.775844    0.432379    0.291094
     37          6           0        2.706581   -0.343712   -0.182109
     38          6           0        0.713292   -1.710086    0.582578
     39          1           0        1.275341   -1.758212    1.514477
     40          1           0        0.920791   -2.629201    0.021988
     41          8           0        3.418189   -1.188402    0.359757
     42          8           0       -0.679806   -1.667155    0.924674
     43          1           0       -0.793753   -0.975555    2.581269
     44          7           0        3.147600    0.809944   -0.732832
     45          1           0        2.454827    1.462470   -1.098565
     46          6           0        4.524490    1.276548   -0.555681
     47          1           0        5.195652    0.422508   -0.669736
     48          6           0        4.611554    1.843095    0.881179
     49          6           0        4.857258    2.351283   -1.581863
     50          1           0        4.691115    1.977430   -2.598958
     51          1           0        4.224258    3.233005   -1.438898
     52          8           0        4.364938    3.018757    1.129862
     53          6           0        6.306091    2.772047   -1.444992
     54          8           0        7.117551    2.222032   -0.732587
     55          8           0        6.587729    3.831608   -2.227663
     56          7           0        4.835935    0.900713    1.833487
     57          1           0        4.961284   -0.063784    1.553999
     58          6           0        4.635325    1.185724    3.237286
     59          1           0        4.659978    2.270979    3.364965
     60          6           0        5.731245    0.609964    4.128314
     61          6           0        3.246460    0.650559    3.680502
     62          1           0        3.218101   -0.429026    3.475645
     63          1           0        2.515267    1.116900    3.007783
     64          8           0        5.895615    0.951450    5.278559
     65          6           0        2.869731    0.915715    5.142637
     66          1           0        2.946904    1.987597    5.371382
     67          1           0        3.576780    0.421474    5.815212
     68          6           0        1.466356    0.405011    5.491531
     69          1           0        1.387392   -0.658096    5.248345
     70          1           0        1.265179    0.508216    6.562007
     71          7           0        0.406743    1.128124    4.769704
     72          1           0        0.320787    2.111183    4.996710
     73          7           0       -0.936568    1.598123    2.956530
     74          1           0       -1.612925    1.325894    2.253012
     75          1           0       -0.616984    2.556604    2.920184
     76          7           0       -0.489035   -0.607949    3.486560
     77          1           0       -0.263221   -1.292659    4.193291
     78          6           0       -0.326460    0.693986    3.742484
     79          8           0        6.438720   -0.365620    3.525581
     80          1           0        7.101935   -0.683528    4.168595
     81          1           0       -1.218436   -1.863686    0.136841
     82          1           0        7.532368    4.041163   -2.095551
 ---------------------------------------------------------------------

 SCF Done:  E(RB3LYP) =  -2166.40410864     A.U. after    1 cycles

 Alpha  occ. eigenvalues --  -19.28437 -19.27633 -19.26354 -19.24139 -19.23552
 Alpha  occ. eigenvalues --  -19.22562 -19.22508 -19.21861 -19.20847 -19.19513
 Alpha  occ. eigenvalues --  -14.52734 -14.52130 -14.51105 -14.48169 -14.46564
 Alpha  occ. eigenvalues --  -14.45472 -14.43985 -14.41307 -10.48717 -10.40794
 Alpha  occ. eigenvalues --  -10.40694 -10.39969 -10.39224 -10.38843 -10.36758
 Alpha  occ. eigenvalues --  -10.36503 -10.34932 -10.34431 -10.34063 -10.33620
 Alpha  occ. eigenvalues --  -10.32973 -10.32899 -10.32046 -10.30514 -10.30342
 Alpha  occ. eigenvalues --  -10.30222 -10.30068 -10.29890 -10.29609 -10.29435
 Alpha  occ. eigenvalues --  -10.29430 -10.29369 -10.28123  -1.19279  -1.17340
 Alpha  occ. eigenvalues --   -1.17083  -1.16075  -1.14819  -1.14214  -1.13477
 Alpha  occ. eigenvalues --   -1.11491  -1.10331  -1.10275  -1.08447  -1.06463
 Alpha  occ. eigenvalues --   -1.04827  -1.04621  -1.03703  -1.02091  -1.01135
 Alpha  occ. eigenvalues --   -0.99089  -0.96180  -0.91731  -0.89526  -0.88582
 Alpha  occ. eigenvalues --   -0.87293  -0.86120  -0.85367  -0.85120  -0.81625
 Alpha  occ. eigenvalues --   -0.81144  -0.78667  -0.77788  -0.76250  -0.75562
 Alpha  occ. eigenvalues --   -0.74597  -0.73346  -0.73313  -0.71440  -0.70576
 Alpha  occ. eigenvalues --   -0.70382  -0.69521  -0.69319  -0.68787  -0.68563
 Alpha  occ. eigenvalues --   -0.67095  -0.66281  -0.66153  -0.65534  -0.64263
 Alpha  occ. eigenvalues --   -0.63289  -0.62532  -0.62226  -0.61632  -0.61543
 Alpha  occ. eigenvalues --   -0.60670  -0.60460  -0.59785  -0.58738  -0.58541
 Alpha  occ. eigenvalues --   -0.58143  -0.57860  -0.57385  -0.56758  -0.56486
 Alpha  occ. eigenvalues --   -0.56122  -0.55874  -0.55660  -0.54926  -0.54841
 Alpha  occ. eigenvalues --   -0.54536  -0.54221  -0.54059  -0.53670  -0.53325
 Alpha  occ. eigenvalues --   -0.52972  -0.52523  -0.52256  -0.51854  -0.51416
 Alpha  occ. eigenvalues --   -0.50743  -0.50541  -0.50453  -0.49914  -0.49454
 Alpha  occ. eigenvalues --   -0.49017  -0.48766  -0.48471  -0.48008  -0.47981
 Alpha  occ. eigenvalues --   -0.47575  -0.47207  -0.46399  -0.46352  -0.45981
 Alpha  occ. eigenvalues --   -0.45653  -0.45558  -0.45437  -0.44812  -0.44541
 Alpha  occ. eigenvalues --   -0.44514  -0.44376  -0.43140  -0.42495  -0.41154
 Alpha  occ. eigenvalues --   -0.40286  -0.40179  -0.39783  -0.38799  -0.38562
 Alpha  occ. eigenvalues --   -0.37485  -0.37076  -0.36571  -0.36281  -0.35859
 Alpha  occ. eigenvalues --   -0.35452  -0.34969  -0.34644  -0.33998  -0.33426
 Alpha  occ. eigenvalues --   -0.33247  -0.32233
 Alpha virt. eigenvalues --   -0.12922  -0.11777  -0.11233  -0.10597  -0.09318
 Alpha virt. eigenvalues --   -0.08602  -0.08504  -0.07510  -0.05792  -0.05703
 Alpha virt. eigenvalues --   -0.05034  -0.04079  -0.03315  -0.02050  -0.01845

 Mulliken charges:
               1
     1  N   -0.714407
     2  H    0.315675
     3  H    0.325345
     4  C   -0.052084
     5  H    0.141836
     6  C    0.611416
     7  C   -0.358313
     8  H    0.174126
     9  H    0.162100
    10  O   -0.557517
    11  C    0.157516
    12  C   -0.256802
    13  H    0.134645
    14  C   -0.213928
    15  H    0.147855
    16  C   -0.122317
    17  H    0.142491
    18  C   -0.123440
    19  H    0.163382
    20  C   -0.139421
    21  H    0.160114
    22  N   -0.595004
    23  H    0.353765
    24  C   -0.078273
    25  H    0.204833
    26  C    0.650374
    27  C   -0.053432
    28  H    0.141890
    29  H    0.171439
    30  O   -0.567516
    31  O   -0.610824
    32  H    0.415471
    33  N   -0.617257
    34  H    0.386369
    35  C   -0.074904
    36  H    0.160074
    37  C    0.642844
    38  C   -0.085813
    39  H    0.171766
    40  H    0.192125
    41  O   -0.536111
    42  O   -0.673758
    43  H    0.433309
    44  N   -0.631274
    45  H    0.373989
    46  C   -0.042346
    47  H    0.197750
    48  C    0.639909
    49  C   -0.387792
    50  H    0.196290
    51  H    0.203654
    52  O   -0.537758
    53  C    0.610278
    54  O   -0.460015
    55  O   -0.564572
    56  N   -0.597620
    57  H    0.370306
    58  C   -0.060233
    59  H    0.216500
    60  C    0.597868
    61  C   -0.281955
    62  H    0.157969
    63  H    0.140005
    64  O   -0.456121
    65  C   -0.277078
    66  H    0.163612
    67  H    0.201313
    68  C   -0.172704
    69  H    0.165802
    70  H    0.202241
    71  N   -0.589063
    72  H    0.363158
    73  N   -0.769334
    74  H    0.388738
    75  H    0.375015
    76  N   -0.789134
    77  H    0.376207
    78  C    0.802140
    79  O   -0.558012
    80  H    0.426990
    81  H    0.453984
    82  H    0.421655
 Sum of Mulliken charges =   1.00000

 Dipole moment (field-independent basis, Debye):
    X=             -5.5418    Y=              2.2353    Z=              8.1702  Tot=             10.1223
 Quadrupole moment (field-independent basis, Debye-Ang):
   XX=           -198.1950   YY=           -232.6089   ZZ=           -180.6579
   XY=             -3.5961   XZ=             17.2232   YZ=              1.9888

 Normal termination of Gaussian 16 at Tue May 17 15:39:43 2022.
