 Gaussian 16, Revision C.01,
 Gaussian 16:  ES64L-G16RevC.01  3-Jul-2019

 ----------------------------------------------------------------------
 # B3LYP/6-31G* empiricaldispersion=gd3 guess=read geom=check nosymm in
 tegral(ultrafinegrid)
 ----------------------------------------------------------------------

 ------------------------------------------------------
 Candidate Structure: Conf:472 Charge calc in gas phase
 ------------------------------------------------------
 Structure from the checkpoint file:  "conf-472.chk"
 Charge =  1 Multiplicity = 1

                          Input orientation:
 ---------------------------------------------------------------------
 Center     Atomic      Atomic             Coordinates (Angstroms)
 Number     Number       Type             X           Y           Z
 ---------------------------------------------------------------------
      1          7           0       -5.052006   -4.876103   -0.110579
      2          1           0       -5.970791   -5.297940   -0.004200
      3          1           0       -4.382287   -5.627655   -0.256241
      4          6           0       -5.065916   -3.941477   -1.217351
      5          1           0       -5.272606   -4.392059   -2.205043
      6          6           0       -3.714097   -3.256606   -1.339739
      7          6           0       -6.167914   -2.858827   -0.955318
      8          1           0       -7.097268   -3.418392   -0.790189
      9          1           0       -5.923577   -2.352290   -0.017476
     10          8           0       -2.867595   -3.464481   -0.388874
     11          6           0       -6.351543   -1.867864   -2.083277
     12          6           0       -5.990381   -0.522893   -1.921500
     13          1           0       -5.594675   -0.185982   -0.969504
     14          6           0       -6.826209   -2.294369   -3.335814
     15          1           0       -7.130127   -3.330297   -3.473536
     16          6           0       -6.100429    0.374464   -2.986527
     17          1           0       -5.827232    1.415811   -2.840402
     18          6           0       -6.925046   -1.400476   -4.404281
     19          1           0       -7.298505   -1.745125   -5.364239
     20          6           0       -6.561011   -0.062134   -4.231123
     21          1           0       -6.647673    0.636612   -5.058183
     22          7           0       -3.482737   -2.534609   -2.418170
     23          1           0       -4.294666   -2.399010   -3.018657
     24          6           0       -2.342777   -1.650516   -2.631400
     25          1           0       -1.436426   -2.262298   -2.708443
     26          6           0       -2.196548   -0.706726   -1.406859
     27          6           0       -2.507910   -0.892769   -3.956133
     28          1           0       -3.325435   -0.163280   -3.858291
     29          1           0       -2.776504   -1.606742   -4.751389
     30          8           0       -3.104995   -0.607892   -0.582747
     31          8           0       -1.251750   -0.289677   -4.191817
     32          1           0       -1.346457    0.413398   -4.851354
     33          7           0       -0.977941   -0.163014   -1.273690
     34          1           0       -0.277015   -0.285198   -2.004192
     35          6           0       -0.416704    0.163527    0.025786
     36          1           0       -0.777047    1.134425    0.388850
     37          6           0        1.107453    0.286934   -0.198338
     38          6           0       -0.778909   -0.914598    1.069962
     39          1           0       -1.803210   -0.773971    1.418878
     40          1           0       -0.091617   -0.856040    1.918339
     41          8           0        1.610989    0.064644   -1.295579
     42          8           0       -0.666406   -2.216847    0.438159
     43          1           0       -0.360018   -2.857178    1.098903
     44          7           0        1.810909    0.657531    0.895342
     45          1           0        1.324667    1.021843    1.711882
     46          6           0        3.159828    1.186281    0.791332
     47          1           0        3.827300    0.421306    0.383425
     48          6           0        3.574322    1.600205    2.214260
     49          6           0        3.228620    2.440173   -0.135812
     50          1           0        4.242775    2.846692   -0.138034
     51          1           0        2.955286    2.127818   -1.145563
     52          8           0        2.720099    1.808372    3.073570
     53          6           0        2.234754    3.478991    0.336666
     54          8           0        1.030551    3.382422    0.212458
     55          8           0        2.835160    4.505605    0.972662
     56          7           0        4.901427    1.782510    2.395399
     57          1           0        5.515175    1.730908    1.588932
     58          6           0        5.425850    2.581206    3.497472
     59          1           0        4.595406    3.154148    3.923440
     60          6           0        6.434161    3.554382    2.895383
     61          6           0        6.066460    1.736427    4.616962
     62          1           0        6.455247    2.433044    5.367015
     63          1           0        6.921957    1.183203    4.203482
     64          8           0        6.828820    3.508577    1.748239
     65          6           0        5.068970    0.773849    5.267293
     66          1           0        4.687429    0.068471    4.518427
     67          1           0        4.206435    1.335895    5.641204
     68          6           0        5.683533   -0.023373    6.429642
     69          1           0        4.918168   -0.679369    6.856792
     70          1           0        6.485041   -0.677177    6.065924
     71          7           0        6.267939    0.795976    7.500048
     72          1           0        7.206415    1.113791    7.290589
     73          7           0        4.199554    1.405777    8.400369
     74          1           0        3.738827    2.104070    8.973853
     75          1           0        4.124490    0.478763    8.806799
     76          7           0        5.899321    2.979948    8.444266
     77          1           0        6.829027    3.181669    8.070650
     78          6           0        5.512538    1.798689    8.124935
     79          8           0        6.855674    4.452545    3.799747
     80          1           0        7.509317    5.028340    3.358406
     81          1           0       -2.054666   -2.873666   -0.276454
     82          1           0        2.128268    5.099422    1.291876
 ---------------------------------------------------------------------

 SCF Done:  E(RB3LYP) =  -2166.33536693     A.U. after    1 cycles

 Alpha  occ. eigenvalues --  -19.33866 -19.29816 -19.27803 -19.27628 -19.26786
 Alpha  occ. eigenvalues --  -19.23440 -19.22409 -19.21964 -19.21940 -19.21044
 Alpha  occ. eigenvalues --  -14.53042 -14.46215 -14.45255 -14.44773 -14.43168
 Alpha  occ. eigenvalues --  -14.39729 -14.38494 -14.32981 -10.46625 -10.40438
 Alpha  occ. eigenvalues --  -10.40310 -10.40232 -10.38896 -10.38016 -10.37002
 Alpha  occ. eigenvalues --  -10.36512 -10.36275 -10.35608 -10.34234 -10.33593
 Alpha  occ. eigenvalues --  -10.32355 -10.31773 -10.30815 -10.30185 -10.29350
 Alpha  occ. eigenvalues --  -10.29070 -10.28886 -10.28816 -10.28708 -10.28682
 Alpha  occ. eigenvalues --  -10.27853 -10.26193 -10.24334  -1.24273  -1.18866
 Alpha  occ. eigenvalues --   -1.18443  -1.16310  -1.15299  -1.14191  -1.13962
 Alpha  occ. eigenvalues --   -1.12849  -1.10198  -1.09989  -1.09439  -1.03416
 Alpha  occ. eigenvalues --   -1.02364  -1.01972  -1.01601  -1.01511  -0.95758
 Alpha  occ. eigenvalues --   -0.93278  -0.92047  -0.89386  -0.88702  -0.88306
 Alpha  occ. eigenvalues --   -0.86926  -0.85614  -0.84380  -0.83617  -0.81113
 Alpha  occ. eigenvalues --   -0.79854  -0.78757  -0.78325  -0.75929  -0.73942
 Alpha  occ. eigenvalues --   -0.73750  -0.72991  -0.70721  -0.70470  -0.70226
 Alpha  occ. eigenvalues --   -0.68715  -0.67929  -0.67155  -0.67128  -0.66627
 Alpha  occ. eigenvalues --   -0.66167  -0.65320  -0.64896  -0.63794  -0.62728
 Alpha  occ. eigenvalues --   -0.62446  -0.61379  -0.60141  -0.59453  -0.59221
 Alpha  occ. eigenvalues --   -0.58944  -0.58798  -0.57950  -0.57393  -0.57123
 Alpha  occ. eigenvalues --   -0.56947  -0.56299  -0.56022  -0.55830  -0.55618
 Alpha  occ. eigenvalues --   -0.55326  -0.55108  -0.55041  -0.54587  -0.54166
 Alpha  occ. eigenvalues --   -0.53833  -0.53727  -0.53418  -0.52674  -0.52356
 Alpha  occ. eigenvalues --   -0.51959  -0.51274  -0.50983  -0.50758  -0.50679
 Alpha  occ. eigenvalues --   -0.50199  -0.50162  -0.49993  -0.49149  -0.49015
 Alpha  occ. eigenvalues --   -0.48483  -0.47966  -0.47947  -0.47861  -0.47394
 Alpha  occ. eigenvalues --   -0.47172  -0.46825  -0.46264  -0.46047  -0.45279
 Alpha  occ. eigenvalues --   -0.45009  -0.44272  -0.44068  -0.44027  -0.43643
 Alpha  occ. eigenvalues --   -0.43525  -0.41978  -0.41513  -0.41151  -0.40121
 Alpha  occ. eigenvalues --   -0.39822  -0.39734  -0.39445  -0.37323  -0.37090
 Alpha  occ. eigenvalues --   -0.36200  -0.36096  -0.35782  -0.35517  -0.35125
 Alpha  occ. eigenvalues --   -0.35015  -0.34660  -0.34582  -0.34040  -0.31159
 Alpha  occ. eigenvalues --   -0.29996  -0.27176
 Alpha virt. eigenvalues --   -0.15613  -0.10790  -0.10610  -0.10284  -0.08332
 Alpha virt. eigenvalues --   -0.07457  -0.07134  -0.06576  -0.06128  -0.04271
 Alpha virt. eigenvalues --   -0.03328  -0.01932  -0.00145  -0.00084  -0.00005

 Mulliken charges:
               1
     1  N   -0.708276
     2  H    0.327863
     3  H    0.322516
     4  C   -0.082950
     5  H    0.167557
     6  C    0.666316
     7  C   -0.348105
     8  H    0.183523
     9  H    0.199127
    10  O   -0.574022
    11  C    0.095219
    12  C   -0.169168
    13  H    0.175024
    14  C   -0.203687
    15  H    0.143929
    16  C   -0.144353
    17  H    0.158017
    18  C   -0.129478
    19  H    0.159738
    20  C   -0.134395
    21  H    0.158015
    22  N   -0.569355
    23  H    0.387076
    24  C   -0.077789
    25  H    0.214410
    26  C    0.589442
    27  C   -0.061176
    28  H    0.171357
    29  H    0.158510
    30  O   -0.526511
    31  O   -0.610844
    32  H    0.425314
    33  N   -0.597955
    34  H    0.386272
    35  C   -0.035919
    36  H    0.218419
    37  C    0.634612
    38  C   -0.092645
    39  H    0.205184
    40  H    0.179838
    41  O   -0.525728
    42  O   -0.650803
    43  H    0.436006
    44  N   -0.620975
    45  H    0.360820
    46  C   -0.068389
    47  H    0.192113
    48  C    0.632807
    49  C   -0.363420
    50  H    0.194225
    51  H    0.220761
    52  O   -0.533476
    53  C    0.581337
    54  O   -0.472000
    55  O   -0.551499
    56  N   -0.599238
    57  H    0.353516
    58  C   -0.060030
    59  H    0.212210
    60  C    0.590590
    61  C   -0.270044
    62  H    0.170365
    63  H    0.138434
    64  O   -0.470205
    65  C   -0.266978
    66  H    0.135328
    67  H    0.185321
    68  C   -0.145041
    69  H    0.152749
    70  H    0.147079
    71  N   -0.580092
    72  H    0.311873
    73  N   -0.734920
    74  H    0.340285
    75  H    0.324924
    76  N   -0.628044
    77  H    0.264388
    78  C    0.543477
    79  O   -0.552269
    80  H    0.427528
    81  H    0.495543
    82  H    0.420827
 Sum of Mulliken charges =   1.00000

 Dipole moment (field-independent basis, Debye):
    X=             -6.9471    Y=             -8.1319    Z=             -5.4381  Tot=             11.9984
 Quadrupole moment (field-independent basis, Debye-Ang):
   XX=           -127.2141   YY=           -187.6530   ZZ=           -205.7981
   XY=             55.4482   XZ=             63.3525   YZ=              1.4767

 Normal termination of Gaussian 16 at Tue May 17 15:39:33 2022.
