 Gaussian 16, Revision C.01,
 Gaussian 16:  ES64L-G16RevC.01  3-Jul-2019

 ----------------------------------------------------------------------
 # B3LYP/6-31G* empiricaldispersion=gd3 guess=read geom=check nosymm in
 tegral(ultrafinegrid)
 ----------------------------------------------------------------------

 ------------------------------------------------------
 Candidate Structure: Conf:102 Charge calc in gas phase
 ------------------------------------------------------
 Structure from the checkpoint file:  "conf-102.chk"
 Charge =  1 Multiplicity = 1

                          Input orientation:
 ---------------------------------------------------------------------
 Center     Atomic      Atomic             Coordinates (Angstroms)
 Number     Number       Type             X           Y           Z
 ---------------------------------------------------------------------
      1          7           0       -4.909698   -2.967157   -1.129971
      2          1           0       -4.909946   -3.602579   -1.927681
      3          1           0       -5.481261   -3.402556   -0.409182
      4          6           0       -3.540352   -2.773414   -0.636402
      5          1           0       -3.622177   -2.199618    0.296630
      6          6           0       -2.809253   -1.889903   -1.656613
      7          6           0       -2.732613   -4.066502   -0.369738
      8          1           0       -3.420782   -4.778883    0.100604
      9          1           0       -2.431683   -4.487241   -1.334837
     10          8           0       -1.774498   -2.235173   -2.233678
     11          6           0       -1.519616   -3.907596    0.527235
     12          6           0       -0.262077   -3.535517    0.029192
     13          1           0       -0.157811   -3.324330   -1.028468
     14          6           0       -1.638139   -4.163159    1.901391
     15          1           0       -2.608287   -4.447176    2.303858
     16          6           0        0.847492   -3.464455    0.877422
     17          1           0        1.818446   -3.201869    0.464641
     18          6           0       -0.532977   -4.097411    2.751407
     19          1           0       -0.653455   -4.336028    3.804598
     20          6           0        0.722339   -3.765572    2.236027
     21          1           0        1.597209   -3.747335    2.880760
     22          7           0       -3.360751   -0.662952   -1.858139
     23          1           0       -4.287485   -0.489001   -1.482317
     24          6           0       -2.962744    0.169043   -2.986568
     25          1           0       -2.343526   -0.450256   -3.644025
     26          6           0       -2.091217    1.312828   -2.455300
     27          6           0       -4.188563    0.707715   -3.728937
     28          1           0       -4.770919   -0.136934   -4.109170
     29          1           0       -3.860243    1.315605   -4.582374
     30          8           0       -2.304066    2.504640   -2.663472
     31          8           0       -5.038183    1.432330   -2.853634
     32          1           0       -4.580878    2.269664   -2.668175
     33          7           0       -1.018287    0.887609   -1.721509
     34          1           0       -0.826526   -0.107100   -1.637348
     35          6           0        0.016555    1.811342   -1.333766
     36          1           0        0.193651    2.523996   -2.150177
     37          6           0        1.281814    1.046996   -0.970827
     38          6           0       -0.414906    2.631473   -0.094573
     39          1           0       -0.587812    1.960644    0.755448
     40          1           0       -1.329829    3.168322   -0.351758
     41          8           0        1.273351   -0.097453   -0.542028
     42          8           0        0.638246    3.587916    0.201172
     43          1           0        0.253802    4.326476    0.701913
     44          7           0        2.436703    1.794223   -1.037974
     45          1           0        2.379478    2.745052   -1.377488
     46          6           0        3.609005    1.373250   -0.315753
     47          1           0        3.624780    0.281011   -0.330603
     48          6           0        3.492383    1.791031    1.161808
     49          6           0        4.908698    1.899641   -0.960427
     50          1           0        4.795913    1.914774   -2.048876
     51          1           0        5.133386    2.928497   -0.652505
     52          8           0        2.658463    2.707956    1.544430
     53          6           0        6.088943    1.015506   -0.598854
     54          8           0        6.062107    0.183515    0.291825
     55          8           0        7.144336    1.253833   -1.373155
     56          7           0        4.215558    1.194582    2.068038
     57          1           0        4.936421    0.542748    1.729817
     58          6           0        4.025066    1.336731    3.520033
     59          1           0        3.703694    2.359320    3.731177
     60          6           0        5.381148    1.092828    4.175158
     61          6           0        2.948499    0.345219    4.044722
     62          1           0        2.739216    0.636609    5.079642
     63          1           0        3.369088   -0.667122    4.073898
     64          8           0        6.358440    0.692564    3.585036
     65          6           0        1.665602    0.378792    3.204617
     66          1           0        1.868348   -0.027018    2.207151
     67          1           0        1.339769    1.414397    3.062619
     68          6           0        0.487924   -0.409727    3.790865
     69          1           0        0.828449   -1.388858    4.144142
     70          1           0        0.063697    0.127003    4.642322
     71          7           0       -0.545794   -0.537189    2.773193
     72          1           0       -0.312385   -1.148338    1.998459
     73          7           0       -2.294850   -0.153113    4.303907
     74          1           0       -3.302178   -0.045217    4.358236
     75          1           0       -1.958481   -0.842301    4.968926
     76          7           0       -2.803323   -0.345686    2.050128
     77          1           0       -2.365561   -0.330722    1.128870
     78          6           0       -1.912720   -0.381486    2.981508
     79          8           0        5.320572    1.348115    5.488672
     80          1           0        6.194855    1.150115    5.876794
     81          1           0        1.944883    3.012009    0.898516
     82          1           0        7.877294    0.674254   -1.085052
 ---------------------------------------------------------------------

 SCF Done:  E(RB3LYP) =  -2166.35714340     A.U. after    2 cycles

 Alpha  occ. eigenvalues --  -19.35365 -19.33252 -19.32150 -19.31989 -19.28339
 Alpha  occ. eigenvalues --  -19.26579 -19.26011 -19.21694 -19.20945 -19.19539
 Alpha  occ. eigenvalues --  -14.53942 -14.50961 -14.45857 -14.43255 -14.42414
 Alpha  occ. eigenvalues --  -14.41214 -14.38966 -14.35067 -10.48371 -10.46680
 Alpha  occ. eigenvalues --  -10.44886 -10.42907 -10.40307 -10.38228 -10.38217
 Alpha  occ. eigenvalues --  -10.36849 -10.35969 -10.35926 -10.35747 -10.35175
 Alpha  occ. eigenvalues --  -10.31712 -10.31026 -10.30940 -10.30392 -10.29351
 Alpha  occ. eigenvalues --  -10.29166 -10.26110 -10.25851 -10.25730 -10.25695
 Alpha  occ. eigenvalues --  -10.25352 -10.25067 -10.24841  -1.26237  -1.24628
 Alpha  occ. eigenvalues --   -1.23130  -1.18487  -1.17761  -1.15868  -1.14513
 Alpha  occ. eigenvalues --   -1.13603  -1.11333  -1.11217  -1.08401  -1.07955
 Alpha  occ. eigenvalues --   -1.04565  -1.03019  -0.99843  -0.96308  -0.95889
 Alpha  occ. eigenvalues --   -0.95374  -0.92766  -0.91901  -0.91052  -0.89063
 Alpha  occ. eigenvalues --   -0.86933  -0.84424  -0.84231  -0.83415  -0.81059
 Alpha  occ. eigenvalues --   -0.80763  -0.78439  -0.77897  -0.77742  -0.76056
 Alpha  occ. eigenvalues --   -0.74543  -0.73771  -0.72467  -0.71365  -0.70704
 Alpha  occ. eigenvalues --   -0.70315  -0.69112  -0.68336  -0.67457  -0.66931
 Alpha  occ. eigenvalues --   -0.66484  -0.65884  -0.65163  -0.64275  -0.64098
 Alpha  occ. eigenvalues --   -0.63178  -0.62904  -0.62003  -0.61472  -0.61339
 Alpha  occ. eigenvalues --   -0.60668  -0.60334  -0.59822  -0.59273  -0.59089
 Alpha  occ. eigenvalues --   -0.58463  -0.58328  -0.58150  -0.57470  -0.56715
 Alpha  occ. eigenvalues --   -0.56498  -0.56243  -0.56085  -0.55193  -0.54338
 Alpha  occ. eigenvalues --   -0.54040  -0.53878  -0.53572  -0.53045  -0.52815
 Alpha  occ. eigenvalues --   -0.52448  -0.52282  -0.52150  -0.51906  -0.51682
 Alpha  occ. eigenvalues --   -0.51418  -0.50818  -0.50594  -0.50139  -0.49832
 Alpha  occ. eigenvalues --   -0.49357  -0.49230  -0.48636  -0.48295  -0.48094
 Alpha  occ. eigenvalues --   -0.47549  -0.47003  -0.46827  -0.45893  -0.45660
 Alpha  occ. eigenvalues --   -0.45507  -0.44969  -0.44295  -0.44089  -0.43994
 Alpha  occ. eigenvalues --   -0.43663  -0.43144  -0.42773  -0.42212  -0.42082
 Alpha  occ. eigenvalues --   -0.40988  -0.40539  -0.40300  -0.40179  -0.39717
 Alpha  occ. eigenvalues --   -0.39377  -0.36545  -0.35885  -0.34604  -0.33659
 Alpha  occ. eigenvalues --   -0.33620  -0.32795  -0.32614  -0.31670  -0.31376
 Alpha  occ. eigenvalues --   -0.29975  -0.29109
 Alpha virt. eigenvalues --   -0.17607  -0.13254  -0.12267  -0.11445  -0.07907
 Alpha virt. eigenvalues --   -0.07567  -0.07084  -0.06768  -0.05629  -0.04438
 Alpha virt. eigenvalues --   -0.04091  -0.03602  -0.02900  -0.02195  -0.01428

 Mulliken charges:
               1
     1  N   -0.720777
     2  H    0.310536
     3  H    0.317875
     4  C   -0.104421
     5  H    0.196426
     6  C    0.618914
     7  C   -0.354244
     8  H    0.141654
     9  H    0.167964
    10  O   -0.542360
    11  C    0.149809
    12  C   -0.187882
    13  H    0.172866
    14  C   -0.174963
    15  H    0.132497
    16  C   -0.144331
    17  H    0.125579
    18  C   -0.133762
    19  H    0.132667
    20  C   -0.146952
    21  H    0.121924
    22  N   -0.584731
    23  H    0.372322
    24  C   -0.094926
    25  H    0.198476
    26  C    0.632764
    27  C   -0.051574
    28  H    0.169838
    29  H    0.155178
    30  O   -0.539368
    31  O   -0.622162
    32  H    0.412723
    33  N   -0.631498
    34  H    0.380555
    35  C   -0.023258
    36  H    0.189909
    37  C    0.592185
    38  C   -0.082966
    39  H    0.198212
    40  H    0.218038
    41  O   -0.491004
    42  O   -0.668979
    43  H    0.445401
    44  N   -0.637242
    45  H    0.356840
    46  C   -0.045557
    47  H    0.248159
    48  C    0.619171
    49  C   -0.400611
    50  H    0.235147
    51  H    0.215764
    52  O   -0.590301
    53  C    0.626404
    54  O   -0.470018
    55  O   -0.535547
    56  N   -0.559514
    57  H    0.436144
    58  C   -0.077515
    59  H    0.220856
    60  C    0.596654
    61  C   -0.276778
    62  H    0.192571
    63  H    0.170293
    64  O   -0.442542
    65  C   -0.294899
    66  H    0.152387
    67  H    0.153830
    68  C   -0.134794
    69  H    0.146929
    70  H    0.178485
    71  N   -0.628999
    72  H    0.350954
    73  N   -0.744296
    74  H    0.345831
    75  H    0.324712
    76  N   -0.658655
    77  H    0.264337
    78  C    0.580710
    79  O   -0.552299
    80  H    0.439822
    81  H    0.495140
    82  H    0.444270
 Sum of Mulliken charges =   1.00000

 Dipole moment (field-independent basis, Debye):
    X=             14.5253    Y=              6.8351    Z=              6.5080  Tot=             17.3222
 Quadrupole moment (field-independent basis, Debye-Ang):
   XX=           -160.1652   YY=           -210.9093   ZZ=           -190.8837
   XY=             44.5877   XZ=             17.7644   YZ=              1.3200

 Normal termination of Gaussian 16 at Tue May 17 15:40:04 2022.
