 Gaussian 16, Revision C.01,
 Gaussian 16:  ES64L-G16RevC.01  3-Jul-2019

 -------------------------------------------------------------------
 # B3LYP/6-31G* guess=read geom=check nosymm integral(ultrafinegrid)
 -------------------------------------------------------------------

 ------------------------------------------------------
 Candidate Structure: Conf:796 Charge calc in gas phase
 ------------------------------------------------------
 Structure from the checkpoint file:  "conf-796.chk"
 Charge =  1 Multiplicity = 1

                          Input orientation:
 ---------------------------------------------------------------------
 Center     Atomic      Atomic             Coordinates (Angstroms)
 Number     Number       Type             X           Y           Z
 ---------------------------------------------------------------------
      1          7           0       -3.853449    3.403503    1.704877
      2          1           0       -4.758047    3.670317    2.081784
      3          1           0       -3.322743    4.260764    1.574569
      4          6           0       -3.155308    2.478373    2.601728
      5          1           0       -3.875891    1.973470    3.255126
      6          1           0       -2.422394    2.953852    3.266038
      7          6           0       -2.426057    1.365362    1.844513
      8          8           0       -1.666179    0.582802    2.435452
      9          7           0       -2.694894    1.306058    0.523558
     10          1           0       -3.356130    2.009906    0.195991
     11          6           0       -2.319147    0.180685   -0.337109
     12          1           0       -2.433455   -0.731792    0.261282
     13          6           0       -0.824139    0.278801   -0.709680
     14          6           0       -3.224009    0.133467   -1.573774
     15          1           0       -4.258160    0.281703   -1.234600
     16          1           0       -2.967681    0.981729   -2.219693
     17          8           0       -0.396591    0.476762   -1.852011
     18          6           0       -3.154156   -1.171473   -2.395803
     19          1           0       -2.100379   -1.358037   -2.642035
     20          6           0       -3.698943   -2.383075   -1.623069
     21          1           0       -4.752315   -2.235000   -1.353318
     22          1           0       -3.640964   -3.289076   -2.236382
     23          1           0       -3.143471   -2.582681   -0.699083
     24          6           0       -3.917321   -0.987750   -3.716374
     25          1           0       -4.978056   -0.774994   -3.532278
     26          1           0       -3.506377   -0.159195   -4.304625
     27          1           0       -3.864664   -1.894551   -4.328911
     28          7           0        0.035617    0.101107    0.325876
     29          1           0       -0.358751    0.084887    1.276523
     30          6           0        1.438871    0.363434    0.098642
     31          1           0        1.593733    1.437180   -0.094074
     32          6           0        1.860926   -0.339325   -1.179498
     33          6           0        2.325000   -0.020386    1.325808
     34          1           0        3.365406    0.113195    0.995973
     35          8           0        1.545703   -1.594432   -1.303437
     36          6           0        2.067297    0.980504    2.467391
     37          1           0        1.041454    0.914093    2.846448
     38          1           0        2.742202    0.767263    3.301956
     39          1           0        2.248061    2.013261    2.147477
     40          6           0        2.146046   -1.469301    1.801792
     41          1           0        1.127602   -1.653038    2.158608
     42          1           0        2.827272   -1.660037    2.636991
     43          1           0        2.364344   -2.200146    1.018443
     44          7           0        2.641321    0.281456   -2.046984
     45          1           0        2.819838    1.261509   -1.852122
     46          6           0        2.902019   -0.128790   -3.452457
     47          1           0        1.970644   -0.563629   -3.835931
     48          6           0        3.992492   -1.211207   -3.469270
     49          6           0        3.288711    1.099802   -4.280112
     50          1           0        2.542369    1.880886   -4.084109
     51          1           0        4.261858    1.463801   -3.931899
     52          8           0        5.141255   -1.074792   -3.779926
     53          6           0        3.327427    0.814782   -5.791464
     54          1           0        2.368843    0.369733   -6.090820
     55          1           0        4.105578    0.071837   -6.005052
     56          6           0        3.571804    2.076253   -6.635274
     57          1           0        3.414807    1.814284   -7.690233
     58          1           0        2.826056    2.845242   -6.397086
     59          6           0        4.970488    2.686707   -6.486351
     60          1           0        5.142675    2.984697   -5.443763
     61          1           0        5.726607    1.912733   -6.718063
     62          7           0        5.069239    3.897793   -7.301606
     63          1           0        5.967992    4.351503   -7.149365
     64          1           0        5.040240    3.654117   -8.290968
     65          8           0        3.460707   -2.402871   -3.047003
     66          1           0        2.041526   -2.057275   -2.023897
     67          1           0        4.166570   -3.080191   -3.025258
 ---------------------------------------------------------------------

 SCF Done:  E(RB3LYP) =  -1396.62404646     A.U. after    1 cycles

 Alpha  occ. eigenvalues --  -19.36303 -19.35609 -19.29246 -19.24154 -19.21713
 Alpha  occ. eigenvalues --  -14.55243 -14.47000 -14.45763 -14.42398 -14.38049
 Alpha  occ. eigenvalues --  -10.48901 -10.47147 -10.40106 -10.39736 -10.38419
 Alpha  occ. eigenvalues --  -10.37938 -10.33674 -10.32402 -10.31788 -10.31614
 Alpha  occ. eigenvalues --  -10.28989 -10.28408 -10.28160 -10.28029 -10.27586
 Alpha  occ. eigenvalues --  -10.27137 -10.26622 -10.25040 -10.24669  -1.27156
 Alpha  occ. eigenvalues --   -1.25389  -1.17137  -1.15770  -1.13147  -1.12153
 Alpha  occ. eigenvalues --   -1.04609  -1.02634  -0.98326  -0.95512  -0.94874
 Alpha  occ. eigenvalues --   -0.92221  -0.89658  -0.87987  -0.85679  -0.83848
 Alpha  occ. eigenvalues --   -0.81426  -0.79720  -0.78925  -0.78782  -0.76740
 Alpha  occ. eigenvalues --   -0.75869  -0.74799  -0.73876  -0.71999  -0.70172
 Alpha  occ. eigenvalues --   -0.69731  -0.67469  -0.67222  -0.66285  -0.65619
 Alpha  occ. eigenvalues --   -0.63926  -0.63554  -0.63078  -0.61181  -0.61165
 Alpha  occ. eigenvalues --   -0.60179  -0.59828  -0.58604  -0.58077  -0.57120
 Alpha  occ. eigenvalues --   -0.56932  -0.56572  -0.56145  -0.54855  -0.54312
 Alpha  occ. eigenvalues --   -0.54133  -0.53964  -0.53588  -0.53302  -0.52644
 Alpha  occ. eigenvalues --   -0.52413  -0.51668  -0.51018  -0.50590  -0.49740
 Alpha  occ. eigenvalues --   -0.49586  -0.49252  -0.48438  -0.48089  -0.47717
 Alpha  occ. eigenvalues --   -0.47398  -0.47122  -0.46803  -0.46556  -0.45817
 Alpha  occ. eigenvalues --   -0.45511  -0.45131  -0.44759  -0.44582  -0.44206
 Alpha  occ. eigenvalues --   -0.43693  -0.42273  -0.41822  -0.41271  -0.41161
 Alpha  occ. eigenvalues --   -0.40642  -0.40543  -0.38698  -0.37694  -0.37077
 Alpha  occ. eigenvalues --   -0.35016  -0.33851  -0.30333
 Alpha virt. eigenvalues --   -0.17211  -0.14779  -0.10262  -0.07688  -0.07414
 Alpha virt. eigenvalues --   -0.06206  -0.02750  -0.01664  -0.01554  -0.00416
 Alpha virt. eigenvalues --    0.00237   0.00568   0.01360   0.01725   0.02182

 Mulliken charges:
               1
     1  N   -0.747781
     2  H    0.334557
     3  H    0.326101
     4  C   -0.237242
     5  H    0.200365
     6  H    0.181150
     7  C    0.603270
     8  O   -0.558764
     9  N   -0.603243
    10  H    0.374593
    11  C   -0.056347
    12  H    0.189979
    13  C    0.653742
    14  C   -0.285581
    15  H    0.149722
    16  H    0.159402
    17  O   -0.548813
    18  C   -0.081249
    19  H    0.132366
    20  C   -0.453581
    21  H    0.153143
    22  H    0.157082
    23  H    0.140676
    24  C   -0.447663
    25  H    0.150957
    26  H    0.147763
    27  H    0.152557
    28  N   -0.641065
    29  H    0.412189
    30  C    0.002322
    31  H    0.164329
    32  C    0.664993
    33  C   -0.125806
    34  H    0.146026
    35  O   -0.548807
    36  C   -0.469242
    37  H    0.187513
    38  H    0.179170
    39  H    0.151923
    40  C   -0.452198
    41  H    0.177312
    42  H    0.175384
    43  H    0.151990
    44  N   -0.585595
    45  H    0.382993
    46  C   -0.075583
    47  H    0.221421
    48  C    0.634168
    49  C   -0.312910
    50  H    0.171506
    51  H    0.184564
    52  O   -0.393591
    53  C   -0.288621
    54  H    0.149443
    55  H    0.166247
    56  C   -0.257078
    57  H    0.149425
    58  H    0.156701
    59  C   -0.134754
    60  H    0.132728
    61  H    0.125071
    62  N   -0.715924
    63  H    0.307566
    64  H    0.302450
    65  O   -0.613025
    66  H    0.477901
    67  H    0.451699
 Sum of Mulliken charges =   1.00000

 Dipole moment (field-independent basis, Debye):
    X=              5.8750    Y=              1.9899    Z=             -6.4646  Tot=              8.9592
 Quadrupole moment (field-independent basis, Debye-Ang):
   XX=           -109.1852   YY=           -144.9674   ZZ=           -124.7709
   XY=            -16.6550   XZ=            -39.8862   YZ=             16.0441

 Normal termination of Gaussian 16 at Fri May 27 02:43:57 2022.
