 Gaussian 16, Revision C.01,
 Gaussian 16:  ES64L-G16RevC.01  3-Jul-2019

 -------------------------------------------------------------------
 # B3LYP/6-31G* guess=read geom=check nosymm integral(ultrafinegrid)
 -------------------------------------------------------------------

 ------------------------------------------------------
 Candidate Structure: Conf:549 Charge calc in gas phase
 ------------------------------------------------------
 Structure from the checkpoint file:  "conf-549.chk"
 Charge =  1 Multiplicity = 1

                          Input orientation:
 ---------------------------------------------------------------------
 Center     Atomic      Atomic             Coordinates (Angstroms)
 Number     Number       Type             X           Y           Z
 ---------------------------------------------------------------------
      1          7           0       -2.511357   -2.059683    4.313236
      2          1           0       -2.507576   -2.976403    3.870371
      3          1           0       -1.535694   -1.832452    4.493730
      4          6           0       -3.095225   -1.088277    3.415297
      5          1           0       -3.069174   -0.095235    3.883333
      6          1           0       -4.158596   -1.327398    3.274154
      7          6           0       -2.457823   -1.005495    2.019690
      8          8           0       -1.673548   -1.870134    1.608259
      9          7           0       -2.817965    0.059954    1.253000
     10          1           0       -3.452846    0.744919    1.644327
     11          6           0       -2.554759    0.145366   -0.189438
     12          1           0       -2.610165   -0.878225   -0.580299
     13          6           0       -1.111991    0.633507   -0.455814
     14          6           0       -3.587792    1.038880   -0.885402
     15          1           0       -3.514519    2.050214   -0.464087
     16          1           0       -3.288395    1.137942   -1.935329
     17          8           0       -0.861115    1.687991   -1.055308
     18          6           0       -5.047498    0.542301   -0.817601
     19          1           0       -5.332946    0.432446    0.239641
     20          6           0       -5.976116    1.596922   -1.438937
     21          1           0       -5.747987    1.743295   -2.502217
     22          1           0       -7.023797    1.287398   -1.363944
     23          1           0       -5.876127    2.567252   -0.938924
     24          6           0       -5.238511   -0.821308   -1.498832
     25          1           0       -4.942810   -0.776338   -2.555087
     26          1           0       -4.658065   -1.617823   -1.018539
     27          1           0       -6.290214   -1.124367   -1.464398
     28          7           0       -0.142438   -0.207537   -0.011112
     29          1           0       -0.464451   -1.025089    0.524842
     30          6           0        1.256647    0.203352    0.122212
     31          1           0        1.269552    1.253307    0.451277
     32          6           0        1.902653    0.244798   -1.256596
     33          6           0        1.988084   -0.647178    1.191581
     34          1           0        1.365256   -0.511070    2.086121
     35          8           0        2.989031   -0.431205   -1.572755
     36          6           0        2.032321   -2.153204    0.880786
     37          1           0        2.615435   -2.368993   -0.019142
     38          1           0        2.506946   -2.677569    1.716039
     39          1           0        1.033164   -2.584829    0.760600
     40          6           0        3.380259   -0.079210    1.514145
     41          1           0        4.088546   -0.231400    0.694259
     42          1           0        3.786501   -0.587225    2.393865
     43          1           0        3.338611    0.992156    1.743974
     44          7           0        1.450826    0.989701   -2.224249
     45          1           0        0.579649    1.532318   -2.067077
     46          6           0        2.261706    0.864817   -3.437566
     47          1           0        1.662864    0.397494   -4.226180
     48          6           0        3.294557   -0.149651   -2.978280
     49          6           0        2.889594    2.187703   -3.916255
     50          1           0        3.486658    2.618124   -3.102684
     51          1           0        3.587287    1.926974   -4.721209
     52          8           0        4.222978   -0.651612   -3.505775
     53          6           0        1.850928    3.202986   -4.410064
     54          1           0        1.148916    3.448306   -3.601882
     55          1           0        1.265391    2.757007   -5.227808
     56          6           0        2.503614    4.507861   -4.882670
     57          1           0        3.103356    4.923815   -4.062994
     58          1           0        3.187339    4.302151   -5.717841
     59          6           0        1.482332    5.569610   -5.316291
     60          1           0        2.033240    6.472333   -5.600568
     61          1           0        0.958711    5.226794   -6.224169
     62          7           0        0.564896    5.906692   -4.215913
     63          1           0        0.305506    6.888692   -4.262286
     64          1           0       -0.305182    5.387009   -4.303617
     65          8           0        1.407466   -2.033900   -3.623693
     66          1           0        2.034394   -2.641707   -4.046110
     67          1           0        0.595007   -2.554485   -3.532217
 ---------------------------------------------------------------------

 SCF Done:  E(RB3LYP) =  -1396.60777954     A.U. after    3 cycles

 Alpha  occ. eigenvalues --  -19.37714 -19.31028 -19.27247 -19.25878 -19.23713
 Alpha  occ. eigenvalues --  -14.54777 -14.48892 -14.48011 -14.40240 -14.39063
 Alpha  occ. eigenvalues --  -10.48450 -10.48026 -10.42137 -10.39955 -10.39523
 Alpha  occ. eigenvalues --  -10.39038 -10.35309 -10.32351 -10.32113 -10.31741
 Alpha  occ. eigenvalues --  -10.29145 -10.28970 -10.28794 -10.28556 -10.28502
 Alpha  occ. eigenvalues --  -10.28242 -10.26821 -10.26196 -10.25660  -1.29785
 Alpha  occ. eigenvalues --   -1.21506  -1.17410  -1.15108  -1.12891  -1.11819
 Alpha  occ. eigenvalues --   -1.06153  -1.04085  -0.97415  -0.95997  -0.95528
 Alpha  occ. eigenvalues --   -0.92729  -0.90943  -0.88420  -0.86319  -0.84290
 Alpha  occ. eigenvalues --   -0.80969  -0.79673  -0.79511  -0.78912  -0.76967
 Alpha  occ. eigenvalues --   -0.76607  -0.75065  -0.73341  -0.71924  -0.70228
 Alpha  occ. eigenvalues --   -0.69580  -0.67577  -0.66816  -0.66136  -0.65865
 Alpha  occ. eigenvalues --   -0.64863  -0.64479  -0.62487  -0.61243  -0.61213
 Alpha  occ. eigenvalues --   -0.60515  -0.59533  -0.59310  -0.58768  -0.57674
 Alpha  occ. eigenvalues --   -0.57433  -0.56851  -0.55652  -0.55391  -0.55015
 Alpha  occ. eigenvalues --   -0.54768  -0.54588  -0.53737  -0.53286  -0.52686
 Alpha  occ. eigenvalues --   -0.52166  -0.51904  -0.51239  -0.50966  -0.50551
 Alpha  occ. eigenvalues --   -0.50011  -0.49662  -0.49110  -0.48790  -0.48359
 Alpha  occ. eigenvalues --   -0.48185  -0.47066  -0.46939  -0.46277  -0.45897
 Alpha  occ. eigenvalues --   -0.45472  -0.45429  -0.45190  -0.44734  -0.44058
 Alpha  occ. eigenvalues --   -0.43266  -0.43027  -0.42538  -0.42164  -0.41880
 Alpha  occ. eigenvalues --   -0.41765  -0.41494  -0.40664  -0.39528  -0.37677
 Alpha  occ. eigenvalues --   -0.36770  -0.32778  -0.31398
 Alpha virt. eigenvalues --   -0.19231  -0.14040  -0.11957  -0.09193  -0.06434
 Alpha virt. eigenvalues --   -0.04002  -0.02865  -0.02573  -0.01510  -0.01103
 Alpha virt. eigenvalues --   -0.00477   0.00136   0.00738   0.01093   0.01522

 Mulliken charges:
               1
     1  N   -0.671646
     2  H    0.319709
     3  H    0.306053
     4  C   -0.249343
     5  H    0.174301
     6  H    0.194552
     7  C    0.584818
     8  O   -0.545397
     9  N   -0.592387
    10  H    0.350011
    11  C   -0.067778
    12  H    0.190350
    13  C    0.640504
    14  C   -0.285609
    15  H    0.158896
    16  H    0.158365
    17  O   -0.555584
    18  C   -0.080465
    19  H    0.121223
    20  C   -0.445422
    21  H    0.149674
    22  H    0.162831
    23  H    0.149638
    24  C   -0.455304
    25  H    0.146439
    26  H    0.144141
    27  H    0.168093
    28  N   -0.648206
    29  H    0.418447
    30  C   -0.060886
    31  H    0.214072
    32  C    0.703668
    33  C   -0.120343
    34  H    0.165625
    35  O   -0.453321
    36  C   -0.479025
    37  H    0.172020
    38  H    0.179578
    39  H    0.172427
    40  C   -0.473891
    41  H    0.172828
    42  H    0.182868
    43  H    0.157277
    44  N   -0.594537
    45  H    0.434543
    46  C   -0.058902
    47  H    0.252135
    48  C    0.643976
    49  C   -0.269206
    50  H    0.167578
    51  H    0.194473
    52  O   -0.372938
    53  C   -0.287052
    54  H    0.159675
    55  H    0.142569
    56  C   -0.233574
    57  H    0.150458
    58  H    0.140794
    59  C   -0.161105
    60  H    0.158506
    61  H    0.132285
    62  N   -0.723002
    63  H    0.315407
    64  H    0.299070
    65  O   -0.800767
    66  H    0.420617
    67  H    0.415194
 Sum of Mulliken charges =   1.00000

 Dipole moment (field-independent basis, Debye):
    X=              0.1481    Y=              2.6029    Z=             -8.0209  Tot=              8.4340
 Quadrupole moment (field-independent basis, Debye-Ang):
   XX=           -138.5254   YY=           -144.5594   ZZ=           -126.0954
   XY=              0.1456   XZ=             -8.0993   YZ=            -12.8612

 Normal termination of Gaussian 16 at Fri May 27 02:44:21 2022.
