 Gaussian 16, Revision C.01,
 Gaussian 16:  ES64L-G16RevC.01  3-Jul-2019

 -------------------------------------------------------------------
 # B3LYP/6-31G* guess=read geom=check nosymm integral(ultrafinegrid)
 -------------------------------------------------------------------

 ------------------------------------------------------
 Candidate Structure: Conf:578 Charge calc in gas phase
 ------------------------------------------------------
 Structure from the checkpoint file:  "conf-578.chk"
 Charge =  1 Multiplicity = 1

                          Input orientation:
 ---------------------------------------------------------------------
 Center     Atomic      Atomic             Coordinates (Angstroms)
 Number     Number       Type             X           Y           Z
 ---------------------------------------------------------------------
      1          7           0       -3.308458   -1.159307    3.854020
      2          1           0       -2.865955   -2.049065    3.632328
      3          1           0       -2.588213   -0.589991    4.293703
      4          6           0       -3.771360   -0.531084    2.636388
      5          1           0       -4.214153    0.445181    2.874024
      6          1           0       -4.584091   -1.136120    2.210604
      7          6           0       -2.712787   -0.354184    1.536471
      8          8           0       -1.623738   -0.941299    1.581249
      9          7           0       -3.048904    0.464085    0.502761
     10          1           0       -3.947482    0.930044    0.528129
     11          6           0       -2.295210    0.536190   -0.756436
     12          1           0       -1.917899   -0.473130   -0.959037
     13          6           0       -1.054606    1.441326   -0.590007
     14          6           0       -3.187488    1.013979   -1.907126
     15          1           0       -3.540542    2.028278   -1.678121
     16          1           0       -2.553128    1.115011   -2.796269
     17          8           0       -0.891811    2.515128   -1.178773
     18          6           0       -4.384919    0.100865   -2.245435
     19          1           0       -5.011557   -0.003252   -1.346602
     20          6           0       -5.244558    0.765562   -3.331585
     21          1           0       -4.677197    0.884404   -4.263297
     22          1           0       -6.127140    0.157833   -3.556724
     23          1           0       -5.590892    1.758348   -3.021449
     24          6           0       -3.948602   -1.306643   -2.679271
     25          1           0       -3.294612   -1.260830   -3.559608
     26          1           0       -3.412518   -1.844157   -1.888549
     27          1           0       -4.819962   -1.913108   -2.947684
     28          7           0       -0.108487    0.960726    0.252985
     29          1           0       -0.338846    0.119057    0.793945
     30          6           0        1.037153    1.774821    0.586721
     31          1           0        0.708679    2.719949    1.045027
     32          6           0        1.777278    2.177865   -0.663194
     33          6           0        1.992266    1.061707    1.603208
     34          1           0        2.840987    1.746671    1.736946
     35          8           0        1.952304    1.341706   -1.656755
     36          6           0        1.282979    0.924971    2.961788
     37          1           0        0.437415    0.230551    2.912670
     38          1           0        1.988084    0.533242    3.701328
     39          1           0        0.916452    1.891094    3.327246
     40          6           0        2.531409   -0.287643    1.105567
     41          1           0        1.727795   -1.015210    0.950858
     42          1           0        3.207586   -0.703317    1.858862
     43          1           0        3.095011   -0.200716    0.171941
     44          7           0        2.403621    3.316769   -0.830654
     45          1           0        2.320199    4.095999   -0.188389
     46          6           0        3.130960    3.376252   -2.107370
     47          1           0        2.664051    4.133526   -2.742993
     48          6           0        2.767603    2.016808   -2.684357
     49          6           0        4.651308    3.586452   -1.976471
     50          1           0        5.048025    3.510401   -2.996516
     51          1           0        4.825357    4.621085   -1.654613
     52          8           0        3.076338    1.451654   -3.670157
     53          6           0        5.361736    2.594010   -1.049318
     54          1           0        5.115248    1.560514   -1.321933
     55          1           0        5.015938    2.736233   -0.014988
     56          6           0        6.888770    2.736701   -1.087097
     57          1           0        7.237906    2.607735   -2.122016
     58          1           0        7.185942    3.750089   -0.785547
     59          6           0        7.599745    1.720650   -0.183666
     60          1           0        8.684340    1.916786   -0.219418
     61          1           0        7.287664    1.882500    0.856371
     62          7           0        7.226332    0.347780   -0.548993
     63          1           0        7.663511    0.099197   -1.436423
     64          1           0        7.602794   -0.305557    0.135727
     65          8           0        0.554860    3.397493   -3.380576
     66          1           0       -0.199946    3.199594   -2.794911
     67          1           0        0.260225    3.168449   -4.274469
 ---------------------------------------------------------------------

 SCF Done:  E(RB3LYP) =  -1396.61215501     A.U. after    2 cycles

 Alpha  occ. eigenvalues --  -19.37399 -19.30602 -19.25351 -19.24553 -19.23488
 Alpha  occ. eigenvalues --  -14.56269 -14.48376 -14.47827 -14.40094 -14.39588
 Alpha  occ. eigenvalues --  -10.49067 -10.47791 -10.41544 -10.39741 -10.39512
 Alpha  occ. eigenvalues --  -10.39223 -10.34973 -10.33468 -10.32212 -10.31550
 Alpha  occ. eigenvalues --  -10.29329 -10.29257 -10.29078 -10.28900 -10.28740
 Alpha  occ. eigenvalues --  -10.28354 -10.27744 -10.25810 -10.25483  -1.29690
 Alpha  occ. eigenvalues --   -1.21257  -1.16998  -1.14828  -1.12498  -1.10270
 Alpha  occ. eigenvalues --   -1.06012  -1.03904  -0.97253  -0.96490  -0.95851
 Alpha  occ. eigenvalues --   -0.92938  -0.90787  -0.88783  -0.86389  -0.84599
 Alpha  occ. eigenvalues --   -0.81155  -0.80384  -0.79802  -0.78750  -0.77795
 Alpha  occ. eigenvalues --   -0.76714  -0.75642  -0.72882  -0.71482  -0.70510
 Alpha  occ. eigenvalues --   -0.69547  -0.68225  -0.67746  -0.65961  -0.65486
 Alpha  occ. eigenvalues --   -0.64151  -0.63603  -0.62424  -0.61917  -0.60400
 Alpha  occ. eigenvalues --   -0.59995  -0.59362  -0.58829  -0.58509  -0.58406
 Alpha  occ. eigenvalues --   -0.56996  -0.56812  -0.56493  -0.55744  -0.55056
 Alpha  occ. eigenvalues --   -0.54366  -0.54343  -0.53964  -0.53558  -0.53163
 Alpha  occ. eigenvalues --   -0.52122  -0.51707  -0.51141  -0.50993  -0.50558
 Alpha  occ. eigenvalues --   -0.49945  -0.49238  -0.49013  -0.48432  -0.48013
 Alpha  occ. eigenvalues --   -0.47938  -0.47177  -0.46705  -0.46466  -0.46060
 Alpha  occ. eigenvalues --   -0.45875  -0.45532  -0.45432  -0.45200  -0.43893
 Alpha  occ. eigenvalues --   -0.43526  -0.43003  -0.42569  -0.41913  -0.41642
 Alpha  occ. eigenvalues --   -0.41531  -0.40527  -0.40157  -0.39015  -0.37482
 Alpha  occ. eigenvalues --   -0.36442  -0.32623  -0.31955
 Alpha virt. eigenvalues --   -0.19002  -0.13528  -0.11503  -0.08980  -0.07737
 Alpha virt. eigenvalues --   -0.04171  -0.02859  -0.02683  -0.02322  -0.01820
 Alpha virt. eigenvalues --   -0.00880  -0.00646   0.00172   0.00253   0.01136

 Mulliken charges:
               1
     1  N   -0.673244
     2  H    0.320198
     3  H    0.305690
     4  C   -0.248799
     5  H    0.172482
     6  H    0.195305
     7  C    0.588430
     8  O   -0.544789
     9  N   -0.594138
    10  H    0.349473
    11  C   -0.070427
    12  H    0.197263
    13  C    0.652498
    14  C   -0.288766
    15  H    0.156888
    16  H    0.151895
    17  O   -0.558353
    18  C   -0.080732
    19  H    0.121053
    20  C   -0.445447
    21  H    0.149177
    22  H    0.163520
    23  H    0.148502
    24  C   -0.455207
    25  H    0.149747
    26  H    0.146904
    27  H    0.167272
    28  N   -0.640212
    29  H    0.413690
    30  C   -0.022701
    31  H    0.181707
    32  C    0.732620
    33  C   -0.130748
    34  H    0.151902
    35  O   -0.449903
    36  C   -0.467288
    37  H    0.180633
    38  H    0.182231
    39  H    0.155804
    40  C   -0.465482
    41  H    0.177697
    42  H    0.180736
    43  H    0.169602
    44  N   -0.604926
    45  H    0.387322
    46  C   -0.050353
    47  H    0.270470
    48  C    0.646727
    49  C   -0.281999
    50  H    0.197399
    51  H    0.172073
    52  O   -0.365214
    53  C   -0.281486
    54  H    0.181824
    55  H    0.126322
    56  C   -0.263723
    57  H    0.147109
    58  H    0.146555
    59  C   -0.143622
    60  H    0.142069
    61  H    0.140520
    62  N   -0.726163
    63  H    0.305219
    64  H    0.311871
    65  O   -0.832481
    66  H    0.437062
    67  H    0.410743
 Sum of Mulliken charges =   1.00000

 Dipole moment (field-independent basis, Debye):
    X=              6.5071    Y=             10.5843    Z=             -1.5871  Tot=             12.5255
 Quadrupole moment (field-independent basis, Debye-Ang):
   XX=            -84.7537   YY=           -139.2695   ZZ=           -157.8596
   XY=             27.1331   XZ=              4.6460   YZ=             -6.0575

 Normal termination of Gaussian 16 at Fri May 27 02:44:12 2022.
