 Gaussian 16, Revision C.01,
 Gaussian 16:  ES64L-G16RevC.01  3-Jul-2019

 -------------------------------------------------------------------
 # B3LYP/6-31G* guess=read geom=check nosymm integral(ultrafinegrid)
 -------------------------------------------------------------------

 ------------------------------------------------------
 Candidate Structure: Conf:727 Charge calc in gas phase
 ------------------------------------------------------
 Structure from the checkpoint file:  "conf-727.chk"
 Charge =  1 Multiplicity = 1

                          Input orientation:
 ---------------------------------------------------------------------
 Center     Atomic      Atomic             Coordinates (Angstroms)
 Number     Number       Type             X           Y           Z
 ---------------------------------------------------------------------
      1          7           0       -4.069057    0.424199    3.074923
      2          1           0       -4.998547    0.250053    2.699973
      3          1           0       -4.184442    0.628783    4.063411
      4          6           0       -3.197022   -0.735393    2.873140
      5          1           0       -3.713323   -1.702907    2.817198
      6          1           0       -2.491562   -0.811717    3.708715
      7          6           0       -2.355793   -0.611187    1.601897
      8          8           0       -1.719858   -1.578273    1.153370
      9          7           0       -2.333640    0.619114    1.050616
     10          1           0       -2.918805    1.305757    1.525218
     11          6           0       -1.769660    0.910438   -0.266300
     12          1           0       -1.984194    0.043647   -0.906082
     13          6           0       -0.228565    1.017175   -0.208534
     14          6           0       -2.392326    2.179230   -0.861778
     15          1           0       -2.138789    3.028498   -0.214699
     16          1           0       -1.897579    2.380535   -1.818451
     17          8           0        0.380387    2.048133   -0.536991
     18          6           0       -3.917822    2.134302   -1.089980
     19          1           0       -4.414882    1.984336   -0.119726
     20          6           0       -4.379137    3.489393   -1.650458
     21          1           0       -3.904016    3.692859   -2.618515
     22          1           0       -5.465331    3.502182   -1.793460
     23          1           0       -4.122841    4.310348   -0.970392
     24          6           0       -4.344684    0.987219   -2.018164
     25          1           0       -3.853307    1.072310   -2.996175
     26          1           0       -4.108989   -0.000904   -1.605274
     27          1           0       -5.425957    1.015191   -2.191216
     28          7           0        0.423305   -0.111094    0.176523
     29          1           0       -0.162787   -0.908039    0.466918
     30          6           0        1.852022   -0.077344    0.497043
     31          1           0        2.064353    0.916996    0.914949
     32          6           0        2.639441   -0.134232   -0.819788
     33          6           0        2.293535   -1.143454    1.527875
     34          1           0        2.248232   -2.128370    1.046634
     35          8           0        3.344355   -1.201436   -1.077765
     36          6           0        3.741424   -0.877085    1.978933
     37          1           0        3.815287    0.082240    2.505980
     38          1           0        4.060614   -1.658977    2.674333
     39          1           0        4.455244   -0.870689    1.150002
     40          6           0        1.360832   -1.151403    2.750774
     41          1           0        1.298176   -0.155382    3.206791
     42          1           0        1.764026   -1.834676    3.504712
     43          1           0        0.350392   -1.489387    2.508372
     44          7           0        2.548044    0.884445   -1.637404
     45          1           0        1.883848    1.616085   -1.297989
     46          6           0        3.020781    0.982101   -3.041255
     47          1           0        2.838636    0.010609   -3.521480
     48          6           0        4.538588    1.215761   -3.066941
     49          6           0        2.235673    2.079999   -3.768193
     50          1           0        2.209229    2.974133   -3.132261
     51          1           0        2.801427    2.364484   -4.660526
     52          8           0        5.115313    2.188765   -3.457601
     53          6           0        0.816624    1.632912   -4.153302
     54          1           0        0.348435    1.102030   -3.313264
     55          1           0        0.884947    0.907717   -4.976569
     56          6           0       -0.092358    2.801782   -4.551218
     57          1           0       -0.285706    3.429496   -3.672295
     58          1           0        0.416468    3.439126   -5.288715
     59          6           0       -1.436185    2.331985   -5.119376
     60          1           0       -1.266262    1.872963   -6.110209
     61          1           0       -1.841747    1.538314   -4.477031
     62          7           0       -2.408026    3.429348   -5.121139
     63          1           0       -2.080109    4.184377   -5.723159
     64          1           0       -3.287776    3.113077   -5.525693
     65          8           0        5.175215    0.100032   -2.582405
     66          1           0        4.011855   -1.046944   -1.790966
     67          1           0        6.141823    0.249865   -2.596432
 ---------------------------------------------------------------------

 SCF Done:  E(RB3LYP) =  -1396.63216400     A.U. after    1 cycles

 Alpha  occ. eigenvalues --  -19.36973 -19.35455 -19.29148 -19.25292 -19.22176
 Alpha  occ. eigenvalues --  -14.54579 -14.48246 -14.46174 -14.42560 -14.39309
 Alpha  occ. eigenvalues --  -10.48568 -10.47073 -10.41425 -10.39816 -10.38828
 Alpha  occ. eigenvalues --  -10.38043 -10.34242 -10.31884 -10.31630 -10.31541
 Alpha  occ. eigenvalues --  -10.29544 -10.29229 -10.28374 -10.27662 -10.27614
 Alpha  occ. eigenvalues --  -10.27362 -10.27275 -10.25296 -10.24021  -1.27399
 Alpha  occ. eigenvalues --   -1.25282  -1.17033  -1.16823  -1.13655  -1.11810
 Alpha  occ. eigenvalues --   -1.05197  -1.03075  -0.98554  -0.96134  -0.95249
 Alpha  occ. eigenvalues --   -0.92511  -0.89701  -0.88361  -0.85689  -0.84194
 Alpha  occ. eigenvalues --   -0.81589  -0.79747  -0.79125  -0.78820  -0.76656
 Alpha  occ. eigenvalues --   -0.75866  -0.74106  -0.73482  -0.72665  -0.70435
 Alpha  occ. eigenvalues --   -0.69224  -0.68366  -0.67812  -0.66769  -0.65618
 Alpha  occ. eigenvalues --   -0.64869  -0.63790  -0.63318  -0.62359  -0.61248
 Alpha  occ. eigenvalues --   -0.60333  -0.59551  -0.58598  -0.58206  -0.57669
 Alpha  occ. eigenvalues --   -0.57202  -0.56606  -0.55962  -0.55450  -0.55085
 Alpha  occ. eigenvalues --   -0.54500  -0.54067  -0.53587  -0.53349  -0.52940
 Alpha  occ. eigenvalues --   -0.52354  -0.51761  -0.51357  -0.50874  -0.50407
 Alpha  occ. eigenvalues --   -0.50019  -0.49900  -0.48547  -0.48158  -0.47914
 Alpha  occ. eigenvalues --   -0.47510  -0.46953  -0.46905  -0.46431  -0.46069
 Alpha  occ. eigenvalues --   -0.45615  -0.45313  -0.44596  -0.44452  -0.44220
 Alpha  occ. eigenvalues --   -0.44201  -0.42975  -0.42525  -0.41793  -0.40904
 Alpha  occ. eigenvalues --   -0.40633  -0.40360  -0.39715  -0.38903  -0.37302
 Alpha  occ. eigenvalues --   -0.35615  -0.34254  -0.31524
 Alpha virt. eigenvalues --   -0.18085  -0.14312  -0.11206  -0.08117  -0.07453
 Alpha virt. eigenvalues --   -0.03985  -0.02912  -0.02161  -0.01778  -0.01153
 Alpha virt. eigenvalues --   -0.00041   0.00503   0.01161   0.01472   0.01658

 Mulliken charges:
               1
     1  N   -0.749609
     2  H    0.329558
     3  H    0.333619
     4  C   -0.238573
     5  H    0.189832
     6  H    0.191219
     7  C    0.609029
     8  O   -0.557101
     9  N   -0.589171
    10  H    0.379945
    11  C   -0.063155
    12  H    0.187960
    13  C    0.640554
    14  C   -0.294314
    15  H    0.159723
    16  H    0.172240
    17  O   -0.558881
    18  C   -0.078589
    19  H    0.122157
    20  C   -0.462939
    21  H    0.176839
    22  H    0.150464
    23  H    0.145258
    24  C   -0.463599
    25  H    0.150212
    26  H    0.142262
    27  H    0.161684
    28  N   -0.634578
    29  H    0.406919
    30  C   -0.044043
    31  H    0.205584
    32  C    0.633235
    33  C   -0.110894
    34  H    0.169163
    35  O   -0.550753
    36  C   -0.464836
    37  H    0.161008
    38  H    0.182207
    39  H    0.145923
    40  C   -0.479000
    41  H    0.152343
    42  H    0.174183
    43  H    0.180829
    44  N   -0.577557
    45  H    0.437853
    46  C   -0.096336
    47  H    0.209237
    48  C    0.630847
    49  C   -0.304429
    50  H    0.184496
    51  H    0.197617
    52  O   -0.385186
    53  C   -0.280116
    54  H    0.134598
    55  H    0.153053
    56  C   -0.271012
    57  H    0.169575
    58  H    0.146826
    59  C   -0.140406
    60  H    0.128813
    61  H    0.138227
    62  N   -0.717541
    63  H    0.306244
    64  H    0.310731
    65  O   -0.619361
    66  H    0.477190
    67  H    0.452723
 Sum of Mulliken charges =   1.00000

 Dipole moment (field-independent basis, Debye):
    X=              4.6836    Y=              1.2715    Z=             -4.2672  Tot=              6.4623
 Quadrupole moment (field-independent basis, Debye-Ang):
   XX=            -95.9069   YY=           -177.6352   ZZ=           -113.9635
   XY=            -11.3144   XZ=            -24.6720   YZ=            -10.8506

 Normal termination of Gaussian 16 at Fri May 27 02:43:59 2022.
