 Gaussian 16, Revision C.01,
 Gaussian 16:  ES64L-G16RevC.01  3-Jul-2019

 -------------------------------------------------------------------
 # B3LYP/6-31G* guess=read geom=check nosymm integral(ultrafinegrid)
 -------------------------------------------------------------------

 ------------------------------------------------------
 Candidate Structure: Conf:876 Charge calc in gas phase
 ------------------------------------------------------
 Structure from the checkpoint file:  "conf-876.chk"
 Charge =  1 Multiplicity = 1

                          Input orientation:
 ---------------------------------------------------------------------
 Center     Atomic      Atomic             Coordinates (Angstroms)
 Number     Number       Type             X           Y           Z
 ---------------------------------------------------------------------
      1          7           0       -3.929482    0.241260    3.116742
      2          1           0       -4.914472    0.132316    3.339034
      3          1           0       -3.454942    0.479364    3.983717
      4          6           0       -3.377979   -0.982280    2.528413
      5          1           0       -4.182920   -1.592371    2.103028
      6          1           0       -2.848447   -1.629636    3.239142
      7          6           0       -2.416745   -0.692248    1.373492
      8          8           0       -1.752054   -1.597554    0.845876
      9          7           0       -2.368495    0.597018    0.980739
     10          1           0       -2.989212    1.221892    1.494727
     11          6           0       -1.724977    1.032406   -0.259414
     12          1           0       -1.886190    0.235092   -0.996065
     13          6           0       -0.195479    1.143802   -0.060959
     14          6           0       -2.343701    2.349221   -0.745356
     15          1           0       -3.432240    2.267316   -0.625671
     16          1           0       -2.001950    3.155089   -0.085849
     17          8           0        0.415239    2.221467   -0.107042
     18          6           0       -2.037779    2.722657   -2.211480
     19          1           0       -0.948262    2.680348   -2.351274
     20          6           0       -2.695673    1.759980   -3.212694
     21          1           0       -3.788094    1.778528   -3.112119
     22          1           0       -2.455377    2.048657   -4.241937
     23          1           0       -2.368464    0.721474   -3.083076
     24          6           0       -2.484486    4.167798   -2.479541
     25          1           0       -3.565885    4.278811   -2.330465
     26          1           0       -1.979489    4.873694   -1.810471
     27          1           0       -2.262990    4.462137   -3.511480
     28          7           0        0.441358   -0.040680    0.143736
     29          1           0       -0.156376   -0.870743    0.268413
     30          6           0        1.845690   -0.066289    0.554797
     31          1           0        2.024487    0.821465    1.176246
     32          6           0        2.681200    0.134943   -0.713170
     33          6           0        2.242800   -1.321762    1.363417
     34          1           0        2.169754   -2.193725    0.701514
     35          8           0        3.258573   -0.909247   -1.236193
     36          6           0        3.694731   -1.195863    1.858441
     37          1           0        3.803337   -0.346480    2.544200
     38          1           0        3.977292   -2.098931    2.407428
     39          1           0        4.415405   -1.075281    1.043527
     40          6           0        1.295221   -1.528218    2.556662
     41          1           0        1.274427   -0.640898    3.201976
     42          1           0        1.654615   -2.367061    3.160912
     43          1           0        0.273111   -1.759891    2.247270
     44          7           0        2.735310    1.336958   -1.234373
     45          1           0        2.101055    2.008491   -0.759890
     46          6           0        3.254442    1.734169   -2.570817
     47          1           0        2.878915    1.008952   -3.304182
     48          6           0        4.789759    1.648169   -2.566640
     49          6           0        2.759127    3.141553   -2.918776
     50          1           0        1.682346    3.178866   -2.710924
     51          1           0        3.249130    3.860170   -2.251049
     52          8           0        5.565083    2.556578   -2.487393
     53          6           0        3.014785    3.506369   -4.387290
     54          1           0        2.537627    2.773860   -5.049501
     55          1           0        4.092260    3.474612   -4.593459
     56          6           0        2.480994    4.898339   -4.749008
     57          1           0        1.421384    4.973212   -4.461175
     58          1           0        3.013220    5.668837   -4.175647
     59          6           0        2.614913    5.206016   -6.246291
     60          1           0        2.344824    6.261441   -6.417840
     61          1           0        3.666429    5.101238   -6.541730
     62          7           0        1.830826    4.253440   -7.043982
     63          1           0        0.841859    4.495978   -6.992124
     64          1           0        2.084501    4.332349   -8.026928
     65          8           0        5.177477    0.332971   -2.658135
     66          1           0        3.912271   -0.681321   -1.945929
     67          1           0        6.154462    0.285577   -2.626184
 ---------------------------------------------------------------------

 SCF Done:  E(RB3LYP) =  -1396.63407442     A.U. after    1 cycles

 Alpha  occ. eigenvalues --  -19.36776 -19.35477 -19.29065 -19.25137 -19.22055
 Alpha  occ. eigenvalues --  -14.54578 -14.48185 -14.46121 -14.42584 -14.38605
 Alpha  occ. eigenvalues --  -10.48436 -10.46966 -10.41268 -10.39391 -10.38715
 Alpha  occ. eigenvalues --  -10.37808 -10.34233 -10.31871 -10.31530 -10.30921
 Alpha  occ. eigenvalues --  -10.28394 -10.28247 -10.28095 -10.27954 -10.27700
 Alpha  occ. eigenvalues --  -10.27564 -10.26554 -10.25739 -10.25318  -1.27255
 Alpha  occ. eigenvalues --   -1.25223  -1.16966  -1.16626  -1.13545  -1.11703
 Alpha  occ. eigenvalues --   -1.05145  -1.02999  -0.98553  -0.95472  -0.94838
 Alpha  occ. eigenvalues --   -0.92352  -0.90235  -0.87420  -0.85538  -0.84120
 Alpha  occ. eigenvalues --   -0.81161  -0.79726  -0.79149  -0.78742  -0.76826
 Alpha  occ. eigenvalues --   -0.76500  -0.74534  -0.73038  -0.71587  -0.70054
 Alpha  occ. eigenvalues --   -0.69396  -0.67732  -0.67067  -0.66526  -0.65601
 Alpha  occ. eigenvalues --   -0.64626  -0.63782  -0.63342  -0.62891  -0.60964
 Alpha  occ. eigenvalues --   -0.60260  -0.60185  -0.58490  -0.58168  -0.57174
 Alpha  occ. eigenvalues --   -0.56710  -0.56500  -0.55528  -0.55513  -0.54582
 Alpha  occ. eigenvalues --   -0.54287  -0.54034  -0.53771  -0.53140  -0.52357
 Alpha  occ. eigenvalues --   -0.52071  -0.51972  -0.51234  -0.50421  -0.50286
 Alpha  occ. eigenvalues --   -0.49988  -0.49697  -0.48614  -0.48300  -0.47517
 Alpha  occ. eigenvalues --   -0.47221  -0.47181  -0.46476  -0.46436  -0.45830
 Alpha  occ. eigenvalues --   -0.45509  -0.45331  -0.44818  -0.44480  -0.44417
 Alpha  occ. eigenvalues --   -0.43088  -0.42117  -0.41913  -0.41830  -0.41462
 Alpha  occ. eigenvalues --   -0.41354  -0.41225  -0.39388  -0.38793  -0.37402
 Alpha  occ. eigenvalues --   -0.35556  -0.34129  -0.30923
 Alpha virt. eigenvalues --   -0.17739  -0.14471  -0.11015  -0.07936  -0.07244
 Alpha virt. eigenvalues --   -0.03889  -0.02193  -0.01880  -0.01252  -0.00087
 Alpha virt. eigenvalues --    0.00193   0.00901   0.01538   0.01675   0.02281

 Mulliken charges:
               1
     1  N   -0.748451
     2  H    0.335082
     3  H    0.327825
     4  C   -0.239289
     5  H    0.200843
     6  H    0.183716
     7  C    0.609204
     8  O   -0.557107
     9  N   -0.597747
    10  H    0.375368
    11  C   -0.049283
    12  H    0.187670
    13  C    0.637814
    14  C   -0.285238
    15  H    0.151685
    16  H    0.166350
    17  O   -0.553578
    18  C   -0.087936
    19  H    0.126666
    20  C   -0.453284
    21  H    0.156611
    22  H    0.156515
    23  H    0.140097
    24  C   -0.447644
    25  H    0.154049
    26  H    0.152401
    27  H    0.149049
    28  N   -0.633199
    29  H    0.406080
    30  C   -0.038024
    31  H    0.199930
    32  C    0.631022
    33  C   -0.111996
    34  H    0.170095
    35  O   -0.552141
    36  C   -0.465149
    37  H    0.161019
    38  H    0.182844
    39  H    0.144452
    40  C   -0.478919
    41  H    0.150444
    42  H    0.174094
    43  H    0.183527
    44  N   -0.585865
    45  H    0.430707
    46  C   -0.072271
    47  H    0.210711
    48  C    0.628401
    49  C   -0.317069
    50  H    0.178127
    51  H    0.185228
    52  O   -0.389153
    53  C   -0.275649
    54  H    0.173297
    55  H    0.155580
    56  C   -0.257609
    57  H    0.131886
    58  H    0.147232
    59  C   -0.148030
    60  H    0.136683
    61  H    0.148092
    62  N   -0.722118
    63  H    0.298848
    64  H    0.311685
    65  O   -0.615206
    66  H    0.479482
    67  H    0.451547
 Sum of Mulliken charges =   1.00000

 Dipole moment (field-independent basis, Debye):
    X=              5.7658    Y=              4.2631    Z=             -3.6725  Tot=              8.0564
 Quadrupole moment (field-independent basis, Debye-Ang):
   XX=           -101.0731   YY=           -157.3078   ZZ=           -114.6819
   XY=             -2.8027   XZ=            -35.7239   YZ=            -29.4999

 Normal termination of Gaussian 16 at Fri May 27 02:44:00 2022.
