 Gaussian 16, Revision C.01,
 Gaussian 16:  ES64L-G16RevC.01  3-Jul-2019

 -------------------------------------------------------------------
 # B3LYP/6-31G* guess=read geom=check nosymm integral(ultrafinegrid)
 -------------------------------------------------------------------

 ------------------------------------------------------
 Candidate Structure: Conf:962 Charge calc in gas phase
 ------------------------------------------------------
 Structure from the checkpoint file:  "conf-962.chk"
 Charge =  1 Multiplicity = 1

                          Input orientation:
 ---------------------------------------------------------------------
 Center     Atomic      Atomic             Coordinates (Angstroms)
 Number     Number       Type             X           Y           Z
 ---------------------------------------------------------------------
      1          7           0       -3.012094   -4.062523    0.952900
      2          1           0       -4.025421   -4.127205    0.888206
      3          1           0       -2.704276   -4.856573    1.507268
      4          6           0       -2.402284   -4.077687   -0.379333
      5          1           0       -2.989105   -4.590120   -1.152650
      6          1           0       -1.436526   -4.594973   -0.335403
      7          6           0       -2.127011   -2.665430   -0.905171
      8          8           0       -1.850634   -2.462246   -2.088795
      9          7           0       -2.181136   -1.685666    0.037471
     10          1           0       -2.530019   -2.011431    0.939581
     11          6           0       -2.253414   -0.272917   -0.315322
     12          1           0       -2.771782   -0.184783   -1.276365
     13          6           0       -0.883574    0.365857   -0.565126
     14          6           0       -3.007782    0.537333    0.760247
     15          1           0       -2.476807    0.424979    1.716528
     16          1           0       -2.931077    1.594056    0.480791
     17          8           0       -0.801010    1.499316   -1.054374
     18          6           0       -4.493696    0.164977    0.948904
     19          1           0       -4.556218   -0.901669    1.212984
     20          6           0       -5.072271    0.966849    2.125260
     21          1           0       -5.043973    2.043701    1.917839
     22          1           0       -6.116272    0.691471    2.307962
     23          1           0       -4.511677    0.788472    3.050284
     24          6           0       -5.320925    0.389526   -0.325353
     25          1           0       -5.267693    1.436915   -0.647880
     26          1           0       -4.987568   -0.236781   -1.161066
     27          1           0       -6.374837    0.152570   -0.144972
     28          7           0        0.216864   -0.352917   -0.222941
     29          1           0        0.088762   -1.300786    0.107496
     30          6           0        1.564449    0.203881   -0.308353
     31          1           0        1.495388    1.248745    0.019743
     32          6           0        1.951422    0.288303   -1.779770
     33          6           0        2.560703   -0.528404    0.622313
     34          1           0        2.113874   -0.405728    1.618276
     35          8           0        2.871162   -0.469244   -2.336735
     36          6           0        2.709590   -2.035937    0.354449
     37          1           0        3.175544   -2.237261   -0.613444
     38          1           0        3.343610   -2.476870    1.129888
     39          1           0        1.753672   -2.573012    0.387710
     40          6           0        3.924058    0.182804    0.636921
     41          1           0        4.453867    0.070815   -0.314811
     42          1           0        4.558385   -0.251243    1.415389
     43          1           0        3.820831    1.252180    0.854936
     44          7           0        1.379796    1.118342   -2.605165
     45          1           0        0.541901    1.631392   -2.284407
     46          6           0        1.835648    0.917960   -3.983314
     47          1           0        1.003739    0.495928   -4.556997
     48          6           0        2.847283   -0.197963   -3.780989
     49          6           0        2.420911    2.168338   -4.665890
     50          1           0        2.710309    1.856407   -5.676558
     51          1           0        1.605371    2.892106   -4.784681
     52          8           0        3.559126   -0.786783   -4.513669
     53          6           0        3.611579    2.814251   -3.946454
     54          1           0        4.431127    2.085911   -3.860262
     55          1           0        3.322674    3.089466   -2.922149
     56          6           0        4.115748    4.063990   -4.680096
     57          1           0        4.394320    3.792990   -5.708911
     58          1           0        3.312782    4.807016   -4.760422
     59          6           0        5.313945    4.724871   -3.990862
     60          1           0        5.028340    5.009031   -2.969496
     61          1           0        6.130412    3.984093   -3.893466
     62          7           0        5.687336    5.947977   -4.701362
     63          1           0        6.396911    6.455970   -4.177075
     64          1           0        6.111020    5.715721   -5.598719
     65          8           0        0.355397   -1.565928   -3.543316
     66          1           0       -0.479905   -1.764741   -3.069912
     67          1           0        0.485976   -2.338496   -4.113143
 ---------------------------------------------------------------------

 SCF Done:  E(RB3LYP) =  -1396.62192890     A.U. after    1 cycles

 Alpha  occ. eigenvalues --  -19.37288 -19.30696 -19.25407 -19.23845 -19.23597
 Alpha  occ. eigenvalues --  -14.54492 -14.50345 -14.47394 -14.43820 -14.37904
 Alpha  occ. eigenvalues --  -10.48175 -10.47593 -10.42221 -10.40315 -10.39294
 Alpha  occ. eigenvalues --  -10.38951 -10.35002 -10.33163 -10.32937 -10.31769
 Alpha  occ. eigenvalues --  -10.29277 -10.29268 -10.29252 -10.29073 -10.28489
 Alpha  occ. eigenvalues --  -10.28330 -10.26700 -10.25882 -10.25560  -1.29364
 Alpha  occ. eigenvalues --   -1.21163  -1.17385  -1.15141  -1.11523  -1.09507
 Alpha  occ. eigenvalues --   -1.07002  -1.04277  -0.99805  -0.95676  -0.94916
 Alpha  occ. eigenvalues --   -0.92905  -0.90890  -0.88420  -0.86319  -0.84350
 Alpha  occ. eigenvalues --   -0.80908  -0.80539  -0.80270  -0.78991  -0.76824
 Alpha  occ. eigenvalues --   -0.76671  -0.75352  -0.73306  -0.71406  -0.70697
 Alpha  occ. eigenvalues --   -0.69549  -0.67872  -0.67565  -0.66193  -0.65646
 Alpha  occ. eigenvalues --   -0.64610  -0.62927  -0.62744  -0.61454  -0.61327
 Alpha  occ. eigenvalues --   -0.60385  -0.59305  -0.58745  -0.58307  -0.57759
 Alpha  occ. eigenvalues --   -0.57118  -0.56492  -0.56307  -0.55618  -0.55348
 Alpha  occ. eigenvalues --   -0.54764  -0.54104  -0.53831  -0.53422  -0.53390
 Alpha  occ. eigenvalues --   -0.52920  -0.52546  -0.51840  -0.51456  -0.50491
 Alpha  occ. eigenvalues --   -0.50337  -0.49560  -0.49080  -0.48175  -0.47970
 Alpha  occ. eigenvalues --   -0.47760  -0.47179  -0.46760  -0.46329  -0.46110
 Alpha  occ. eigenvalues --   -0.45815  -0.45470  -0.45251  -0.45047  -0.43701
 Alpha  occ. eigenvalues --   -0.43332  -0.42430  -0.42287  -0.41735  -0.41614
 Alpha  occ. eigenvalues --   -0.41528  -0.40457  -0.40036  -0.39468  -0.38684
 Alpha  occ. eigenvalues --   -0.36955  -0.35495  -0.30180
 Alpha virt. eigenvalues --   -0.18986  -0.13676  -0.11303  -0.09764  -0.05290
 Alpha virt. eigenvalues --   -0.04483  -0.02857  -0.02446  -0.01663  -0.00593
 Alpha virt. eigenvalues --   -0.00326   0.00470   0.01024   0.01253   0.01784

 Mulliken charges:
               1
     1  N   -0.752093
     2  H    0.333134
     3  H    0.335440
     4  C   -0.241075
     5  H    0.194723
     6  H    0.189175
     7  C    0.586710
     8  O   -0.537575
     9  N   -0.633815
    10  H    0.379746
    11  C   -0.022230
    12  H    0.202117
    13  C    0.638557
    14  C   -0.298670
    15  H    0.143073
    16  H    0.183103
    17  O   -0.560314
    18  C   -0.080050
    19  H    0.121309
    20  C   -0.446237
    21  H    0.155364
    22  H    0.161971
    23  H    0.147952
    24  C   -0.455562
    25  H    0.157098
    26  H    0.144773
    27  H    0.164750
    28  N   -0.610526
    29  H    0.367132
    30  C   -0.055613
    31  H    0.214836
    32  C    0.711962
    33  C   -0.118003
    34  H    0.168729
    35  O   -0.458006
    36  C   -0.472032
    37  H    0.188100
    38  H    0.183617
    39  H    0.139110
    40  C   -0.472789
    41  H    0.169485
    42  H    0.184975
    43  H    0.161316
    44  N   -0.578083
    45  H    0.426378
    46  C   -0.056670
    47  H    0.263104
    48  C    0.635776
    49  C   -0.274147
    50  H    0.194055
    51  H    0.180710
    52  O   -0.365496
    53  C   -0.290545
    54  H    0.152421
    55  H    0.137421
    56  C   -0.251751
    57  H    0.142986
    58  H    0.162535
    59  C   -0.135323
    60  H    0.139595
    61  H    0.118688
    62  N   -0.714153
    63  H    0.308808
    64  H    0.301514
    65  O   -0.859503
    66  H    0.441086
    67  H    0.406925
 Sum of Mulliken charges =   1.00000

 Dipole moment (field-independent basis, Debye):
    X=              2.1213    Y=             -3.0702    Z=             -4.0043  Tot=              5.4736
 Quadrupole moment (field-independent basis, Debye-Ang):
   XX=           -116.3067   YY=           -140.4438   ZZ=           -142.3928
   XY=             33.4764   XZ=            -23.3541   YZ=            -17.0140

 Normal termination of Gaussian 16 at Fri May 27 02:43:47 2022.
