 Gaussian 16, Revision C.01,
 Gaussian 16:  ES64L-G16RevC.01  3-Jul-2019

 -------------------------------------------------------------------
 # B3LYP/6-31G* guess=read geom=check nosymm integral(ultrafinegrid)
 -------------------------------------------------------------------

 ------------------------------------------------------
 Candidate Structure: Conf:950 Charge calc in gas phase
 ------------------------------------------------------
 Structure from the checkpoint file:  "conf-950.chk"
 Charge =  1 Multiplicity = 1

                          Input orientation:
 ---------------------------------------------------------------------
 Center     Atomic      Atomic             Coordinates (Angstroms)
 Number     Number       Type             X           Y           Z
 ---------------------------------------------------------------------
      1          7           0       -2.582681   -2.561374    3.829261
      2          1           0       -2.269656   -3.358517    3.278699
      3          1           0       -1.749892   -2.177648    4.271220
      4          6           0       -3.191323   -1.579049    2.959477
      5          1           0       -3.471961   -0.694779    3.546195
      6          1           0       -4.130460   -1.989261    2.561710
      7          6           0       -2.344768   -1.145303    1.753356
      8          8           0       -1.367951   -1.804654    1.371895
      9          7           0       -2.739602   -0.014076    1.110625
     10          1           0       -3.536009    0.499775    1.467506
     11          6           0       -2.222894    0.377292   -0.208156
     12          1           0       -2.020750   -0.554074   -0.748936
     13          6           0       -0.868454    1.104034   -0.058736
     14          6           0       -3.269291    1.214353   -0.954194
     15          1           0       -4.224525    0.677109   -0.876742
     16          1           0       -3.389061    2.171451   -0.431602
     17          8           0       -0.704181    2.299276   -0.336287
     18          6           0       -2.984489    1.494452   -2.445438
     19          1           0       -2.052264    2.070250   -2.504429
     20          6           0       -2.815261    0.208836   -3.271160
     21          1           0       -3.691827   -0.444672   -3.178429
     22          1           0       -2.702505    0.450234   -4.334691
     23          1           0       -1.933069   -0.367206   -2.966004
     24          6           0       -4.111989    2.364684   -3.021650
     25          1           0       -5.072976    1.835907   -2.993427
     26          1           0       -4.225747    3.297637   -2.458112
     27          1           0       -3.909796    2.626821   -4.065883
     28          7           0        0.144741    0.315739    0.388758
     29          1           0       -0.093488   -0.646999    0.657799
     30          6           0        1.454604    0.878002    0.703822
     31          1           0        1.301537    1.856071    1.179115
     32          6           0        2.113727    1.164297   -0.633948
     33          6           0        2.308324   -0.012889    1.633410
     34          1           0        2.523223   -0.949164    1.101592
     35          8           0        3.026789    0.375401   -1.163331
     36          6           0        3.640122    0.683591    1.962546
     37          1           0        3.470171    1.623936    2.501074
     38          1           0        4.243920    0.039534    2.608304
     39          1           0        4.240236    0.897642    1.072065
     40          6           0        1.541592   -0.342789    2.924416
     41          1           0        1.248855    0.572515    3.453550
     42          1           0        2.190088   -0.917808    3.592507
     43          1           0        0.644743   -0.940609    2.740611
     44          7           0        1.787759    2.175100   -1.390957
     45          1           0        0.933930    2.701257   -1.150540
     46          6           0        2.489562    2.139851   -2.676844
     47          1           0        1.763050    1.981330   -3.479978
     48          6           0        3.309874    0.869219   -2.515195
     49          6           0        3.361189    3.378078   -2.959912
     50          1           0        4.066318    3.511044   -2.131969
     51          1           0        3.954527    3.144565   -3.852398
     52          8           0        4.092295    0.322415   -3.207025
     53          6           0        2.529003    4.648954   -3.191385
     54          1           0        1.936587    4.874988   -2.292691
     55          1           0        1.810162    4.458291   -3.999934
     56          6           0        3.380932    5.880282   -3.549499
     57          1           0        4.001808    5.654551   -4.428557
     58          1           0        2.701857    6.688002   -3.852816
     59          6           0        4.275581    6.397056   -2.404565
     60          1           0        3.650894    6.586371   -1.520282
     61          1           0        4.998479    5.625022   -2.109875
     62          7           0        5.033295    7.612407   -2.681051
     63          1           0        5.659209    7.473556   -3.472532
     64          1           0        4.407165    8.374529   -2.935683
     65          8           0        0.810380   -0.462335   -2.935067
     66          1           0        0.291709   -0.476723   -3.754833
     67          1           0        1.100598   -1.382144   -2.826817
 ---------------------------------------------------------------------

 SCF Done:  E(RB3LYP) =  -1396.60801332     A.U. after    2 cycles

 Alpha  occ. eigenvalues --  -19.38312 -19.31687 -19.28566 -19.25786 -19.23684
 Alpha  occ. eigenvalues --  -14.55509 -14.49156 -14.48058 -14.40235 -14.38685
 Alpha  occ. eigenvalues --  -10.48921 -10.48674 -10.42072 -10.40499 -10.39926
 Alpha  occ. eigenvalues --  -10.39023 -10.35249 -10.32886 -10.32555 -10.31715
 Alpha  occ. eigenvalues --  -10.30382 -10.29273 -10.29210 -10.29042 -10.28829
 Alpha  occ. eigenvalues --  -10.28533 -10.27762 -10.27181 -10.26027  -1.30361
 Alpha  occ. eigenvalues --   -1.22154  -1.17353  -1.15047  -1.14082  -1.12500
 Alpha  occ. eigenvalues --   -1.06324  -1.04112  -0.97397  -0.96460  -0.95709
 Alpha  occ. eigenvalues --   -0.93285  -0.91302  -0.89173  -0.86532  -0.84763
 Alpha  occ. eigenvalues --   -0.81222  -0.80030  -0.79561  -0.78879  -0.77704
 Alpha  occ. eigenvalues --   -0.77348  -0.75385  -0.73892  -0.72045  -0.70507
 Alpha  occ. eigenvalues --   -0.69760  -0.68745  -0.68082  -0.66416  -0.66017
 Alpha  occ. eigenvalues --   -0.65565  -0.64532  -0.63527  -0.63056  -0.61534
 Alpha  occ. eigenvalues --   -0.60856  -0.60024  -0.59421  -0.58517  -0.58427
 Alpha  occ. eigenvalues --   -0.57383  -0.56647  -0.56177  -0.56000  -0.55702
 Alpha  occ. eigenvalues --   -0.55116  -0.54648  -0.53898  -0.53071  -0.52533
 Alpha  occ. eigenvalues --   -0.52263  -0.51956  -0.51728  -0.51421  -0.50926
 Alpha  occ. eigenvalues --   -0.50747  -0.50178  -0.49583  -0.49330  -0.49176
 Alpha  occ. eigenvalues --   -0.48451  -0.47260  -0.46947  -0.46709  -0.46451
 Alpha  occ. eigenvalues --   -0.46168  -0.45914  -0.45585  -0.45386  -0.45163
 Alpha  occ. eigenvalues --   -0.44766  -0.43890  -0.43401  -0.42881  -0.42470
 Alpha  occ. eigenvalues --   -0.42241  -0.42205  -0.40261  -0.39463  -0.37674
 Alpha  occ. eigenvalues --   -0.36782  -0.32727  -0.30735
 Alpha virt. eigenvalues --   -0.19778  -0.14698  -0.11819  -0.09121  -0.08156
 Alpha virt. eigenvalues --   -0.04370  -0.03015  -0.02503  -0.01984  -0.01689
 Alpha virt. eigenvalues --   -0.01149  -0.00391  -0.00029   0.00110   0.00762

 Mulliken charges:
               1
     1  N   -0.675091
     2  H    0.320357
     3  H    0.307940
     4  C   -0.247517
     5  H    0.172452
     6  H    0.195624
     7  C    0.594127
     8  O   -0.547025
     9  N   -0.599464
    10  H    0.349742
    11  C   -0.060548
    12  H    0.193934
    13  C    0.661717
    14  C   -0.288998
    15  H    0.152059
    16  H    0.163161
    17  O   -0.559236
    18  C   -0.077386
    19  H    0.131361
    20  C   -0.469286
    21  H    0.160665
    22  H    0.153631
    23  H    0.126561
    24  C   -0.448617
    25  H    0.154202
    26  H    0.154981
    27  H    0.154031
    28  N   -0.630514
    29  H    0.403555
    30  C   -0.035936
    31  H    0.202654
    32  C    0.701585
    33  C   -0.119823
    34  H    0.166996
    35  O   -0.457206
    36  C   -0.470157
    37  H    0.163493
    38  H    0.187470
    39  H    0.155678
    40  C   -0.475592
    41  H    0.157180
    42  H    0.179293
    43  H    0.173234
    44  N   -0.581047
    45  H    0.424001
    46  C   -0.061215
    47  H    0.237249
    48  C    0.634686
    49  C   -0.268722
    50  H    0.173270
    51  H    0.195563
    52  O   -0.358333
    53  C   -0.283506
    54  H    0.143460
    55  H    0.151815
    56  C   -0.271865
    57  H    0.142334
    58  H    0.150536
    59  C   -0.142570
    60  H    0.143952
    61  H    0.141099
    62  N   -0.697583
    63  H    0.302882
    64  H    0.303477
    65  O   -0.794423
    66  H    0.419459
    67  H    0.420195
 Sum of Mulliken charges =   1.00000

 Dipole moment (field-independent basis, Debye):
    X=              2.2785    Y=              6.5197    Z=             -6.1760  Tot=              9.2651
 Quadrupole moment (field-independent basis, Debye-Ang):
   XX=           -143.8963   YY=           -148.5599   ZZ=           -133.9505
   XY=             11.1677   XZ=             -9.2629   YZ=            -22.1832

 Normal termination of Gaussian 16 at Fri May 27 02:44:14 2022.
