 Gaussian 16, Revision C.01,
 Gaussian 16:  ES64L-G16RevC.01  3-Jul-2019

 -------------------------------------------------------------------
 # B3LYP/6-31G* guess=read geom=check nosymm integral(ultrafinegrid)
 -------------------------------------------------------------------

 ------------------------------------------------------
 Candidate Structure: Conf:538 Charge calc in gas phase
 ------------------------------------------------------
 Structure from the checkpoint file:  "conf-538.chk"
 Charge =  1 Multiplicity = 1

                          Input orientation:
 ---------------------------------------------------------------------
 Center     Atomic      Atomic             Coordinates (Angstroms)
 Number     Number       Type             X           Y           Z
 ---------------------------------------------------------------------
      1          7           0       -3.851343    1.746019    2.843508
      2          1           0       -4.804872    1.505583    2.583081
      3          1           0       -3.911747    2.325965    3.675567
      4          6           0       -3.057686    0.540597    3.095847
      5          1           0       -3.633401   -0.335941    3.421078
      6          1           0       -2.329420    0.741399    3.890132
      7          6           0       -2.255005    0.109493    1.867374
      8          8           0       -1.690571   -0.994664    1.821298
      9          7           0       -2.183378    1.028369    0.882566
     10          1           0       -2.706463    1.884344    1.063997
     11          6           0       -1.636234    0.755298   -0.445209
     12          1           0       -1.908282   -0.278418   -0.696755
     13          6           0       -0.090715    0.793016   -0.431345
     14          6           0       -2.210826    1.725052   -1.484513
     15          1           0       -1.915277    2.745393   -1.208824
     16          1           0       -1.715372    1.522288   -2.441559
     17          8           0        0.567749    1.600698   -1.103345
     18          6           0       -3.739918    1.655150   -1.680134
     19          1           0       -4.224986    1.859057   -0.714135
     20          6           0       -4.180936    2.754154   -2.659006
     21          1           0       -3.737308    2.597777   -3.650609
     22          1           0       -5.269387    2.756458   -2.780130
     23          1           0       -3.879720    3.748767   -2.310437
     24          6           0       -4.211149    0.274805   -2.162465
     25          1           0       -3.730792    0.005776   -3.112336
     26          1           0       -3.996423   -0.520127   -1.438807
     27          1           0       -5.293431    0.274235   -2.330402
     28          7           0        0.500382   -0.157796    0.339812
     29          1           0       -0.123284   -0.752091    0.905977
     30          6           0        1.938570   -0.115971    0.606084
     31          1           0        2.236424    0.941031    0.631366
     32          6           0        2.641014   -0.717929   -0.616307
     33          6           0        2.350443   -0.775530    1.941578
     34          1           0        2.177139   -1.855739    1.859107
     35          8           0        3.131915   -1.920476   -0.511407
     36          6           0        3.846278   -0.533165    2.211171
     37          1           0        4.053596    0.536949    2.335073
     38          1           0        4.140861   -1.034180    3.137981
     39          1           0        4.491925   -0.919125    1.416094
     40          6           0        1.508527   -0.230660    3.107233
     41          1           0        1.577988    0.862646    3.168600
     42          1           0        1.889388   -0.639091    4.048504
     43          1           0        0.455017   -0.510921    3.030111
     44          7           0        2.671169   -0.011111   -1.719924
     45          1           0        2.123558    0.867909   -1.639532
     46          6           0        2.997247   -0.452706   -3.099543
     47          1           0        2.540714   -1.443735   -3.239001
     48          6           0        4.505892   -0.662887   -3.306648
     49          6           0        2.393352    0.527687   -4.118072
     50          1           0        2.671050    0.154960   -5.110110
     51          1           0        1.303683    0.445981   -4.041918
     52          8           0        5.184330   -0.197870   -4.176309
     53          6           0        2.836922    1.995245   -3.976363
     54          1           0        3.930812    2.040181   -3.960718
     55          1           0        2.481243    2.411399   -3.023583
     56          6           0        2.324815    2.895675   -5.113284
     57          1           0        2.763454    3.892715   -4.996638
     58          1           0        2.689451    2.508195   -6.075938
     59          6           0        0.802069    3.065412   -5.168896
     60          1           0        0.319370    2.089126   -5.369262
     61          1           0        0.443899    3.393189   -4.183728
     62          7           0        0.455612    4.106338   -6.137692
     63          1           0        0.684922    3.796926   -7.081380
     64          1           0       -0.548245    4.276107   -6.131007
     65          8           0        4.988507   -1.553274   -2.379940
     66          1           0        3.760995   -2.131823   -1.245887
     67          1           0        5.939278   -1.708012   -2.550964
 ---------------------------------------------------------------------

 SCF Done:  E(RB3LYP) =  -1396.62875585     A.U. after    1 cycles

 Alpha  occ. eigenvalues --  -19.36855 -19.35708 -19.29289 -19.25354 -19.22369
 Alpha  occ. eigenvalues --  -14.54635 -14.48359 -14.46428 -14.42772 -14.38181
 Alpha  occ. eigenvalues --  -10.48556 -10.47309 -10.41519 -10.40019 -10.39034
 Alpha  occ. eigenvalues --  -10.37990 -10.34544 -10.32072 -10.31651 -10.31441
 Alpha  occ. eigenvalues --  -10.28664 -10.28519 -10.28473 -10.28327 -10.28002
 Alpha  occ. eigenvalues --  -10.27745 -10.26441 -10.25768 -10.25328  -1.27415
 Alpha  occ. eigenvalues --   -1.25508  -1.17192  -1.16866  -1.13856  -1.11877
 Alpha  occ. eigenvalues --   -1.05335  -1.03323  -0.98764  -0.95459  -0.94932
 Alpha  occ. eigenvalues --   -0.92516  -0.90305  -0.87788  -0.85932  -0.84423
 Alpha  occ. eigenvalues --   -0.81134  -0.79819  -0.79395  -0.78850  -0.76583
 Alpha  occ. eigenvalues --   -0.76478  -0.74607  -0.74238  -0.72313  -0.70712
 Alpha  occ. eigenvalues --   -0.69437  -0.68083  -0.67381  -0.66933  -0.65501
 Alpha  occ. eigenvalues --   -0.65057  -0.64018  -0.63465  -0.62489  -0.61426
 Alpha  occ. eigenvalues --   -0.60402  -0.59771  -0.58565  -0.58053  -0.57640
 Alpha  occ. eigenvalues --   -0.57092  -0.55885  -0.55750  -0.55277  -0.55049
 Alpha  occ. eigenvalues --   -0.54963  -0.54714  -0.53911  -0.53693  -0.53097
 Alpha  occ. eigenvalues --   -0.52004  -0.51543  -0.51451  -0.50580  -0.50374
 Alpha  occ. eigenvalues --   -0.50066  -0.49927  -0.48798  -0.48623  -0.48437
 Alpha  occ. eigenvalues --   -0.47584  -0.47454  -0.47154  -0.46640  -0.46118
 Alpha  occ. eigenvalues --   -0.45739  -0.45339  -0.44943  -0.44729  -0.44532
 Alpha  occ. eigenvalues --   -0.43383  -0.42638  -0.41671  -0.41544  -0.41376
 Alpha  occ. eigenvalues --   -0.41247  -0.41184  -0.39869  -0.38998  -0.37507
 Alpha  occ. eigenvalues --   -0.35790  -0.34457  -0.30372
 Alpha virt. eigenvalues --   -0.18029  -0.14534  -0.11183  -0.08263  -0.07451
 Alpha virt. eigenvalues --   -0.03986  -0.02392  -0.02226  -0.01578  -0.00080
 Alpha virt. eigenvalues --    0.00340   0.00426   0.01069   0.01475   0.02040

 Mulliken charges:
               1
     1  N   -0.750159
     2  H    0.329587
     3  H    0.334090
     4  C   -0.239125
     5  H    0.190731
     6  H    0.192010
     7  C    0.609310
     8  O   -0.556092
     9  N   -0.589116
    10  H    0.378417
    11  C   -0.061644
    12  H    0.188167
    13  C    0.635679
    14  C   -0.282183
    15  H    0.161006
    16  H    0.151107
    17  O   -0.554699
    18  C   -0.081540
    19  H    0.126519
    20  C   -0.444996
    21  H    0.144261
    22  H    0.160176
    23  H    0.150798
    24  C   -0.455321
    25  H    0.144257
    26  H    0.146346
    27  H    0.164365
    28  N   -0.635345
    29  H    0.406855
    30  C   -0.041705
    31  H    0.201773
    32  C    0.633759
    33  C   -0.111512
    34  H    0.169998
    35  O   -0.550066
    36  C   -0.465180
    37  H    0.161245
    38  H    0.182742
    39  H    0.145670
    40  C   -0.476996
    41  H    0.152486
    42  H    0.174716
    43  H    0.178760
    44  N   -0.584860
    45  H    0.441979
    46  C   -0.102566
    47  H    0.215060
    48  C    0.642349
    49  C   -0.301982
    50  H    0.189367
    51  H    0.172793
    52  O   -0.387128
    53  C   -0.302135
    54  H    0.170811
    55  H    0.155684
    56  C   -0.259318
    57  H    0.173514
    58  H    0.141436
    59  C   -0.139412
    60  H    0.105995
    61  H    0.147796
    62  N   -0.711116
    63  H    0.300954
    64  H    0.304205
    65  O   -0.624013
    66  H    0.477115
    67  H    0.454320
 Sum of Mulliken charges =   1.00000

 Dipole moment (field-independent basis, Debye):
    X=              4.6056    Y=             -0.8567    Z=             -2.8594  Tot=              5.4883
 Quadrupole moment (field-independent basis, Debye-Ang):
   XX=            -99.9968   YY=           -173.8994   ZZ=           -127.0525
   XY=            -30.9807   XZ=            -20.0427   YZ=             14.3219

 Normal termination of Gaussian 16 at Fri May 27 02:43:58 2022.
