 Gaussian 16, Revision C.01,
 Gaussian 16:  ES64L-G16RevC.01  3-Jul-2019

 -------------------------------------------------------------------
 # B3LYP/6-31G* guess=read geom=check nosymm integral(ultrafinegrid)
 -------------------------------------------------------------------

 ------------------------------------------------------
 Candidate Structure: Conf:669 Charge calc in gas phase
 ------------------------------------------------------
 Structure from the checkpoint file:  "conf-669.chk"
 Charge =  1 Multiplicity = 1

                          Input orientation:
 ---------------------------------------------------------------------
 Center     Atomic      Atomic             Coordinates (Angstroms)
 Number     Number       Type             X           Y           Z
 ---------------------------------------------------------------------
      1          7           0       -1.518803   -0.984467    4.097752
      2          1           0       -1.817793   -0.983039    5.070826
      3          1           0       -0.986628   -1.840330    3.951640
      4          6           0       -2.691566   -1.001317    3.218164
      5          1           0       -3.342385   -0.160468    3.479189
      6          1           0       -3.301377   -1.919399    3.264969
      7          6           0       -2.171931   -0.869636    1.795630
      8          8           0       -1.347595   -1.693188    1.357736
      9          7           0       -2.570265    0.200138    1.075506
     10          1           0       -3.185510    0.877284    1.508345
     11          6           0       -2.162671    0.445827   -0.312412
     12          1           0       -2.080528   -0.538529   -0.787077
     13          6           0       -0.743810    1.041201   -0.419574
     14          6           0       -3.233933    1.281529   -1.037777
     15          1           0       -4.207654    0.904889   -0.695139
     16          1           0       -3.159198    2.325982   -0.708532
     17          8           0       -0.413587    1.792792   -1.341026
     18          6           0       -3.220826    1.235857   -2.582633
     19          1           0       -2.275165    1.670523   -2.922591
     20          6           0       -3.326700   -0.195024   -3.133875
     21          1           0       -4.224639   -0.702675   -2.757752
     22          1           0       -3.397597   -0.176334   -4.227028
     23          1           0       -2.456813   -0.812502   -2.877906
     24          6           0       -4.366629    2.109205   -3.116847
     25          1           0       -5.343667    1.713016   -2.811753
     26          1           0       -4.292169    3.139229   -2.749420
     27          1           0       -4.351431    2.144160   -4.211426
     28          7           0        0.157123    0.630544    0.522476
     29          1           0       -0.078162   -0.168651    1.107499
     30          6           0        1.566077    1.006588    0.428463
     31          1           0        1.606866    2.049975    0.099171
     32          6           0        2.106532    0.153688   -0.702484
     33          6           0        2.331136    0.838981    1.757776
     34          1           0        2.366369   -0.233175    1.993319
     35          8           0        2.732554   -0.982108   -0.478163
     36          6           0        3.772826    1.349233    1.599452
     37          1           0        3.789310    2.423754    1.380171
     38          1           0        4.327475    1.192962    2.529140
     39          1           0        4.320135    0.827020    0.806379
     40          6           0        1.602631    1.566905    2.898496
     41          1           0        1.456886    2.628242    2.663317
     42          1           0        2.207303    1.509466    3.808924
     43          1           0        0.627953    1.123290    3.123658
     44          7           0        1.876430    0.388637   -1.966324
     45          1           0        1.210412    1.127130   -2.217901
     46          6           0        2.275821   -0.745386   -2.807022
     47          1           0        1.373554   -1.195985   -3.232433
     48          6           0        2.832911   -1.692260   -1.757364
     49          6           0        3.304256   -0.398592   -3.901456
     50          1           0        4.186941    0.044622   -3.425070
     51          1           0        3.622229   -1.352403   -4.339619
     52          8           0        3.325909   -2.761468   -1.818733
     53          6           0        2.761148    0.535504   -4.992160
     54          1           0        3.583648    0.769821   -5.675648
     55          1           0        2.457236    1.495394   -4.548454
     56          6           0        1.609697   -0.042130   -5.826575
     57          1           0        1.873348   -1.057322   -6.159702
     58          1           0        0.689609   -0.140678   -5.231773
     59          6           0        1.295652    0.818789   -7.060927
     60          1           0        0.387864    0.422823   -7.547048
     61          1           0        1.055575    1.838820   -6.734834
     62          7           0        2.463412    0.896552   -7.942657
     63          1           0        2.563646    0.029805   -8.469171
     64          1           0        2.337755    1.634494   -8.632006
     65          8           0       -0.055492   -2.081733   -1.195276
     66          1           0       -0.476412   -2.069301   -0.309747
     67          1           0       -0.219120   -2.979738   -1.522483
 ---------------------------------------------------------------------

 SCF Done:  E(RB3LYP) =  -1396.61576966     A.U. after    1 cycles

 Alpha  occ. eigenvalues --  -19.37531 -19.30837 -19.25696 -19.25539 -19.24816
 Alpha  occ. eigenvalues --  -14.55018 -14.49626 -14.49338 -14.42280 -14.39147
 Alpha  occ. eigenvalues --  -10.48315 -10.47811 -10.42394 -10.41505 -10.39463
 Alpha  occ. eigenvalues --  -10.38590 -10.35566 -10.33018 -10.31917 -10.31851
 Alpha  occ. eigenvalues --  -10.29305 -10.29288 -10.28565 -10.28559 -10.27927
 Alpha  occ. eigenvalues --  -10.27902 -10.27778 -10.26148 -10.25379  -1.29645
 Alpha  occ. eigenvalues --   -1.21325  -1.17589  -1.16267  -1.11895  -1.11017
 Alpha  occ. eigenvalues --   -1.06662  -1.05179  -0.98873  -0.96197  -0.95467
 Alpha  occ. eigenvalues --   -0.92656  -0.91060  -0.88218  -0.86408  -0.84334
 Alpha  occ. eigenvalues --   -0.81038  -0.80112  -0.79627  -0.78961  -0.77139
 Alpha  occ. eigenvalues --   -0.76970  -0.75449  -0.72861  -0.71844  -0.71483
 Alpha  occ. eigenvalues --   -0.69930  -0.68590  -0.67268  -0.65825  -0.65199
 Alpha  occ. eigenvalues --   -0.64801  -0.64128  -0.63109  -0.62492  -0.61721
 Alpha  occ. eigenvalues --   -0.60834  -0.59730  -0.59218  -0.58019  -0.57810
 Alpha  occ. eigenvalues --   -0.56594  -0.56472  -0.56213  -0.55986  -0.55307
 Alpha  occ. eigenvalues --   -0.54634  -0.54333  -0.54212  -0.53279  -0.52675
 Alpha  occ. eigenvalues --   -0.52313  -0.51861  -0.51315  -0.51088  -0.50701
 Alpha  occ. eigenvalues --   -0.50315  -0.49600  -0.49183  -0.48974  -0.48755
 Alpha  occ. eigenvalues --   -0.48308  -0.47922  -0.46693  -0.46305  -0.45918
 Alpha  occ. eigenvalues --   -0.45566  -0.45343  -0.45066  -0.44704  -0.44329
 Alpha  occ. eigenvalues --   -0.43364  -0.42765  -0.42498  -0.42378  -0.42242
 Alpha  occ. eigenvalues --   -0.41651  -0.41243  -0.40118  -0.39874  -0.38673
 Alpha  occ. eigenvalues --   -0.37176  -0.34496  -0.31449
 Alpha virt. eigenvalues --   -0.19167  -0.13950  -0.11945  -0.10262  -0.05972
 Alpha virt. eigenvalues --   -0.03693  -0.03027  -0.02688  -0.01604  -0.01126
 Alpha virt. eigenvalues --   -0.00220   0.00325   0.00551   0.01081   0.01554

 Mulliken charges:
               1
     1  N   -0.721494
     2  H    0.327595
     3  H    0.325099
     4  C   -0.229554
     5  H    0.162526
     6  H    0.177259
     7  C    0.628567
     8  O   -0.563567
     9  N   -0.591587
    10  H    0.354953
    11  C   -0.077193
    12  H    0.212897
    13  C    0.652039
    14  C   -0.290529
    15  H    0.151937
    16  H    0.157753
    17  O   -0.540141
    18  C   -0.080724
    19  H    0.155334
    20  C   -0.464217
    21  H    0.150375
    22  H    0.159340
    23  H    0.138358
    24  C   -0.449166
    25  H    0.149034
    26  H    0.152177
    27  H    0.157147
    28  N   -0.620416
    29  H    0.388255
    30  C   -0.041358
    31  H    0.208934
    32  C    0.690985
    33  C   -0.117889
    34  H    0.166815
    35  O   -0.449159
    36  C   -0.467001
    37  H    0.163601
    38  H    0.185895
    39  H    0.153417
    40  C   -0.463844
    41  H    0.155765
    42  H    0.175228
    43  H    0.177084
    44  N   -0.581486
    45  H    0.419059
    46  C   -0.064060
    47  H    0.250514
    48  C    0.635038
    49  C   -0.276032
    50  H    0.167528
    51  H    0.193256
    52  O   -0.359923
    53  C   -0.273810
    54  H    0.207291
    55  H    0.131940
    56  C   -0.268485
    57  H    0.142670
    58  H    0.123045
    59  C   -0.141614
    60  H    0.134773
    61  H    0.145697
    62  N   -0.718049
    63  H    0.305230
    64  H    0.315219
    65  O   -0.846166
    66  H    0.437288
    67  H    0.410549
 Sum of Mulliken charges =   1.00000

 Dipole moment (field-independent basis, Debye):
    X=             -0.2453    Y=              0.6156    Z=             -3.9887  Tot=              4.0434
 Quadrupole moment (field-independent basis, Debye-Ang):
   XX=           -138.6308   YY=           -168.0559   ZZ=            -96.6256
   XY=              5.9505   XZ=            -19.1947   YZ=             -1.3204

 Normal termination of Gaussian 16 at Fri May 27 02:43:59 2022.
