 Gaussian 16, Revision C.01,
 Gaussian 16:  ES64L-G16RevC.01  3-Jul-2019

 -------------------------------------------------------------------
 # B3LYP/6-31G* guess=read geom=check nosymm integral(ultrafinegrid)
 -------------------------------------------------------------------

 ------------------------------------------------------
 Candidate Structure: Conf:304 Charge calc in gas phase
 ------------------------------------------------------
 Structure from the checkpoint file:  "conf-304.chk"
 Charge =  1 Multiplicity = 1

                          Input orientation:
 ---------------------------------------------------------------------
 Center     Atomic      Atomic             Coordinates (Angstroms)
 Number     Number       Type             X           Y           Z
 ---------------------------------------------------------------------
      1          7           0       -2.859280   -2.573776   -0.065242
      2          1           0       -3.768500   -2.626245   -0.518492
      3          1           0       -2.781301   -3.394577    0.528499
      4          6           0       -1.780984   -2.532365   -1.056555
      5          1           0       -2.027289   -2.985398   -2.025552
      6          1           0       -0.908886   -3.077794   -0.677528
      7          6           0       -1.312226   -1.102896   -1.342546
      8          8           0       -0.557802   -0.862454   -2.293084
      9          7           0       -1.753054   -0.172930   -0.466649
     10          1           0       -2.435922   -0.521382    0.206482
     11          6           0       -1.502118    1.254481   -0.636202
     12          1           0       -1.607629    1.503120   -1.695393
     13          6           0       -0.054610    1.643309   -0.286706
     14          6           0       -2.526051    2.054510    0.199344
     15          1           0       -3.525347    1.719328   -0.112429
     16          1           0       -2.412406    1.766475    1.254181
     17          8           0        0.497413    2.589738   -0.847539
     18          6           0       -2.458499    3.591077    0.085422
     19          1           0       -1.465830    3.917734    0.421942
     20          6           0       -2.649715    4.082176   -1.357521
     21          1           0       -3.596016    3.717781   -1.778832
     22          1           0       -2.677551    5.176848   -1.387441
     23          1           0       -1.830406    3.757673   -2.007193
     24          6           0       -3.505741    4.213946    1.021499
     25          1           0       -4.522946    3.932746    0.720666
     26          1           0       -3.362696    3.892034    2.059788
     27          1           0       -3.444630    5.307154    0.999614
     28          7           0        0.540646    0.926268    0.707102
     29          1           0        0.075454    0.094312    1.047880
     30          6           0        1.903141    1.217577    1.155568
     31          1           0        2.054629    2.285224    0.970961
     32          6           0        2.866280    0.501012    0.228748
     33          6           0        2.114091    0.911580    2.654736
     34          1           0        1.977067   -0.168950    2.802586
     35          8           0        3.311594   -0.743879    0.589192
     36          6           0        3.545482    1.275163    3.082575
     37          1           0        3.740294    2.344537    2.934065
     38          1           0        3.684026    1.059242    4.146353
     39          1           0        4.302196    0.705480    2.534439
     40          6           0        1.087917    1.663649    3.515379
     41          1           0        1.192127    2.748647    3.392612
     42          1           0        1.246510    1.432019    4.573266
     43          1           0        0.056414    1.396007    3.266482
     44          7           0        3.251759    0.941857   -0.906614
     45          1           0        2.602522    2.179956   -2.111387
     46          6           0        4.093647   -0.086973   -1.517394
     47          1           0        3.558803   -0.515113   -2.376201
     48          6           0        4.161491   -1.183337   -0.456538
     49          6           0        5.469722    0.452434   -1.973894
     50          1           0        6.142265    0.462826   -1.108584
     51          1           0        5.900298   -0.256550   -2.689832
     52          8           0        4.750744   -2.215990   -0.408404
     53          6           0        5.442691    1.882570   -2.550498
     54          1           0        6.487335    2.195745   -2.661766
     55          1           0        5.015109    2.554650   -1.797210
     56          6           0        4.774980    2.132392   -3.919199
     57          1           0        4.969847    3.178238   -4.192945
     58          1           0        5.277684    1.529911   -4.687000
     59          6           0        3.276675    1.859374   -4.090247
     60          1           0        2.944679    2.196992   -5.075311
     61          1           0        3.032189    0.798074   -4.024655
     62          7           0        2.391936    2.532310   -3.077538
     63          1           0        2.479204    3.551494   -3.085418
     64          1           0        1.395477    2.263987   -3.279436
     65          8           0        0.167827    1.231231   -3.911370
     66          1           0       -0.586817    1.439912   -4.480133
     67          1           0       -0.123780    0.492945   -3.324073
 ---------------------------------------------------------------------

 SCF Done:  E(RB3LYP) =  -1396.65900282     A.U. after    1 cycles

 Alpha  occ. eigenvalues --  -19.32719 -19.26516 -19.25470 -19.23389 -19.22965
 Alpha  occ. eigenvalues --  -14.53279 -14.47821 -14.47055 -14.45580 -14.43510
 Alpha  occ. eigenvalues --  -10.43632 -10.41321 -10.40028 -10.39963 -10.35739
 Alpha  occ. eigenvalues --  -10.35390 -10.35275 -10.34150 -10.32831 -10.31067
 Alpha  occ. eigenvalues --  -10.30707 -10.30149 -10.30097 -10.29073 -10.27745
 Alpha  occ. eigenvalues --  -10.27008 -10.26998 -10.25415 -10.25153  -1.24246
 Alpha  occ. eigenvalues --   -1.16311  -1.15130  -1.14435  -1.11116  -1.08603
 Alpha  occ. eigenvalues --   -1.05046  -1.04319  -1.03261  -0.99447  -0.92671
 Alpha  occ. eigenvalues --   -0.91367  -0.90323  -0.88198  -0.85408  -0.84073
 Alpha  occ. eigenvalues --   -0.80940  -0.79933  -0.78127  -0.76913  -0.76361
 Alpha  occ. eigenvalues --   -0.74644  -0.73488  -0.71186  -0.69880  -0.69338
 Alpha  occ. eigenvalues --   -0.69042  -0.67960  -0.67189  -0.66085  -0.64830
 Alpha  occ. eigenvalues --   -0.63957  -0.63537  -0.62924  -0.62241  -0.61071
 Alpha  occ. eigenvalues --   -0.60084  -0.59440  -0.58297  -0.57830  -0.57164
 Alpha  occ. eigenvalues --   -0.56432  -0.56071  -0.55631  -0.55129  -0.54329
 Alpha  occ. eigenvalues --   -0.53919  -0.53468  -0.52998  -0.52370  -0.52034
 Alpha  occ. eigenvalues --   -0.51878  -0.51311  -0.50910  -0.50744  -0.50249
 Alpha  occ. eigenvalues --   -0.49826  -0.49144  -0.48600  -0.48436  -0.48038
 Alpha  occ. eigenvalues --   -0.47478  -0.47180  -0.46574  -0.45927  -0.45845
 Alpha  occ. eigenvalues --   -0.45221  -0.44821  -0.44667  -0.44406  -0.43636
 Alpha  occ. eigenvalues --   -0.43274  -0.43077  -0.41829  -0.41326  -0.41225
 Alpha  occ. eigenvalues --   -0.41036  -0.39635  -0.38979  -0.38524  -0.38356
 Alpha  occ. eigenvalues --   -0.36746  -0.35501  -0.35181
 Alpha virt. eigenvalues --   -0.13975  -0.10141  -0.09184  -0.08673  -0.06055
 Alpha virt. eigenvalues --   -0.03319  -0.03177  -0.02472  -0.02020  -0.00750
 Alpha virt. eigenvalues --   -0.00535   0.00643   0.01509   0.02307   0.02403

 Mulliken charges:
               1
     1  N   -0.750012
     2  H    0.331274
     3  H    0.335507
     4  C   -0.241289
     5  H    0.189917
     6  H    0.193575
     7  C    0.599232
     8  O   -0.555561
     9  N   -0.627267
    10  H    0.373040
    11  C   -0.023942
    12  H    0.170405
    13  C    0.640348
    14  C   -0.296765
    15  H    0.157209
    16  H    0.144394
    17  O   -0.555496
    18  C   -0.077596
    19  H    0.145910
    20  C   -0.455817
    21  H    0.143013
    22  H    0.159229
    23  H    0.146481
    24  C   -0.447330
    25  H    0.149799
    26  H    0.146611
    27  H    0.159915
    28  N   -0.608214
    29  H    0.344852
    30  C   -0.022326
    31  H    0.195467
    32  C    0.588659
    33  C   -0.111280
    34  H    0.152313
    35  O   -0.474617
    36  C   -0.463156
    37  H    0.154745
    38  H    0.175892
    39  H    0.159651
    40  C   -0.448862
    41  H    0.157249
    42  H    0.172209
    43  H    0.144721
    44  N   -0.514252
    45  H    0.446473
    46  C   -0.101033
    47  H    0.205895
    48  C    0.606216
    49  C   -0.268712
    50  H    0.175041
    51  H    0.178464
    52  O   -0.395060
    53  C   -0.281718
    54  H    0.177216
    55  H    0.154762
    56  C   -0.288645
    57  H    0.164675
    58  H    0.180083
    59  C   -0.181410
    60  H    0.199980
    61  H    0.198525
    62  N   -0.789414
    63  H    0.382490
    64  H    0.449928
    65  O   -0.843221
    66  H    0.414597
    67  H    0.457032
 Sum of Mulliken charges =   1.00000

 Dipole moment (field-independent basis, Debye):
    X=              3.6078    Y=              5.3628    Z=             -6.8788  Tot=              9.4390
 Quadrupole moment (field-independent basis, Debye-Ang):
   XX=           -118.0672   YY=           -146.1385   ZZ=           -128.1986
   XY=             32.8660   XZ=            -20.9181   YZ=            -18.1129

 Normal termination of Gaussian 16 at Fri May 27 02:44:01 2022.
