 Gaussian 16, Revision C.01,
 Gaussian 16:  ES64L-G16RevC.01  3-Jul-2019

 -------------------------------------------------------------------
 # B3LYP/6-31G* guess=read geom=check nosymm integral(ultrafinegrid)
 -------------------------------------------------------------------

 ------------------------------------------------------
 Candidate Structure: Conf:981 Charge calc in gas phase
 ------------------------------------------------------
 Structure from the checkpoint file:  "conf-981.chk"
 Charge =  1 Multiplicity = 1

                          Input orientation:
 ---------------------------------------------------------------------
 Center     Atomic      Atomic             Coordinates (Angstroms)
 Number     Number       Type             X           Y           Z
 ---------------------------------------------------------------------
      1          7           0       -1.700377    3.185507    3.613960
      2          1           0       -1.995246    4.017559    4.119929
      3          1           0       -1.476979    2.474001    4.306922
      4          6           0       -2.787895    2.708505    2.769936
      5          1           0       -3.059552    3.493600    2.054808
      6          1           0       -3.718185    2.423734    3.298235
      7          6           0       -2.317827    1.463824    2.036851
      8          8           0       -1.672031    0.580621    2.616728
      9          7           0       -2.640822    1.347406    0.718745
     10          1           0       -3.131048    2.102729    0.256668
     11          6           0       -2.454734    0.099967   -0.026644
     12          1           0       -2.632302   -0.719707    0.680077
     13          6           0       -0.980431   -0.035085   -0.447351
     14          6           0       -3.433993   -0.003230   -1.204399
     15          1           0       -3.256571    0.835239   -1.890433
     16          1           0       -3.190406   -0.910682   -1.769115
     17          8           0       -0.749310   -0.057237   -1.724886
     18          6           0       -4.924789   -0.046657   -0.801844
     19          1           0       -5.158454    0.861364   -0.226562
     20          6           0       -5.790854   -0.027813   -2.070945
     21          1           0       -5.611237   -0.919871   -2.683712
     22          1           0       -6.854584   -0.011240   -1.813253
     23          1           0       -5.582546    0.852269   -2.690116
     24          6           0       -5.263196   -1.262281    0.074199
     25          1           0       -5.015726   -2.199399   -0.440865
     26          1           0       -4.736159   -1.253670    1.035877
     27          1           0       -6.334360   -1.284097    0.298793
     28          7           0       -0.082554   -0.112059    0.503844
     29          1           0       -0.507490   -0.036571    1.451011
     30          6           0        1.391916    0.080683    0.432053
     31          1           0        1.565416    1.100282    0.070878
     32          6           0        2.090783   -0.819698   -0.595987
     33          6           0        1.977363   -0.033825    1.869255
     34          1           0        1.362251    0.638683    2.484398
     35          8           0        3.097132   -0.425057   -1.162045
     36          6           0        1.866542   -1.453259    2.446169
     37          1           0        2.502287   -2.159504    1.899803
     38          1           0        2.198251   -1.455207    3.488640
     39          1           0        0.837578   -1.835089    2.438684
     40          6           0        3.422102    0.484533    1.909703
     41          1           0        4.091500   -0.131110    1.301889
     42          1           0        3.786167    0.468660    2.941510
     43          1           0        3.490956    1.514440    1.544269
     44          7           0        1.495967   -2.014117   -0.899245
     45          1           0        0.806199   -2.414409   -0.277248
     46          6           0        2.078135   -2.860880   -1.936071
     47          1           0        3.152260   -2.970053   -1.752163
     48          6           0        1.987420   -2.201926   -3.312878
     49          6           0        1.433506   -4.261730   -1.962931
     50          1           0        1.968081   -4.837610   -2.725623
     51          1           0        1.646195   -4.747467   -1.001495
     52          8           0        2.594359   -2.569663   -4.280192
     53          6           0       -0.074287   -4.298915   -2.254624
     54          1           0       -0.278616   -3.793433   -3.208828
     55          1           0       -0.630310   -3.736791   -1.487109
     56          6           0       -0.613460   -5.733680   -2.315733
     57          1           0       -0.090905   -6.297660   -3.097368
     58          1           0       -0.396776   -6.245938   -1.366349
     59          6           0       -2.117648   -5.806583   -2.596158
     60          1           0       -2.659424   -5.226059   -1.822069
     61          1           0       -2.327420   -5.314960   -3.555073
     62          7           0       -2.540815   -7.200613   -2.713180
     63          1           0       -2.502306   -7.660123   -1.804664
     64          1           0       -3.509118   -7.254713   -3.021876
     65          8           0        1.094710   -1.152717   -3.371578
     66          1           0        0.133494   -0.381710   -2.055589
     67          1           0        1.135152   -0.806864   -4.284933
 ---------------------------------------------------------------------

 SCF Done:  E(RB3LYP) =  -1396.61262916     A.U. after    1 cycles

 Alpha  occ. eigenvalues --  -19.36996 -19.32829 -19.26450 -19.25739 -19.24668
 Alpha  occ. eigenvalues --  -14.54582 -14.51300 -14.49622 -14.42121 -14.38463
 Alpha  occ. eigenvalues --  -10.49123 -10.43944 -10.43110 -10.42103 -10.39547
 Alpha  occ. eigenvalues --  -10.38029 -10.35987 -10.34000 -10.32365 -10.32060
 Alpha  occ. eigenvalues --  -10.30787 -10.30432 -10.29243 -10.29156 -10.28939
 Alpha  occ. eigenvalues --  -10.28094 -10.27651 -10.27442 -10.26867  -1.27026
 Alpha  occ. eigenvalues --   -1.22599  -1.18313  -1.17003  -1.13807  -1.11898
 Alpha  occ. eigenvalues --   -1.07360  -1.05775  -0.99304  -0.95531  -0.95330
 Alpha  occ. eigenvalues --   -0.93489  -0.91267  -0.89421  -0.86450  -0.84654
 Alpha  occ. eigenvalues --   -0.82525  -0.80838  -0.79510  -0.79351  -0.78922
 Alpha  occ. eigenvalues --   -0.77009  -0.75835  -0.74178  -0.73086  -0.71931
 Alpha  occ. eigenvalues --   -0.70347  -0.69397  -0.68239  -0.67503  -0.67297
 Alpha  occ. eigenvalues --   -0.65540  -0.64371  -0.63809  -0.62359  -0.60901
 Alpha  occ. eigenvalues --   -0.60460  -0.59026  -0.58804  -0.58403  -0.58186
 Alpha  occ. eigenvalues --   -0.57909  -0.57160  -0.56768  -0.56599  -0.55540
 Alpha  occ. eigenvalues --   -0.55003  -0.54763  -0.54307  -0.53908  -0.53265
 Alpha  occ. eigenvalues --   -0.53136  -0.52733  -0.52518  -0.51622  -0.51215
 Alpha  occ. eigenvalues --   -0.50659  -0.50270  -0.49916  -0.49575  -0.49397
 Alpha  occ. eigenvalues --   -0.48884  -0.48848  -0.47704  -0.47386  -0.46666
 Alpha  occ. eigenvalues --   -0.45768  -0.45344  -0.45129  -0.44712  -0.44389
 Alpha  occ. eigenvalues --   -0.44245  -0.43991  -0.43868  -0.43506  -0.42556
 Alpha  occ. eigenvalues --   -0.41875  -0.40912  -0.40708  -0.40506  -0.38225
 Alpha  occ. eigenvalues --   -0.37715  -0.34467  -0.30667
 Alpha virt. eigenvalues --   -0.18557  -0.12114  -0.11864  -0.10728  -0.07002
 Alpha virt. eigenvalues --   -0.05471  -0.04669  -0.03161  -0.02602  -0.01233
 Alpha virt. eigenvalues --   -0.01050  -0.00051   0.00501   0.00554   0.00864

 Mulliken charges:
               1
     1  N   -0.713528
     2  H    0.325965
     3  H    0.326084
     4  C   -0.227722
     5  H    0.165559
     6  H    0.179333
     7  C    0.645251
     8  O   -0.543690
     9  N   -0.597683
    10  H    0.358877
    11  C   -0.079249
    12  H    0.215609
    13  C    0.630102
    14  C   -0.290655
    15  H    0.164273
    16  H    0.169352
    17  O   -0.569956
    18  C   -0.083173
    19  H    0.128006
    20  C   -0.448266
    21  H    0.155089
    22  H    0.170149
    23  H    0.153283
    24  C   -0.460259
    25  H    0.152174
    26  H    0.145768
    27  H    0.176464
    28  N   -0.623989
    29  H    0.439255
    30  C   -0.039606
    31  H    0.215252
    32  C    0.584949
    33  C   -0.135498
    34  H    0.173261
    35  O   -0.481645
    36  C   -0.472017
    37  H    0.163529
    38  H    0.189746
    39  H    0.142669
    40  C   -0.454552
    41  H    0.182678
    42  H    0.173212
    43  H    0.166135
    44  N   -0.644565
    45  H    0.348227
    46  C   -0.022626
    47  H    0.221794
    48  C    0.637887
    49  C   -0.315199
    50  H    0.199485
    51  H    0.164069
    52  O   -0.420885
    53  C   -0.277526
    54  H    0.151971
    55  H    0.102784
    56  C   -0.249011
    57  H    0.172452
    58  H    0.134727
    59  C   -0.131583
    60  H    0.097379
    61  H    0.143698
    62  N   -0.710024
    63  H    0.299822
    64  H    0.307555
    65  O   -0.626492
    66  H    0.505170
    67  H    0.440355
 Sum of Mulliken charges =   1.00000

 Dipole moment (field-independent basis, Debye):
    X=             -8.7481    Y=             -1.0378    Z=              1.6288  Tot=              8.9588
 Quadrupole moment (field-independent basis, Debye-Ang):
   XX=           -137.3260   YY=           -144.7788   ZZ=           -156.5283
   XY=             -6.8988   XZ=              7.3281   YZ=              5.1341

 Normal termination of Gaussian 16 at Fri May 27 02:43:46 2022.
