 Gaussian 16, Revision C.01,
 Gaussian 16:  ES64L-G16RevC.01  3-Jul-2019

 -------------------------------------------------------------------
 # B3LYP/6-31G* guess=read geom=check nosymm integral(ultrafinegrid)
 -------------------------------------------------------------------

 ------------------------------------------------------
 Candidate Structure: Conf:497 Charge calc in gas phase
 ------------------------------------------------------
 Structure from the checkpoint file:  "conf-497.chk"
 Charge =  1 Multiplicity = 1

                          Input orientation:
 ---------------------------------------------------------------------
 Center     Atomic      Atomic             Coordinates (Angstroms)
 Number     Number       Type             X           Y           Z
 ---------------------------------------------------------------------
      1          7           0       -2.706891    1.082597    3.551140
      2          1           0       -3.285599    1.362597    4.339900
      3          1           0       -2.684628    0.064242    3.539495
      4          6           0       -3.308153    1.544474    2.305896
      5          1           0       -3.255220    2.639340    2.260158
      6          1           0       -4.371190    1.271077    2.161906
      7          6           0       -2.549492    0.920854    1.142748
      8          8           0       -2.217329   -0.267746    1.161704
      9          7           0       -2.283009    1.724634    0.076281
     10          1           0       -2.521060    2.706299    0.124541
     11          6           0       -1.723077    1.205026   -1.176612
     12          1           0       -2.122000    0.191704   -1.286878
     13          6           0       -0.183292    1.076117   -1.048580
     14          6           0       -2.157943    2.079052   -2.356851
     15          1           0       -3.227851    2.293886   -2.236592
     16          1           0       -1.629490    3.039836   -2.291758
     17          8           0        0.618974    1.824515   -1.650508
     18          6           0       -1.934619    1.460955   -3.754037
     19          1           0       -0.884029    1.141688   -3.820195
     20          6           0       -2.821505    0.230445   -4.000645
     21          1           0       -3.884077    0.494818   -3.932525
     22          1           0       -2.645802   -0.177519   -5.001855
     23          1           0       -2.629605   -0.576698   -3.285655
     24          6           0       -2.180453    2.522971   -4.837210
     25          1           0       -3.218422    2.876592   -4.813333
     26          1           0       -1.535639    3.402067   -4.700354
     27          1           0       -1.995614    2.117967   -5.838278
     28          7           0        0.219265    0.108800   -0.218407
     29          1           0       -0.515822   -0.388135    0.292550
     30          6           0        1.618535   -0.135466    0.135802
     31          1           0        2.037087    0.809021    0.509311
     32          6           0        2.389427   -0.551516   -1.135389
     33          6           0        1.712308   -1.173755    1.285366
     34          1           0        1.130069   -0.736616    2.109537
     35          8           0        2.060292   -1.498206   -1.833091
     36          6           0        1.106630   -2.545857    0.948530
     37          1           0        1.641204   -3.029422    0.127195
     38          1           0        1.166878   -3.191994    1.830583
     39          1           0        0.050069   -2.481600    0.667017
     40          6           0        3.167627   -1.309803    1.757856
     41          1           0        3.801356   -1.759108    0.984366
     42          1           0        3.216740   -1.956578    2.639149
     43          1           0        3.600706   -0.340692    2.033984
     44          7           0        3.464469    0.247835   -1.434244
     45          1           0        3.534430    1.125077   -0.936850
     46          6           0        4.066029    0.210400   -2.771980
     47          1           0        4.576499   -0.743886   -2.913871
     48          6           0        5.144876    1.276908   -2.826814
     49          6           0        2.979422    0.410833   -3.885122
     50          1           0        2.649619   -0.581958   -4.196219
     51          1           0        2.113039    0.839722   -3.377462
     52          8           0        6.277015    1.149461   -3.197946
     53          6           0        3.323177    1.259247   -5.135082
     54          1           0        3.617032    0.603270   -5.959652
     55          1           0        4.184507    1.921352   -4.977022
     56          6           0        2.111471    2.106014   -5.580717
     57          1           0        2.187558    2.342076   -6.648801
     58          1           0        1.188191    1.525393   -5.463787
     59          6           0        1.960622    3.465886   -4.890853
     60          1           0        2.781840    4.133944   -5.165816
     61          1           0        1.019689    3.943247   -5.174575
     62          7           0        1.971457    3.416379   -3.373187
     63          1           0        1.821196    4.355790   -2.992223
     64          1           0        1.246883    2.797829   -2.928761
     65          8           0        4.656685    2.514295   -2.414070
     66          1           0        2.887380    3.091694   -3.014535
     67          1           0        5.421366    3.124041   -2.435246
 ---------------------------------------------------------------------

 SCF Done:  E(RB3LYP) =  -1396.64278434     A.U. after    3 cycles

 Alpha  occ. eigenvalues --  -19.34032 -19.27474 -19.24925 -19.22285 -19.21687
 Alpha  occ. eigenvalues --  -14.58318 -14.47381 -14.46851 -14.46843 -14.39426
 Alpha  occ. eigenvalues --  -10.45183 -10.40868 -10.39201 -10.39062 -10.38844
 Alpha  occ. eigenvalues --  -10.35840 -10.34556 -10.33579 -10.32847 -10.31353
 Alpha  occ. eigenvalues --  -10.31025 -10.30580 -10.29652 -10.29594 -10.28716
 Alpha  occ. eigenvalues --  -10.27678 -10.26583 -10.25811 -10.24728  -1.23803
 Alpha  occ. eigenvalues --   -1.15802  -1.15226  -1.14053  -1.13752  -1.13042
 Alpha  occ. eigenvalues --   -1.03959  -1.03522  -1.02992  -0.96481  -0.93763
 Alpha  occ. eigenvalues --   -0.91704  -0.90378  -0.88911  -0.85805  -0.84627
 Alpha  occ. eigenvalues --   -0.80662  -0.78597  -0.78373  -0.77971  -0.76525
 Alpha  occ. eigenvalues --   -0.75230  -0.74024  -0.72453  -0.72126  -0.70838
 Alpha  occ. eigenvalues --   -0.69761  -0.69336  -0.68010  -0.66926  -0.65925
 Alpha  occ. eigenvalues --   -0.64438  -0.63769  -0.62365  -0.61539  -0.60656
 Alpha  occ. eigenvalues --   -0.60357  -0.59774  -0.59364  -0.58759  -0.58031
 Alpha  occ. eigenvalues --   -0.57328  -0.56499  -0.56058  -0.55521  -0.54970
 Alpha  occ. eigenvalues --   -0.54363  -0.53922  -0.53677  -0.53142  -0.52339
 Alpha  occ. eigenvalues --   -0.52179  -0.51406  -0.50505  -0.50303  -0.50131
 Alpha  occ. eigenvalues --   -0.49862  -0.48947  -0.48714  -0.48618  -0.48012
 Alpha  occ. eigenvalues --   -0.47913  -0.47136  -0.46973  -0.46863  -0.46421
 Alpha  occ. eigenvalues --   -0.46259  -0.45791  -0.45593  -0.44987  -0.43330
 Alpha  occ. eigenvalues --   -0.42845  -0.42705  -0.42236  -0.42069  -0.41988
 Alpha  occ. eigenvalues --   -0.40600  -0.39769  -0.37984  -0.36522  -0.36350
 Alpha  occ. eigenvalues --   -0.35771  -0.34275  -0.31737
 Alpha virt. eigenvalues --   -0.12712  -0.10885  -0.10241  -0.08559  -0.07850
 Alpha virt. eigenvalues --   -0.06381  -0.04974  -0.02852  -0.02223  -0.01770
 Alpha virt. eigenvalues --   -0.01023  -0.00703  -0.00407   0.00153   0.00969

 Mulliken charges:
               1
     1  N   -0.715994
     2  H    0.315429
     3  H    0.324526
     4  C   -0.219449
     5  H    0.150780
     6  H    0.168158
     7  C    0.634811
     8  O   -0.537733
     9  N   -0.609417
    10  H    0.340198
    11  C   -0.064139
    12  H    0.201024
    13  C    0.661885
    14  C   -0.280143
    15  H    0.158151
    16  H    0.125004
    17  O   -0.620890
    18  C   -0.091976
    19  H    0.124102
    20  C   -0.454530
    21  H    0.157903
    22  H    0.161337
    23  H    0.159698
    24  C   -0.449326
    25  H    0.166454
    26  H    0.114457
    27  H    0.158792
    28  N   -0.617656
    29  H    0.411966
    30  C   -0.021940
    31  H    0.144282
    32  C    0.639938
    33  C   -0.126266
    34  H    0.158851
    35  O   -0.509343
    36  C   -0.459717
    37  H    0.182404
    38  H    0.160734
    39  H    0.156852
    40  C   -0.459113
    41  H    0.163252
    42  H    0.172783
    43  H    0.140701
    44  N   -0.630219
    45  H    0.340826
    46  C    0.008351
    47  H    0.220003
    48  C    0.560536
    49  C   -0.331287
    50  H    0.216095
    51  H    0.155763
    52  O   -0.402552
    53  C   -0.299253
    54  H    0.191313
    55  H    0.149002
    56  C   -0.294903
    57  H    0.191799
    58  H    0.186123
    59  C   -0.195612
    60  H    0.201834
    61  H    0.212001
    62  N   -0.798436
    63  H    0.399497
    64  H    0.454672
    65  O   -0.620533
    66  H    0.433958
    67  H    0.434183
 Sum of Mulliken charges =   1.00000

 Dipole moment (field-independent basis, Debye):
    X=              4.0057    Y=             15.1842    Z=            -11.5770  Tot=             19.5098
 Quadrupole moment (field-independent basis, Debye-Ang):
   XX=           -132.2710   YY=           -122.4624   ZZ=           -105.6186
   XY=             20.0855   XZ=            -27.4307   YZ=            -46.5145

 Normal termination of Gaussian 16 at Fri May 27 02:44:31 2022.
