 Gaussian 16, Revision C.01,
 Gaussian 16:  ES64L-G16RevC.01  3-Jul-2019

 -------------------------------------------------------------------
 # B3LYP/6-31G* guess=read geom=check nosymm integral(ultrafinegrid)
 -------------------------------------------------------------------

 ----------------------------------------------------
 Candidate Structure: Conf:2 Charge calc in gas phase
 ----------------------------------------------------
 Structure from the checkpoint file:  "conf-2.chk"
 Charge =  1 Multiplicity = 1

                          Input orientation:
 ---------------------------------------------------------------------
 Center     Atomic      Atomic             Coordinates (Angstroms)
 Number     Number       Type             X           Y           Z
 ---------------------------------------------------------------------
      1          7           0       -8.232681   14.483724   14.136424
      2          1           0       -8.377317   13.543675   13.769093
      3          1           0       -8.780564   14.548273   14.994703
      4          6           0       -8.727242   15.461773   13.156975
      5          1           0       -8.212710   15.250900   12.211495
      6          6           0       -8.248219   16.810562   13.681004
      7          6           0      -10.256964   15.478407   12.904521
      8          1           0      -10.760336   15.727252   13.845560
      9          1           0      -10.490898   16.283769   12.196455
     10          8           0       -8.810734   17.508131   14.469916
     11          6           0      -10.736442   14.147369   12.366662
     12          6           0      -11.251447   13.167853   13.227278
     13          1           0      -11.358084   13.384124   14.288197
     14          6           0      -10.638685   13.857344   10.997977
     15          1           0      -10.257792   14.612231   10.312479
     16          6           0      -11.659030   11.927361   12.732388
     17          1           0      -12.066211   11.183317   13.410950
     18          6           0      -11.044703   12.618990   10.501440
     19          1           0      -10.972169   12.413602    9.437259
     20          6           0      -11.554138   11.649934   11.368878
     21          1           0      -11.876211   10.687631   10.982009
     22          7           0       -6.890492   17.269126   13.130718
     23          6           0       -6.547740   18.714609   13.427468
     24          1           0       -7.291618   19.086828   14.134701
     25          6           0       -6.660933   19.422888   12.057972
     26          6           0       -5.130780   18.685293   14.041934
     27          1           0       -4.375186   18.840595   13.264035
     28          1           0       -5.006595   19.470934   14.791132
     29          8           0       -6.863428   18.719639   11.053762
     30          6           0       -5.013730   17.270723   14.629644
     31          1           0       -3.977142   16.959585   14.784266
     32          1           0       -5.533006   17.201500   15.592015
     33          6           0       -5.706292   16.397243   13.587796
     34          1           0       -6.096093   15.444829   13.950626
     35          1           0       -5.082387   16.240094   12.704194
     36          7           0       -6.514272   20.743421   12.070914
     37          1           0       -6.323815   21.239425   12.939417
     38          6           0       -6.509687   21.600801   10.876676
     39          1           0       -5.898011   21.143725   10.079170
     40          6           0       -5.857672   22.893817   11.338819
     41          6           0       -7.948542   21.797492   10.329262
     42          1           0       -8.526255   22.359887   11.074362
     43          1           0       -8.392438   20.796470   10.275742
     44          8           0       -5.625693   23.155112   12.504205
     45          6           0       -8.097941   22.477433    8.954234
     46          1           0       -9.157723   22.750860    8.875122
     47          1           0       -7.544971   23.422788    8.933803
     48          6           0       -7.751581   21.647564    7.698800
     49          1           0       -8.281924   22.107320    6.855236
     50          1           0       -8.172642   20.634771    7.793619
     51          6           0       -6.277361   21.546502    7.280352
     52          1           0       -6.244209   21.256131    6.217583
     53          1           0       -5.809611   22.535976    7.351124
     54          7           0       -5.500951   20.627273    8.131519
     55          1           0       -4.532246   20.604388    7.815251
     56          1           0       -5.857876   19.677891    8.022860
     57          8           0       -5.562941   23.720902   10.325258
     58          1           0       -5.171309   24.526573   10.716249
     59          1           0       -6.960127   17.285970   12.076997
 ---------------------------------------------------------------------

 SCF Done:  E(RB3LYP) =  -1300.50664132     A.U. after    2 cycles

 Alpha  occ. eigenvalues --  -19.32362 -19.29896 -19.25959 -19.24412 -14.57708
 Alpha  occ. eigenvalues --  -14.48836 -14.45593 -14.40206 -10.47123 -10.42682
 Alpha  occ. eigenvalues --  -10.42362 -10.38411 -10.37491 -10.37148 -10.33437
 Alpha  occ. eigenvalues --  -10.33031 -10.33027 -10.30625 -10.29257 -10.28602
 Alpha  occ. eigenvalues --  -10.28247 -10.28029 -10.28023 -10.27625 -10.27594
 Alpha  occ. eigenvalues --  -10.27401 -10.26445 -10.26166  -1.23775  -1.20991
 Alpha  occ. eigenvalues --   -1.17874  -1.12307  -1.11975  -1.05355  -1.03060
 Alpha  occ. eigenvalues --   -0.96401  -0.94526  -0.94468  -0.91010  -0.88796
 Alpha  occ. eigenvalues --   -0.88379  -0.84487  -0.84196  -0.83179  -0.79525
 Alpha  occ. eigenvalues --   -0.78607  -0.76426  -0.74932  -0.73403  -0.72939
 Alpha  occ. eigenvalues --   -0.71951  -0.69577  -0.69434  -0.68188  -0.67752
 Alpha  occ. eigenvalues --   -0.66717  -0.65176  -0.63483  -0.62818  -0.60804
 Alpha  occ. eigenvalues --   -0.60188  -0.59727  -0.59318  -0.58811  -0.58066
 Alpha  occ. eigenvalues --   -0.57116  -0.56763  -0.56549  -0.56166  -0.55895
 Alpha  occ. eigenvalues --   -0.55409  -0.54764  -0.54202  -0.53919  -0.53577
 Alpha  occ. eigenvalues --   -0.52987  -0.52474  -0.51765  -0.50921  -0.50727
 Alpha  occ. eigenvalues --   -0.50679  -0.49991  -0.49707  -0.49459  -0.48876
 Alpha  occ. eigenvalues --   -0.48263  -0.47803  -0.47781  -0.46976  -0.44744
 Alpha  occ. eigenvalues --   -0.44491  -0.44049  -0.43025  -0.42800  -0.42217
 Alpha  occ. eigenvalues --   -0.41822  -0.41235  -0.40571  -0.39901  -0.38216
 Alpha  occ. eigenvalues --   -0.37986  -0.37828  -0.33801  -0.33430  -0.32148
 Alpha virt. eigenvalues --   -0.18199  -0.11087  -0.09511  -0.09011  -0.09001
 Alpha virt. eigenvalues --   -0.06152  -0.05256  -0.03794  -0.03171  -0.02365
 Alpha virt. eigenvalues --   -0.01585  -0.00948  -0.00362  -0.00153   0.00574

 Mulliken charges:
               1
     1  N   -0.724680
     2  H    0.347819
     3  H    0.331372
     4  C   -0.070443
     5  H    0.172082
     6  C    0.601741
     7  C   -0.365590
     8  H    0.180321
     9  H    0.167651
    10  O   -0.363543
    11  C    0.157793
    12  C   -0.196621
    13  H    0.131969
    14  C   -0.182551
    15  H    0.128288
    16  C   -0.125474
    17  H    0.154662
    18  C   -0.125425
    19  H    0.152437
    20  C   -0.125430
    21  H    0.156520
    22  N   -0.616566
    23  C   -0.083984
    24  H    0.238493
    25  C    0.649053
    26  C   -0.304445
    27  H    0.186884
    28  H    0.200594
    29  O   -0.549812
    30  C   -0.292934
    31  H    0.203237
    32  H    0.188623
    33  C   -0.182537
    34  H    0.254593
    35  H    0.202635
    36  N   -0.614824
    37  H    0.367297
    38  C   -0.070527
    39  H    0.271276
    40  C    0.590990
    41  C   -0.277141
    42  H    0.149298
    43  H    0.163160
    44  O   -0.475248
    45  C   -0.271618
    46  H    0.151335
    47  H    0.163363
    48  C   -0.264628
    49  H    0.154124
    50  H    0.131890
    51  C   -0.140648
    52  H    0.137095
    53  H    0.156565
    54  N   -0.732341
    55  H    0.312712
    56  H    0.307956
    57  O   -0.551202
    58  H    0.429877
    59  H    0.414506
 Sum of Mulliken charges =   1.00000

 Dipole moment (field-independent basis, Debye):
    X=            -33.5101    Y=             84.4749    Z=             58.5886  Tot=            108.1275
 Quadrupole moment (field-independent basis, Debye-Ang):
   XX=             93.0957   YY=           1387.9272   ZZ=            582.4318
   XY=           -563.6887   XZ=           -410.4148   YZ=           1007.7171

 Normal termination of Gaussian 16 at Fri May 27 02:43:59 2022.
