 Gaussian 16, Revision C.01,
 Gaussian 16:  ES64L-G16RevC.01  3-Jul-2019

 -------------------------------------------------------------------
 # B3LYP/6-31G* guess=read geom=check nosymm integral(ultrafinegrid)
 -------------------------------------------------------------------

 ------------------------------------------------------
 Candidate Structure: Conf:123 Charge calc in gas phase
 ------------------------------------------------------
 Structure from the checkpoint file:  "conf-123.chk"
 Charge =  1 Multiplicity = 1

                          Input orientation:
 ---------------------------------------------------------------------
 Center     Atomic      Atomic             Coordinates (Angstroms)
 Number     Number       Type             X           Y           Z
 ---------------------------------------------------------------------
      1          7           0       -3.086993   -0.488421    4.025425
      2          1           0       -3.394420   -1.348239    3.575200
      3          1           0       -2.144001   -0.671588    4.362030
      4          6           0       -3.074993    0.588781    3.061089
      5          1           0       -2.723731    1.509779    3.545375
      6          1           0       -4.106278    0.791443    2.740151
      7          6           0       -2.242015    0.338200    1.794328
      8          8           0       -1.799049   -0.783078    1.515419
      9          7           0       -2.031621    1.414138    0.987036
     10          1           0       -2.413914    2.309035    1.267155
     11          6           0       -1.538951    1.307800   -0.392890
     12          1           0       -1.929691    0.365481   -0.796960
     13          6           0        0.000829    1.179726   -0.415278
     14          6           0       -2.022240    2.491264   -1.239402
     15          1           0       -1.615583    3.417008   -0.811188
     16          1           0       -1.563613    2.401123   -2.231164
     17          8           0        0.740382    2.007243   -0.970759
     18          6           0       -3.552741    2.610645   -1.401009
     19          1           0       -4.006128    2.698132   -0.401824
     20          6           0       -3.886274    3.896975   -2.172339
     21          1           0       -3.476812    3.862425   -3.189734
     22          1           0       -4.969738    4.030866   -2.256593
     23          1           0       -3.476028    4.783703   -1.675179
     24          6           0       -4.170551    1.385244   -2.091329
     25          1           0       -3.733336    1.233731   -3.086655
     26          1           0       -4.031881    0.462149   -1.516255
     27          1           0       -5.248738    1.522656   -2.224113
     28          7           0        0.488149    0.068459    0.191199
     29          1           0       -0.200645   -0.532859    0.663697
     30          6           0        1.902824   -0.055258    0.538932
     31          1           0        2.275215    0.958818    0.743343
     32          6           0        2.703445   -0.496729   -0.694550
     33          6           0        2.096131   -0.888871    1.832237
     34          1           0        1.485869   -0.340459    2.563048
     35          8           0        3.312872   -1.647941   -0.664267
     36          6           0        1.553568   -2.327363    1.773091
     37          1           0        2.103339   -2.947107    1.060083
     38          1           0        1.659848   -2.787230    2.760898
     39          1           0        0.488686   -2.364672    1.521052
     40          6           0        3.549610   -0.836673    2.332093
     41          1           0        4.223994   -1.422327    1.700248
     42          1           0        3.604163   -1.255065    3.341570
     43          1           0        3.925860    0.192218    2.383560
     44          7           0        2.749272    0.316973   -1.722198
     45          1           0        2.173224    1.177237   -1.590813
     46          6           0        3.316508    0.050710   -3.070872
     47          1           0        2.998272   -0.957537   -3.367035
     48          6           0        4.853721    0.051325   -3.000925
     49          6           0        2.812057    1.081572   -4.086549
     50          1           0        3.102650    2.083674   -3.748343
     51          1           0        3.371181    0.905294   -5.012263
     52          8           0        5.593335    0.895325   -3.415686
     53          6           0        1.305429    1.009477   -4.368551
     54          1           0        0.741035    1.246249   -3.457735
     55          1           0        1.034233   -0.018159   -4.651543
     56          6           0        0.875800    1.975365   -5.482784
     57          1           0        1.181129    2.998376   -5.219312
     58          1           0        1.402320    1.723121   -6.414352
     59          6           0       -0.643766    1.953250   -5.734915
     60          1           0       -0.955379    0.932552   -5.993967
     61          1           0       -1.164120    2.203543   -4.799108
     62          7           0       -1.145767    2.846522   -6.772965
     63          1           0       -0.871898    3.808854   -6.581064
     64          1           0       -0.743762    2.605857   -7.677320
     65          8           0        5.288376   -1.097699   -2.385613
     66          1           0        4.005790   -1.740321   -1.368106
     67          1           0        6.265340   -1.083142   -2.328715
 ---------------------------------------------------------------------

 SCF Done:  E(RB3LYP) =  -1396.62166878     A.U. after    1 cycles

 Alpha  occ. eigenvalues --  -19.37509 -19.36178 -19.29746 -19.26144 -19.23700
 Alpha  occ. eigenvalues --  -14.55280 -14.48952 -14.47970 -14.40212 -14.38684
 Alpha  occ. eigenvalues --  -10.49298 -10.47675 -10.42236 -10.40344 -10.39931
 Alpha  occ. eigenvalues --  -10.38818 -10.35329 -10.32429 -10.31984 -10.31714
 Alpha  occ. eigenvalues --  -10.29721 -10.29074 -10.28951 -10.28857 -10.28405
 Alpha  occ. eigenvalues --  -10.28235 -10.27548 -10.25897 -10.25428  -1.28016
 Alpha  occ. eigenvalues --   -1.25913  -1.17700  -1.17595  -1.15107  -1.12365
 Alpha  occ. eigenvalues --   -1.06119  -1.04057  -0.97387  -0.96036  -0.95527
 Alpha  occ. eigenvalues --   -0.93048  -0.90850  -0.88662  -0.86493  -0.84970
 Alpha  occ. eigenvalues --   -0.81714  -0.80414  -0.79808  -0.78883  -0.77033
 Alpha  occ. eigenvalues --   -0.76714  -0.75060  -0.74157  -0.73299  -0.71156
 Alpha  occ. eigenvalues --   -0.70193  -0.69470  -0.68767  -0.66556  -0.66228
 Alpha  occ. eigenvalues --   -0.65949  -0.64672  -0.63902  -0.62849  -0.60938
 Alpha  occ. eigenvalues --   -0.60917  -0.59703  -0.59108  -0.58851  -0.58500
 Alpha  occ. eigenvalues --   -0.58272  -0.57645  -0.56699  -0.55539  -0.55258
 Alpha  occ. eigenvalues --   -0.55093  -0.54776  -0.54371  -0.53514  -0.53366
 Alpha  occ. eigenvalues --   -0.52209  -0.52073  -0.51772  -0.51216  -0.50642
 Alpha  occ. eigenvalues --   -0.50167  -0.49892  -0.49330  -0.48879  -0.48376
 Alpha  occ. eigenvalues --   -0.48077  -0.47904  -0.47320  -0.46709  -0.46420
 Alpha  occ. eigenvalues --   -0.46287  -0.45767  -0.45396  -0.45302  -0.45222
 Alpha  occ. eigenvalues --   -0.44664  -0.43908  -0.42504  -0.42320  -0.41971
 Alpha  occ. eigenvalues --   -0.41683  -0.41479  -0.40767  -0.39638  -0.37665
 Alpha  occ. eigenvalues --   -0.36851  -0.32758  -0.30748
 Alpha virt. eigenvalues --   -0.18686  -0.15057  -0.12080  -0.09203  -0.07909
 Alpha virt. eigenvalues --   -0.04400  -0.03434  -0.03035  -0.02712  -0.01175
 Alpha virt. eigenvalues --   -0.00912   0.00092   0.00286   0.00761   0.01234

 Mulliken charges:
               1
     1  N   -0.671454
     2  H    0.319984
     3  H    0.305870
     4  C   -0.249900
     5  H    0.174801
     6  H    0.194693
     7  C    0.584742
     8  O   -0.543429
     9  N   -0.593348
    10  H    0.350451
    11  C   -0.066424
    12  H    0.195596
    13  C    0.641388
    14  C   -0.299535
    15  H    0.158426
    16  H    0.167623
    17  O   -0.553948
    18  C   -0.080083
    19  H    0.120107
    20  C   -0.448232
    21  H    0.155112
    22  H    0.163678
    23  H    0.148192
    24  C   -0.457957
    25  H    0.152444
    26  H    0.144211
    27  H    0.168521
    28  N   -0.638942
    29  H    0.417629
    30  C   -0.064665
    31  H    0.209087
    32  C    0.644387
    33  C   -0.108904
    34  H    0.164503
    35  O   -0.553493
    36  C   -0.481992
    37  H    0.170236
    38  H    0.176896
    39  H    0.179093
    40  C   -0.469296
    41  H    0.159779
    42  H    0.182954
    43  H    0.155668
    44  N   -0.581510
    45  H    0.437227
    46  C   -0.089495
    47  H    0.210608
    48  C    0.627936
    49  C   -0.300591
    50  H    0.186753
    51  H    0.189583
    52  O   -0.383580
    53  C   -0.291870
    54  H    0.151509
    55  H    0.143726
    56  C   -0.267053
    57  H    0.140723
    58  H    0.142092
    59  C   -0.149968
    60  H    0.147762
    61  H    0.142025
    62  N   -0.699144
    63  H    0.300365
    64  H    0.303935
    65  O   -0.619374
    66  H    0.480037
    67  H    0.453834
 Sum of Mulliken charges =   1.00000

 Dipole moment (field-independent basis, Debye):
    X=              9.1720    Y=              0.7115    Z=             -5.1051  Tot=             10.5211
 Quadrupole moment (field-independent basis, Debye-Ang):
   XX=           -117.3799   YY=           -161.7950   ZZ=           -140.0987
   XY=            -23.0739   XZ=            -20.3119   YZ=              0.5633

 Normal termination of Gaussian 16 at Fri May 27 02:43:53 2022.
