 Gaussian 16, Revision C.01,
 Gaussian 16:  ES64L-G16RevC.01  3-Jul-2019

 -------------------------------------------------------------------
 # B3LYP/6-31G* guess=read geom=check nosymm integral(ultrafinegrid)
 -------------------------------------------------------------------

 ----------------------------------------------------
 Candidate Structure: Conf:1 Charge calc in gas phase
 ----------------------------------------------------
 Structure from the checkpoint file:  "conf-1.chk"
 Charge =  1 Multiplicity = 1

                          Input orientation:
 ---------------------------------------------------------------------
 Center     Atomic      Atomic             Coordinates (Angstroms)
 Number     Number       Type             X           Y           Z
 ---------------------------------------------------------------------
      1          7           0       -9.467719   17.134230   11.329276
      2          1           0      -10.435537   16.811162   11.380049
      3          1           0       -9.019095   16.580318   10.595931
      4          6           0       -8.822528   16.874939   12.648026
      5          1           0       -9.434030   17.414911   13.376422
      6          6           0       -7.499430   17.694639   12.701532
      7          6           0       -8.860590   15.380630   13.042234
      8          1           0       -8.368135   14.771663   12.276451
      9          1           0       -8.304879   15.247355   13.979027
     10          8           0       -7.637206   18.911216   12.881977
     11          6           0      -10.287529   14.896305   13.226906
     12          6           0      -10.938200   14.170774   12.219595
     13          1           0      -10.401071   13.910978   11.309399
     14          6           0      -10.991311   15.192153   14.403621
     15          1           0      -10.497854   15.740833   15.203645
     16          6           0      -12.261323   13.752658   12.381376
     17          1           0      -12.747150   13.183532   11.593937
     18          6           0      -12.311720   14.775088   14.568082
     19          1           0      -12.839091   15.004041   15.489759
     20          6           0      -12.950970   14.055473   13.555516
     21          1           0      -13.977571   13.725911   13.685731
     22          7           0       -6.249779   17.175934   12.517360
     23          6           0       -5.079745   18.102964   12.599255
     24          1           0       -5.016312   18.514395   13.610573
     25          6           0       -5.267481   19.314107   11.675709
     26          6           0       -3.873556   17.202953   12.269268
     27          1           0       -3.671572   17.202962   11.191489
     28          1           0       -2.968118   17.553083   12.770428
     29          8           0       -5.297267   20.463541   12.116297
     30          6           0       -4.325153   15.809918   12.726306
     31          1           0       -3.759542   15.000782   12.257252
     32          1           0       -4.215391   15.712762   13.811934
     33          6           0       -5.811389   15.769850   12.349183
     34          1           0       -6.372132   15.100680   12.997835
     35          1           0       -5.953874   15.446717   11.309261
     36          7           0       -5.469936   19.043055   10.339894
     37          1           0       -5.499103   18.066279   10.065759
     38          6           0       -6.492659   19.871412    9.688240
     39          1           0       -6.683016   20.614197   10.437630
     40          6           0       -7.718637   18.961050    9.591550
     41          6           0       -6.160422   20.689661    8.441013
     42          1           0       -6.296901   20.115223    7.518678
     43          1           0       -5.107022   20.987490    8.491368
     44          8           0       -7.661847   17.852244    9.094013
     45          6           0       -7.062674   21.947014    8.448220
     46          1           0       -6.841879   22.534686    7.551859
     47          1           0       -8.116880   21.651113    8.356879
     48          6           0       -6.873397   22.868607    9.694587
     49          1           0       -6.865571   23.907203    9.344149
     50          1           0       -5.885466   22.709270   10.145924
     51          6           0       -7.940541   22.886482   10.810118
     52          1           0       -7.792506   23.778361   11.423393
     53          1           0       -8.952090   22.920338   10.396832
     54          7           0       -7.933039   21.722273   11.795635
     55          1           0       -8.474256   21.954483   12.634121
     56          1           0       -6.975576   21.452659   12.107251
     57          8           0       -8.790931   19.432256   10.248806
     58          1           0       -9.273690   18.588353   10.658467
     59          1           0       -8.353911   20.856134   11.391872
 ---------------------------------------------------------------------

 SCF Done:  E(RB3LYP) =  -1300.52845798     A.U. after    1 cycles

 Alpha  occ. eigenvalues --  -19.29073 -19.25153 -19.24181 -19.23186 -14.56759
 Alpha  occ. eigenvalues --  -14.48892 -14.47627 -14.46391 -10.43102 -10.41146
 Alpha  occ. eigenvalues --  -10.40803 -10.37885 -10.34825 -10.34786 -10.34601
 Alpha  occ. eigenvalues --  -10.33849 -10.31973 -10.30542 -10.30341 -10.30089
 Alpha  occ. eigenvalues --  -10.30046 -10.29897 -10.28896 -10.27762 -10.27644
 Alpha  occ. eigenvalues --  -10.27361 -10.27340 -10.27117  -1.20540  -1.16183
 Alpha  occ. eigenvalues --   -1.14898  -1.12097  -1.11203  -1.05815  -1.04040
 Alpha  occ. eigenvalues --   -1.02228  -0.94224  -0.92920  -0.91000  -0.89059
 Alpha  occ. eigenvalues --   -0.87808  -0.86380  -0.82925  -0.82210  -0.81999
 Alpha  occ. eigenvalues --   -0.77527  -0.77105  -0.74666  -0.72639  -0.71770
 Alpha  occ. eigenvalues --   -0.70824  -0.70349  -0.69282  -0.69116  -0.68705
 Alpha  occ. eigenvalues --   -0.67717  -0.66962  -0.63566  -0.63289  -0.62247
 Alpha  occ. eigenvalues --   -0.61078  -0.60504  -0.59833  -0.59324  -0.58604
 Alpha  occ. eigenvalues --   -0.58060  -0.57821  -0.56613  -0.55670  -0.55328
 Alpha  occ. eigenvalues --   -0.54887  -0.54554  -0.54513  -0.53835  -0.53471
 Alpha  occ. eigenvalues --   -0.53033  -0.52984  -0.51983  -0.51131  -0.50794
 Alpha  occ. eigenvalues --   -0.50350  -0.50039  -0.49107  -0.48861  -0.48528
 Alpha  occ. eigenvalues --   -0.47931  -0.46709  -0.46508  -0.45997  -0.45797
 Alpha  occ. eigenvalues --   -0.45174  -0.44934  -0.44769  -0.44359  -0.42875
 Alpha  occ. eigenvalues --   -0.42766  -0.42534  -0.40000  -0.39370  -0.38037
 Alpha  occ. eigenvalues --   -0.36746  -0.36668  -0.36013  -0.33542  -0.33044
 Alpha virt. eigenvalues --   -0.12980  -0.10959  -0.10115  -0.09076  -0.08729
 Alpha virt. eigenvalues --   -0.07551  -0.04041  -0.01734  -0.01487  -0.00984
 Alpha virt. eigenvalues --   -0.00322  -0.00127   0.00402   0.00885   0.01554

 Mulliken charges:
               1
     1  N   -0.795950
     2  H    0.355588
     3  H    0.352604
     4  C   -0.040242
     5  H    0.191635
     6  C    0.599019
     7  C   -0.386375
     8  H    0.159611
     9  H    0.170209
    10  O   -0.562387
    11  C    0.151018
    12  C   -0.199334
    13  H    0.129933
    14  C   -0.179395
    15  H    0.133360
    16  C   -0.125773
    17  H    0.152690
    18  C   -0.126762
    19  H    0.152290
    20  C   -0.126177
    21  H    0.154817
    22  N   -0.479557
    23  C   -0.024194
    24  H    0.195631
    25  C    0.626918
    26  C   -0.323980
    27  H    0.166474
    28  H    0.193223
    29  O   -0.542269
    30  C   -0.302097
    31  H    0.181645
    32  H    0.176001
    33  C   -0.142693
    34  H    0.188824
    35  H    0.169764
    36  N   -0.581432
    37  H    0.345412
    38  C   -0.023683
    39  H    0.135012
    40  C    0.613316
    41  C   -0.286493
    42  H    0.179107
    43  H    0.177345
    44  O   -0.480241
    45  C   -0.292376
    46  H    0.180282
    47  H    0.159536
    48  C   -0.312106
    49  H    0.191272
    50  H    0.190296
    51  C   -0.184021
    52  H    0.206596
    53  H    0.208668
    54  N   -0.807019
    55  H    0.405012
    56  H    0.451541
    57  O   -0.642661
    58  H    0.470258
    59  H    0.452308
 Sum of Mulliken charges =   1.00000

 Dipole moment (field-independent basis, Debye):
    X=            -37.4986    Y=             91.8025    Z=             56.1157  Tot=            113.9421
 Quadrupole moment (field-independent basis, Debye-Ang):
   XX=            162.1203   YY=           1653.7574   ZZ=            505.4115
   XY=           -716.0932   XZ=           -444.8332   YZ=           1056.7958

 Normal termination of Gaussian 16 at Fri May 27 02:43:51 2022.
