 Gaussian 16, Revision C.01,
 Gaussian 16:  ES64L-G16RevC.01  3-Jul-2019

 -------------------------------------------------------------------
 # B3LYP/6-31G* guess=read geom=check nosymm integral(ultrafinegrid)
 -------------------------------------------------------------------

 ------------------------------------------------------
 Candidate Structure: Conf:879 Charge calc in gas phase
 ------------------------------------------------------
 Structure from the checkpoint file:  "conf-879.chk"
 Charge =  1 Multiplicity = 1

                          Input orientation:
 ---------------------------------------------------------------------
 Center     Atomic      Atomic             Coordinates (Angstroms)
 Number     Number       Type             X           Y           Z
 ---------------------------------------------------------------------
      1          7           0       -3.800274    0.220391    3.373074
      2          1           0       -4.769184    0.102856    3.654094
      3          1           0       -3.275987    0.455953    4.211725
      4          6           0       -3.277380   -0.996243    2.745062
      5          1           0       -4.103135   -1.603704    2.357475
      6          1           0       -2.709285   -1.649268    3.419822
      7          6           0       -2.379958   -0.693701    1.542614
      8          8           0       -1.737908   -1.591873    0.977976
      9          7           0       -2.363929    0.598621    1.154205
     10          1           0       -2.957313    1.211175    1.712948
     11          6           0       -1.805340    1.061757   -0.116318
     12          1           0       -2.007550    0.279541   -0.860529
     13          6           0       -0.266071    1.180892   -0.040129
     14          6           0       -2.450770    2.384005   -0.546547
     15          1           0       -2.235770    3.140558    0.219231
     16          1           0       -1.937720    2.726993   -1.452642
     17          8           0        0.339463    2.242573   -0.246762
     18          6           0       -3.969447    2.322760   -0.813643
     19          1           0       -4.471450    1.967355    0.098304
     20          6           0       -4.494225    3.736223   -1.109139
     21          1           0       -4.035715    4.143677   -2.019195
     22          1           0       -5.578883    3.727097   -1.260347
     23          1           0       -4.276056    4.426908   -0.286276
     24          6           0       -4.328805    1.359276   -1.955014
     25          1           0       -3.829624    1.652222   -2.887928
     26          1           0       -4.050089    0.322318   -1.734165
     27          1           0       -5.407844    1.369822   -2.142329
     28          7           0        0.380422    0.017509    0.229790
     29          1           0       -0.207929   -0.808278    0.415700
     30          6           0        1.798869   -0.001004    0.579284
     31          1           0        2.017616    0.945529    1.092111
     32          6           0        2.618594    0.072721   -0.715171
     33          6           0        2.142785   -1.149401    1.560525
     34          1           0        1.506515   -0.926239    2.428035
     35          8           0        3.280885   -0.979793   -1.104123
     36          6           0        1.775940   -2.563916    1.079174
     37          1           0        2.351787   -2.863934    0.199851
     38          1           0        1.998140   -3.277845    1.879087
     39          1           0        0.709593   -2.666042    0.853572
     40          6           0        3.603323   -1.059461    2.033967
     41          1           0        4.308430   -1.333500    1.242812
     42          1           0        3.763335   -1.751732    2.865992
     43          1           0        3.855414   -0.053460    2.390867
     44          7           0        2.593128    1.201976   -1.381788
     45          1           0        1.945363    1.899417   -0.960174
     46          6           0        3.008324    1.476088   -2.781156
     47          1           0        2.656033    0.632230   -3.393423
     48          6           0        4.532744    1.506945   -2.973983
     49          6           0        2.336769    2.771182   -3.267720
     50          1           0        2.624368    2.897554   -4.317042
     51          1           0        1.252680    2.602728   -3.253826
     52          8           0        5.158947    2.330445   -3.576317
     53          6           0        2.687067    4.036766   -2.470573
     54          1           0        3.770284    4.199976   -2.500875
     55          1           0        2.405878    3.941306   -1.415374
     56          6           0        1.976219    5.278040   -3.026440
     57          1           0        2.256676    5.435877   -4.076494
     58          1           0        0.888123    5.113267   -3.016821
     59          6           0        2.301022    6.549851   -2.232895
     60          1           0        3.384072    6.723641   -2.262447
     61          1           0        1.830954    7.410665   -2.738193
     62          7           0        1.915034    6.400760   -0.823621
     63          1           0        2.266674    7.189897   -0.284388
     64          1           0        0.899275    6.436603   -0.741193
     65          8           0        5.111368    0.383862   -2.436336
     66          1           0        3.963450   -0.755569   -1.786804
     67          1           0        6.071760    0.402328   -2.621810
 ---------------------------------------------------------------------

 SCF Done:  E(RB3LYP) =  -1396.63115028     A.U. after    3 cycles

 Alpha  occ. eigenvalues --  -19.36399 -19.35438 -19.28904 -19.24885 -19.22038
 Alpha  occ. eigenvalues --  -14.54082 -14.47784 -14.46058 -14.42680 -14.38560
 Alpha  occ. eigenvalues --  -10.48144 -10.46978 -10.41048 -10.39597 -10.38740
 Alpha  occ. eigenvalues --  -10.37665 -10.34179 -10.31909 -10.31452 -10.30901
 Alpha  occ. eigenvalues --  -10.28170 -10.28096 -10.27979 -10.27632 -10.27472
 Alpha  occ. eigenvalues --  -10.27232 -10.26494 -10.25405 -10.25012  -1.27003
 Alpha  occ. eigenvalues --   -1.25187  -1.16844  -1.16418  -1.13563  -1.11332
 Alpha  occ. eigenvalues --   -1.04930  -1.02975  -0.98609  -0.95395  -0.94626
 Alpha  occ. eigenvalues --   -0.91972  -0.89947  -0.87177  -0.85519  -0.83924
 Alpha  occ. eigenvalues --   -0.80959  -0.79518  -0.79113  -0.78887  -0.76306
 Alpha  occ. eigenvalues --   -0.76206  -0.74274  -0.73606  -0.72056  -0.70007
 Alpha  occ. eigenvalues --   -0.69236  -0.67960  -0.66961  -0.66165  -0.65192
 Alpha  occ. eigenvalues --   -0.64403  -0.63830  -0.63018  -0.61707  -0.60717
 Alpha  occ. eigenvalues --   -0.59990  -0.59454  -0.58136  -0.57934  -0.57391
 Alpha  occ. eigenvalues --   -0.56809  -0.56551  -0.55360  -0.55161  -0.54875
 Alpha  occ. eigenvalues --   -0.54288  -0.53861  -0.53334  -0.52983  -0.52700
 Alpha  occ. eigenvalues --   -0.51958  -0.51905  -0.51369  -0.50826  -0.49842
 Alpha  occ. eigenvalues --   -0.49783  -0.49428  -0.48479  -0.47909  -0.47593
 Alpha  occ. eigenvalues --   -0.47158  -0.47106  -0.46318  -0.46272  -0.45735
 Alpha  occ. eigenvalues --   -0.45208  -0.45127  -0.44677  -0.44415  -0.43768
 Alpha  occ. eigenvalues --   -0.42895  -0.42056  -0.41850  -0.41327  -0.41043
 Alpha  occ. eigenvalues --   -0.40990  -0.40861  -0.39440  -0.38450  -0.37453
 Alpha  occ. eigenvalues --   -0.35465  -0.34180  -0.30843
 Alpha virt. eigenvalues --   -0.17636  -0.14156  -0.10701  -0.07972  -0.07076
 Alpha virt. eigenvalues --   -0.03654  -0.02156  -0.02001  -0.00937   0.00367
 Alpha virt. eigenvalues --    0.01009   0.01262   0.01432   0.01930   0.02220

 Mulliken charges:
               1
     1  N   -0.750052
     2  H    0.335024
     3  H    0.327558
     4  C   -0.237726
     5  H    0.200668
     6  H    0.182796
     7  C    0.601773
     8  O   -0.556760
     9  N   -0.593883
    10  H    0.378307
    11  C   -0.062966
    12  H    0.189496
    13  C    0.632847
    14  C   -0.280683
    15  H    0.156787
    16  H    0.153028
    17  O   -0.550956
    18  C   -0.082537
    19  H    0.130114
    20  C   -0.445019
    21  H    0.146355
    22  H    0.159730
    23  H    0.147591
    24  C   -0.454989
    25  H    0.144672
    26  H    0.146089
    27  H    0.164021
    28  N   -0.643465
    29  H    0.417873
    30  C   -0.063814
    31  H    0.206478
    32  C    0.643782
    33  C   -0.104822
    34  H    0.163499
    35  O   -0.552863
    36  C   -0.485990
    37  H    0.168471
    38  H    0.173014
    39  H    0.185682
    40  C   -0.469070
    41  H    0.157691
    42  H    0.180307
    43  H    0.155047
    44  N   -0.587956
    45  H    0.446622
    46  C   -0.102277
    47  H    0.216731
    48  C    0.644878
    49  C   -0.304150
    50  H    0.188185
    51  H    0.167220
    52  O   -0.388563
    53  C   -0.286518
    54  H    0.163478
    55  H    0.180989
    56  C   -0.260737
    57  H    0.146664
    58  H    0.133335
    59  C   -0.145899
    60  H    0.148737
    61  H    0.134488
    62  N   -0.720852
    63  H    0.309692
    64  H    0.298391
    65  O   -0.625418
    66  H    0.475929
    67  H    0.453924
 Sum of Mulliken charges =   1.00000

 Dipole moment (field-independent basis, Debye):
    X=              5.0848    Y=              4.3366    Z=             -1.2372  Tot=              6.7965
 Quadrupole moment (field-independent basis, Debye-Ang):
   XX=           -100.3532   YY=           -147.7310   ZZ=           -135.3028
   XY=             -4.2688   XZ=            -31.8114   YZ=            -10.4823

 Normal termination of Gaussian 16 at Fri May 27 02:44:29 2022.
