 Gaussian 16, Revision C.01,
 Gaussian 16:  ES64L-G16RevC.01  3-Jul-2019

 -------------------------------------------------------------------
 # B3LYP/6-31G* guess=read geom=check nosymm integral(ultrafinegrid)
 -------------------------------------------------------------------

 ------------------------------------------------------
 Candidate Structure: Conf:472 Charge calc in gas phase
 ------------------------------------------------------
 Structure from the checkpoint file:  "conf-472.chk"
 Charge =  1 Multiplicity = 1

                          Input orientation:
 ---------------------------------------------------------------------
 Center     Atomic      Atomic             Coordinates (Angstroms)
 Number     Number       Type             X           Y           Z
 ---------------------------------------------------------------------
      1          7           0       -2.737974    1.764443    3.793902
      2          1           0       -3.528597    1.773889    4.431310
      3          1           0       -2.084328    2.470376    4.122318
      4          6           0       -2.110510    0.441437    3.742615
      5          1           0       -2.818274   -0.325094    4.078260
      6          1           0       -1.221800    0.334127    4.377505
      7          6           0       -1.704829    0.042990    2.321715
      8          8           0       -1.034124   -0.978710    2.107484
      9          7           0       -2.144808    0.870073    1.350222
     10          1           0       -2.699108    1.658645    1.683893
     11          6           0       -2.098950    0.537406   -0.075385
     12          1           0       -2.281305   -0.541643   -0.156297
     13          6           0       -0.676164    0.790723   -0.626732
     14          6           0       -3.170189    1.323514   -0.840466
     15          1           0       -4.099864    1.264566   -0.258823
     16          1           0       -2.869517    2.377250   -0.869404
     17          8           0       -0.421428    1.687032   -1.445920
     18          6           0       -3.454766    0.834613   -2.276873
     19          1           0       -2.499975    0.803538   -2.819563
     20          6           0       -4.081419   -0.568439   -2.307899
     21          1           0       -5.041115   -0.580637   -1.776186
     22          1           0       -4.273887   -0.882038   -3.339845
     23          1           0       -3.439914   -1.332038   -1.851446
     24          6           0       -4.362895    1.845783   -2.993129
     25          1           0       -5.329578    1.937267   -2.482059
     26          1           0       -3.905370    2.841021   -3.026611
     27          1           0       -4.562910    1.531908   -4.023413
     28          7           0        0.262307   -0.068973   -0.153566
     29          1           0       -0.062625   -0.676106    0.616511
     30          6           0        1.706730    0.183603   -0.205178
     31          1           0        1.887704    1.245085    0.032250
     32          6           0        2.225835    0.035609   -1.626178
     33          6           0        2.427341   -0.684828    0.862979
     34          1           0        1.875037   -0.456184    1.783972
     35          8           0        3.362313   -0.575185   -1.906814
     36          6           0        2.294771   -2.196337    0.608420
     37          1           0        2.749084   -2.495946   -0.341112
     38          1           0        2.799984   -2.744148    1.409727
     39          1           0        1.249332   -2.521406    0.606169
     40          6           0        3.884405   -0.249957    1.089424
     41          1           0        4.535211   -0.519188    0.253442
     42          1           0        4.274329   -0.748088    1.982284
     43          1           0        3.963288    0.830982    1.257016
     44          7           0        1.643827    0.555374   -2.667125
     45          1           0        0.781777    1.124855   -2.518255
     46          6           0        2.393051    0.298245   -3.898633
     47          1           0        1.811798   -0.376637   -4.535694
     48          6           0        3.563160   -0.501996   -3.349114
     49          6           0        2.815026    1.560757   -4.675771
     50          1           0        3.368258    1.206633   -5.553857
     51          1           0        1.902356    2.037947   -5.053307
     52          8           0        4.511538   -0.991192   -3.854591
     53          6           0        3.660229    2.566122   -3.884049
     54          1           0        4.577156    2.073988   -3.528827
     55          1           0        3.109355    2.898916   -2.992395
     56          6           0        4.040623    3.794205   -4.722567
     57          1           0        4.578342    3.468076   -5.624626
     58          1           0        3.123920    4.292695   -5.068944
     59          6           0        4.906138    4.819578   -3.959124
     60          1           0        5.027414    5.707064   -4.590786
     61          1           0        4.364123    5.154708   -3.064308
     62          7           0        6.238274    4.394450   -3.539227
     63          1           0        6.200511    3.601253   -2.903351
     64          1           0        6.800688    4.112390   -4.339798
     65          8           0        1.830533   -2.669973   -3.316235
     66          1           0        0.993437   -3.156836   -3.272017
     67          1           0        2.485608   -3.341742   -3.561958
 ---------------------------------------------------------------------

 SCF Done:  E(RB3LYP) =  -1396.61353084     A.U. after    2 cycles

 Alpha  occ. eigenvalues --  -19.37632 -19.31007 -19.27332 -19.25725 -19.22493
 Alpha  occ. eigenvalues --  -14.54596 -14.48457 -14.46504 -14.42892 -14.38738
 Alpha  occ. eigenvalues --  -10.48397 -10.48040 -10.41876 -10.39675 -10.39140
 Alpha  occ. eigenvalues --  -10.38976 -10.34618 -10.32492 -10.32209 -10.32016
 Alpha  occ. eigenvalues --  -10.29888 -10.28587 -10.28324 -10.28183 -10.27999
 Alpha  occ. eigenvalues --  -10.27952 -10.27390 -10.25905 -10.25260  -1.29810
 Alpha  occ. eigenvalues --   -1.21455  -1.17178  -1.13970  -1.12930  -1.11714
 Alpha  occ. eigenvalues --   -1.05848  -1.03374  -0.98875  -0.96003  -0.95425
 Alpha  occ. eigenvalues --   -0.92616  -0.90409  -0.88551  -0.85734  -0.84179
 Alpha  occ. eigenvalues --   -0.80975  -0.79722  -0.79346  -0.79280  -0.76987
 Alpha  occ. eigenvalues --   -0.76599  -0.74767  -0.73354  -0.71623  -0.69734
 Alpha  occ. eigenvalues --   -0.68511  -0.68046  -0.67182  -0.66069  -0.64911
 Alpha  occ. eigenvalues --   -0.64873  -0.64065  -0.62030  -0.61473  -0.60891
 Alpha  occ. eigenvalues --   -0.60567  -0.60492  -0.59514  -0.58346  -0.57641
 Alpha  occ. eigenvalues --   -0.57126  -0.56648  -0.56040  -0.55509  -0.55091
 Alpha  occ. eigenvalues --   -0.54496  -0.54191  -0.53811  -0.53070  -0.52315
 Alpha  occ. eigenvalues --   -0.51648  -0.51508  -0.51374  -0.51101  -0.50717
 Alpha  occ. eigenvalues --   -0.50176  -0.49905  -0.49200  -0.48788  -0.48469
 Alpha  occ. eigenvalues --   -0.47541  -0.46517  -0.46482  -0.46061  -0.46029
 Alpha  occ. eigenvalues --   -0.45625  -0.45114  -0.44948  -0.44838  -0.44440
 Alpha  occ. eigenvalues --   -0.43427  -0.42949  -0.42537  -0.41960  -0.41944
 Alpha  occ. eigenvalues --   -0.41548  -0.41343  -0.39996  -0.39304  -0.37757
 Alpha  occ. eigenvalues --   -0.35968  -0.34473  -0.30623
 Alpha virt. eigenvalues --   -0.19147  -0.13995  -0.11848  -0.08281  -0.06609
 Alpha virt. eigenvalues --   -0.03701  -0.02325  -0.02102  -0.01656  -0.01052
 Alpha virt. eigenvalues --   -0.00630   0.00017   0.00621   0.02114   0.02194

 Mulliken charges:
               1
     1  N   -0.748550
     2  H    0.335967
     3  H    0.328111
     4  C   -0.237101
     5  H    0.201599
     6  H    0.183128
     7  C    0.601705
     8  O   -0.558976
     9  N   -0.600012
    10  H    0.376341
    11  C   -0.053781
    12  H    0.187806
    13  C    0.642296
    14  C   -0.284943
    15  H    0.152430
    16  H    0.165378
    17  O   -0.563131
    18  C   -0.080111
    19  H    0.122556
    20  C   -0.453387
    21  H    0.156898
    22  H    0.158553
    23  H    0.134521
    24  C   -0.448031
    25  H    0.152905
    26  H    0.151923
    27  H    0.154508
    28  N   -0.649311
    29  H    0.422526
    30  C   -0.061835
    31  H    0.214038
    32  C    0.712164
    33  C   -0.128414
    34  H    0.175761
    35  O   -0.453420
    36  C   -0.472162
    37  H    0.165520
    38  H    0.178941
    39  H    0.169405
    40  C   -0.473874
    41  H    0.175927
    42  H    0.181118
    43  H    0.153294
    44  N   -0.595749
    45  H    0.430926
    46  C   -0.055126
    47  H    0.251625
    48  C    0.644773
    49  C   -0.276957
    50  H    0.195231
    51  H    0.180881
    52  O   -0.375924
    53  C   -0.285806
    54  H    0.140785
    55  H    0.140120
    56  C   -0.266345
    57  H    0.143364
    58  H    0.143294
    59  C   -0.147813
    60  H    0.164639
    61  H    0.143986
    62  N   -0.699155
    63  H    0.293647
    64  H    0.303881
    65  O   -0.800320
    66  H    0.416866
    67  H    0.420895
 Sum of Mulliken charges =   1.00000

 Dipole moment (field-independent basis, Debye):
    X=              2.0261    Y=              0.9158    Z=             -5.3716  Tot=              5.8136
 Quadrupole moment (field-independent basis, Debye-Ang):
   XX=           -142.7547   YY=           -160.5143   ZZ=           -104.6643
   XY=             -8.3369   XZ=            -29.9390   YZ=              9.2968

 Normal termination of Gaussian 16 at Fri May 27 02:44:13 2022.
