 Gaussian 16, Revision C.01,
 Gaussian 16:  ES64L-G16RevC.01  3-Jul-2019

 -------------------------------------------------------------------
 # B3LYP/6-31G* guess=read geom=check nosymm integral(ultrafinegrid)
 -------------------------------------------------------------------

 ------------------------------------------------------
 Candidate Structure: Conf:684 Charge calc in gas phase
 ------------------------------------------------------
 Structure from the checkpoint file:  "conf-684.chk"
 Charge =  1 Multiplicity = 1

                          Input orientation:
 ---------------------------------------------------------------------
 Center     Atomic      Atomic             Coordinates (Angstroms)
 Number     Number       Type             X           Y           Z
 ---------------------------------------------------------------------
      1          7           0       -3.912653    0.915086    3.780021
      2          1           0       -4.759728    0.622883    4.258046
      3          1           0       -3.582841    1.754490    4.249152
      4          6           0       -2.896304   -0.140719    3.803255
      5          1           0       -3.364122   -1.113607    3.992026
      6          1           0       -2.131431   -0.015352    4.580107
      7          6           0       -2.167448   -0.278858    2.464484
      8          8           0       -1.191486   -1.035269    2.339116
      9          7           0       -2.673712    0.464912    1.460284
     10          1           0       -3.486749    1.022470    1.721288
     11          6           0       -2.310613    0.289574    0.054659
     12          1           0       -2.153899   -0.785598   -0.105926
     13          6           0       -0.956339    0.964644   -0.264361
     14          6           0       -3.422740    0.808476   -0.864391
     15          1           0       -3.553040    1.882448   -0.679647
     16          1           0       -3.066839    0.728128   -1.898296
     17          8           0       -0.838520    1.876915   -1.093492
     18          6           0       -4.779277    0.084038   -0.735851
     19          1           0       -5.121895    0.163723    0.306334
     20          6           0       -5.820561    0.788227   -1.619301
     21          1           0       -5.539214    0.733537   -2.678708
     22          1           0       -6.804651    0.319487   -1.513077
     23          1           0       -5.922845    1.847110   -1.355115
     24          6           0       -4.686431   -1.408501   -1.087707
     25          1           0       -4.320290   -1.547813   -2.113409
     26          1           0       -4.020086   -1.959479   -0.413856
     27          1           0       -5.672252   -1.881297   -1.023665
     28          7           0        0.110924    0.447611    0.403254
     29          1           0       -0.085497   -0.278480    1.109518
     30          6           0        1.416473    1.105527    0.352124
     31          1           0        1.247149    2.190977    0.335514
     32          6           0        2.016844    0.765773   -1.002446
     33          6           0        2.342967    0.754718    1.538735
     34          1           0        2.593140   -0.312019    1.471118
     35          8           0        3.004638   -0.097361   -1.152456
     36          6           0        3.643389    1.573749    1.457131
     37          1           0        3.436323    2.648296    1.534103
     38          1           0        4.300179    1.305157    2.289569
     39          1           0        4.205140    1.394157    0.535047
     40          6           0        1.635277    1.011034    2.879214
     41          1           0        1.294296    2.051409    2.952220
     42          1           0        2.340698    0.836505    3.697466
     43          1           0        0.779284    0.349967    3.036715
     44          7           0        1.573731    1.251598   -2.127851
     45          1           0        0.695173    1.795384   -2.109675
     46          6           0        2.275186    0.685136   -3.285230
     47          1           0        1.580474    0.082892   -3.893027
     48          6           0        3.258946   -0.238537   -2.593894
     49          6           0        2.969293    1.731470   -4.181921
     50          1           0        3.628456    2.356698   -3.566896
     51          1           0        3.610561    1.169441   -4.871095
     52          8           0        4.110348   -0.954114   -2.987320
     53          6           0        1.974173    2.594253   -4.968789
     54          1           0        1.309974    3.128789   -4.273501
     55          1           0        1.336983    1.934368   -5.572115
     56          6           0        2.684339    3.616559   -5.865381
     57          1           0        3.318167    4.278636   -5.262744
     58          1           0        3.356000    3.087858   -6.557763
     59          6           0        1.712979    4.486562   -6.670148
     60          1           0        1.060548    3.832741   -7.279927
     61          1           0        1.053005    5.022883   -5.975947
     62          7           0        2.454655    5.487685   -7.436994
     63          1           0        2.957050    5.041136   -8.203034
     64          1           0        1.810766    6.148102   -7.867885
     65          8           0        0.610750   -0.818305   -5.451755
     66          1           0       -0.304348   -0.781665   -5.768726
     67          1           0        1.051628   -1.438996   -6.052069
 ---------------------------------------------------------------------

 SCF Done:  E(RB3LYP) =  -1396.61555540     A.U. after    3 cycles

 Alpha  occ. eigenvalues --  -19.37741 -19.31121 -19.26725 -19.25176 -19.22278
 Alpha  occ. eigenvalues --  -14.54914 -14.48374 -14.46292 -14.42803 -14.38018
 Alpha  occ. eigenvalues --  -10.48242 -10.47884 -10.41447 -10.38980 -10.38930
 Alpha  occ. eigenvalues --  -10.38400 -10.34419 -10.32059 -10.31942 -10.31784
 Alpha  occ. eigenvalues --  -10.29067 -10.28399 -10.28350 -10.28187 -10.27840
 Alpha  occ. eigenvalues --  -10.27727 -10.26731 -10.25654 -10.25176  -1.29671
 Alpha  occ. eigenvalues --   -1.21511  -1.16714  -1.13759  -1.12346  -1.11755
 Alpha  occ. eigenvalues --   -1.05488  -1.03236  -0.98754  -0.95556  -0.94957
 Alpha  occ. eigenvalues --   -0.92433  -0.90175  -0.88335  -0.85712  -0.83953
 Alpha  occ. eigenvalues --   -0.80517  -0.79602  -0.79223  -0.78837  -0.76544
 Alpha  occ. eigenvalues --   -0.76424  -0.74597  -0.72295  -0.70957  -0.69481
 Alpha  occ. eigenvalues --   -0.68603  -0.67597  -0.67248  -0.65635  -0.65354
 Alpha  occ. eigenvalues --   -0.64322  -0.63746  -0.62618  -0.61856  -0.60819
 Alpha  occ. eigenvalues --   -0.60407  -0.59995  -0.59234  -0.57562  -0.57267
 Alpha  occ. eigenvalues --   -0.56442  -0.56223  -0.55538  -0.55065  -0.54773
 Alpha  occ. eigenvalues --   -0.54250  -0.53761  -0.53513  -0.52939  -0.52677
 Alpha  occ. eigenvalues --   -0.52071  -0.51367  -0.50749  -0.50587  -0.50474
 Alpha  occ. eigenvalues --   -0.50229  -0.49859  -0.48574  -0.48367  -0.47978
 Alpha  occ. eigenvalues --   -0.47342  -0.46509  -0.46097  -0.45676  -0.45480
 Alpha  occ. eigenvalues --   -0.45325  -0.44848  -0.44818  -0.44581  -0.44057
 Alpha  occ. eigenvalues --   -0.43386  -0.42382  -0.41860  -0.41575  -0.41532
 Alpha  occ. eigenvalues --   -0.41248  -0.41063  -0.39680  -0.38963  -0.37686
 Alpha  occ. eigenvalues --   -0.35685  -0.34336  -0.30285
 Alpha virt. eigenvalues --   -0.19120  -0.14318  -0.11099  -0.08194  -0.05660
 Alpha virt. eigenvalues --   -0.04402  -0.02262  -0.02226  -0.00899  -0.00268
 Alpha virt. eigenvalues --    0.00223   0.00810   0.01064   0.01721   0.01950

 Mulliken charges:
               1
     1  N   -0.750787
     2  H    0.335469
     3  H    0.328792
     4  C   -0.239693
     5  H    0.201143
     6  H    0.185142
     7  C    0.608940
     8  O   -0.557206
     9  N   -0.592206
    10  H    0.379458
    11  C   -0.062374
    12  H    0.188745
    13  C    0.638976
    14  C   -0.279693
    15  H    0.159535
    16  H    0.150224
    17  O   -0.557214
    18  C   -0.083566
    19  H    0.130830
    20  C   -0.444663
    21  H    0.145153
    22  H    0.159709
    23  H    0.149932
    24  C   -0.454135
    25  H    0.141479
    26  H    0.146687
    27  H    0.164480
    28  N   -0.640434
    29  H    0.409881
    30  C   -0.033744
    31  H    0.203530
    32  C    0.677388
    33  C   -0.119096
    34  H    0.171462
    35  O   -0.447451
    36  C   -0.470139
    37  H    0.160785
    38  H    0.185622
    39  H    0.156726
    40  C   -0.477486
    41  H    0.151699
    42  H    0.176680
    43  H    0.181369
    44  N   -0.583610
    45  H    0.427609
    46  C   -0.110386
    47  H    0.301059
    48  C    0.612338
    49  C   -0.264604
    50  H    0.165756
    51  H    0.192719
    52  O   -0.354229
    53  C   -0.285911
    54  H    0.137496
    55  H    0.160641
    56  C   -0.252861
    57  H    0.160659
    58  H    0.139461
    59  C   -0.134836
    60  H    0.115599
    61  H    0.142693
    62  N   -0.714084
    63  H    0.300430
    64  H    0.308811
    65  O   -0.777961
    66  H    0.415359
    67  H    0.417900
 Sum of Mulliken charges =   1.00000

 Dipole moment (field-independent basis, Debye):
    X=             -1.6096    Y=              4.2302    Z=             -6.3878  Tot=              7.8288
 Quadrupole moment (field-independent basis, Debye-Ang):
   XX=           -135.7319   YY=           -169.3452   ZZ=            -71.3693
   XY=              5.5502   XZ=            -23.2761   YZ=              0.3854

 Normal termination of Gaussian 16 at Fri May 27 02:44:21 2022.
