 Gaussian 16, Revision C.01,
 Gaussian 16:  ES64L-G16RevC.01  3-Jul-2019

 -------------------------------------------------------------------
 # B3LYP/6-31G* guess=read geom=check nosymm integral(ultrafinegrid)
 -------------------------------------------------------------------

 ------------------------------------------------------
 Candidate Structure: Conf:288 Charge calc in gas phase
 ------------------------------------------------------
 Structure from the checkpoint file:  "conf-288.chk"
 Charge =  1 Multiplicity = 1

                          Input orientation:
 ---------------------------------------------------------------------
 Center     Atomic      Atomic             Coordinates (Angstroms)
 Number     Number       Type             X           Y           Z
 ---------------------------------------------------------------------
      1          7           0       -3.144005   -2.856429    3.587528
      2          1           0       -2.939392   -3.620840    2.946862
      3          1           0       -2.254489   -2.593327    4.006703
      4          6           0       -3.704080   -1.743823    2.852373
      5          1           0       -3.868879   -0.900034    3.535023
      6          1           0       -4.697491   -2.028782    2.477763
      7          6           0       -2.886438   -1.269661    1.641559
      8          8           0       -1.991296   -1.967643    1.146360
      9          7           0       -3.211882   -0.053258    1.128495
     10          1           0       -3.944265    0.482089    1.578256
     11          6           0       -2.753208    0.418420   -0.183957
     12          1           0       -2.683799   -0.465882   -0.829620
     13          6           0       -1.323940    1.001640   -0.097683
     14          6           0       -3.736862    1.434909   -0.775688
     15          1           0       -3.794184    2.298834   -0.100287
     16          1           0       -3.300348    1.819693   -1.704604
     17          8           0       -1.061491    2.179436   -0.372234
     18          6           0       -5.153449    0.895134   -1.065517
     19          1           0       -5.577178    0.498214   -0.130459
     20          6           0       -6.055816    2.049743   -1.527350
     21          1           0       -5.690095    2.481833   -2.467290
     22          1           0       -7.079449    1.700557   -1.698678
     23          1           0       -6.095320    2.853569   -0.783087
     24          6           0       -5.150899   -0.241680   -2.098786
     25          1           0       -4.712749    0.092641   -3.048131
     26          1           0       -4.590128   -1.120132   -1.758523
     27          1           0       -6.173318   -0.573827   -2.307304
     28          7           0       -0.361291    0.108860    0.262250
     29          1           0       -0.671354   -0.840866    0.507018
     30          6           0        0.999136    0.553618    0.569009
     31          1           0        0.928895    1.530026    1.067005
     32          6           0        1.668612    0.819868   -0.769611
     33          6           0        1.793174   -0.422187    1.467147
     34          1           0        1.988679   -1.333674    0.887461
     35          8           0        2.566119    0.009010   -1.291972
     36          6           0        3.138056    0.209864    1.867838
     37          1           0        2.975572    1.077286    2.520140
     38          1           0        3.731274   -0.517072    2.430845
     39          1           0        3.735917    0.534191    1.010230
     40          6           0        0.988677   -0.799549    2.721571
     41          1           0        0.693565    0.094643    3.284638
     42          1           0        1.615072   -1.410955    3.378517
     43          1           0        0.090423   -1.378736    2.491603
     44          7           0        1.351583    1.820007   -1.544289
     45          1           0        0.536711    2.399754   -1.288889
     46          6           0        2.046474    1.751046   -2.834001
     47          1           0        1.317451    1.477899   -3.610342
     48          6           0        2.948533    0.549181   -2.596068
     49          6           0        2.786826    3.031000   -3.256070
     50          1           0        3.535022    3.266143   -2.493475
     51          1           0        3.331092    2.776230   -4.173953
     52          8           0        3.796007    0.038092   -3.238874
     53          6           0        1.831545    4.202711   -3.511895
     54          1           0        1.308990    4.471674   -2.581654
     55          1           0        1.058927    3.918945   -4.236533
     56          6           0        2.555449    5.444796   -4.048318
     57          1           0        3.272974    5.818970   -3.305828
     58          1           0        3.144108    5.167788   -4.935386
     59          6           0        1.587129    6.574949   -4.423450
     60          1           0        0.992704    6.848025   -3.542140
     61          1           0        2.175069    7.467958   -4.694217
     62          7           0        0.655572    6.132767   -5.468548
     63          1           0       -0.089928    6.816974   -5.581787
     64          1           0        1.138304    6.095994   -6.365947
     65          8           0        4.790709    1.895311   -0.845883
     66          1           0        5.222078    2.592514   -0.327701
     67          1           0        5.522729    1.343789   -1.164895
 ---------------------------------------------------------------------

 SCF Done:  E(RB3LYP) =  -1396.61215954     A.U. after    1 cycles

 Alpha  occ. eigenvalues --  -19.37848 -19.31256 -19.27423 -19.25556 -19.23424
 Alpha  occ. eigenvalues --  -14.55088 -14.48894 -14.47779 -14.40008 -14.39098
 Alpha  occ. eigenvalues --  -10.48502 -10.48280 -10.41878 -10.40089 -10.39666
 Alpha  occ. eigenvalues --  -10.38677 -10.35013 -10.32009 -10.31502 -10.31489
 Alpha  occ. eigenvalues --  -10.28903 -10.28681 -10.28673 -10.28248 -10.28175
 Alpha  occ. eigenvalues --  -10.28156 -10.27332 -10.25832 -10.25363  -1.29978
 Alpha  occ. eigenvalues --   -1.21696  -1.17152  -1.14815  -1.12948  -1.12039
 Alpha  occ. eigenvalues --   -1.05937  -1.03856  -0.97164  -0.96075  -0.95595
 Alpha  occ. eigenvalues --   -0.92644  -0.90658  -0.88365  -0.86104  -0.84304
 Alpha  occ. eigenvalues --   -0.80882  -0.79689  -0.79096  -0.78657  -0.76870
 Alpha  occ. eigenvalues --   -0.76629  -0.74885  -0.72825  -0.71295  -0.69973
 Alpha  occ. eigenvalues --   -0.69313  -0.68243  -0.67211  -0.66056  -0.65795
 Alpha  occ. eigenvalues --   -0.64895  -0.64265  -0.62944  -0.62000  -0.60880
 Alpha  occ. eigenvalues --   -0.60410  -0.59583  -0.59155  -0.58385  -0.57585
 Alpha  occ. eigenvalues --   -0.57034  -0.56189  -0.55441  -0.55292  -0.55083
 Alpha  occ. eigenvalues --   -0.54401  -0.53866  -0.53593  -0.53212  -0.52687
 Alpha  occ. eigenvalues --   -0.51717  -0.51598  -0.51133  -0.51039  -0.50703
 Alpha  occ. eigenvalues --   -0.50095  -0.49985  -0.48803  -0.48601  -0.47859
 Alpha  occ. eigenvalues --   -0.47833  -0.46643  -0.46320  -0.46132  -0.45758
 Alpha  occ. eigenvalues --   -0.45685  -0.45168  -0.45094  -0.44809  -0.44395
 Alpha  occ. eigenvalues --   -0.43402  -0.42775  -0.42253  -0.42018  -0.41850
 Alpha  occ. eigenvalues --   -0.41562  -0.41438  -0.40299  -0.39363  -0.37438
 Alpha  occ. eigenvalues --   -0.36479  -0.32514  -0.31437
 Alpha virt. eigenvalues --   -0.19356  -0.14305  -0.11587  -0.08957  -0.06457
 Alpha virt. eigenvalues --   -0.03942  -0.02666  -0.02213  -0.01436  -0.01241
 Alpha virt. eigenvalues --   -0.00699  -0.00232   0.00215   0.01233   0.01808

 Mulliken charges:
               1
     1  N   -0.675556
     2  H    0.321004
     3  H    0.307940
     4  C   -0.248617
     5  H    0.171753
     6  H    0.195684
     7  C    0.592974
     8  O   -0.544398
     9  N   -0.591044
    10  H    0.349828
    11  C   -0.066587
    12  H    0.193119
    13  C    0.639336
    14  C   -0.285941
    15  H    0.157713
    16  H    0.159262
    17  O   -0.553116
    18  C   -0.080788
    19  H    0.120454
    20  C   -0.445353
    21  H    0.150675
    22  H    0.162221
    23  H    0.148859
    24  C   -0.455464
    25  H    0.147590
    26  H    0.145586
    27  H    0.167412
    28  N   -0.639986
    29  H    0.407343
    30  C   -0.036469
    31  H    0.204922
    32  C    0.699663
    33  C   -0.117242
    34  H    0.169085
    35  O   -0.447894
    36  C   -0.487428
    37  H    0.155626
    38  H    0.178293
    39  H    0.175431
    40  C   -0.477750
    41  H    0.154169
    42  H    0.177473
    43  H    0.173065
    44  N   -0.592399
    45  H    0.427586
    46  C   -0.065147
    47  H    0.240143
    48  C    0.644032
    49  C   -0.271342
    50  H    0.183604
    51  H    0.186074
    52  O   -0.371476
    53  C   -0.275554
    54  H    0.133718
    55  H    0.178470
    56  C   -0.259590
    57  H    0.140732
    58  H    0.141761
    59  C   -0.145291
    60  H    0.144325
    61  H    0.138827
    62  N   -0.722746
    63  H    0.312206
    64  H    0.303271
    65  O   -0.781970
    66  H    0.417541
    67  H    0.420377
 Sum of Mulliken charges =   1.00000

 Dipole moment (field-independent basis, Debye):
    X=              3.6849    Y=              9.2163    Z=             -4.2650  Tot=             10.8032
 Quadrupole moment (field-independent basis, Debye-Ang):
   XX=           -109.6265   YY=           -137.1283   ZZ=           -140.2969
   XY=             19.3791   XZ=             -7.3704   YZ=            -29.1656

 Normal termination of Gaussian 16 at Fri May 27 02:43:53 2022.
