 Gaussian 16, Revision C.01,
 Gaussian 16:  ES64L-G16RevC.01  3-Jul-2019

 -------------------------------------------------------------------
 # B3LYP/6-31G* guess=read geom=check nosymm integral(ultrafinegrid)
 -------------------------------------------------------------------

 -----------------------------------------------------
 Candidate Structure: Conf:34 Charge calc in gas phase
 -----------------------------------------------------
 Structure from the checkpoint file:  "conf-34.chk"
 Charge =  1 Multiplicity = 1

                          Input orientation:
 ---------------------------------------------------------------------
 Center     Atomic      Atomic             Coordinates (Angstroms)
 Number     Number       Type             X           Y           Z
 ---------------------------------------------------------------------
      1          7           0       -3.904214   -0.437627    3.319531
      2          1           0       -4.843694   -0.712945    3.589737
      3          1           0       -3.429487   -0.135214    4.166104
      4          6           0       -3.189264   -1.543232    2.675647
      5          1           0       -3.901892   -2.281186    2.290154
      6          1           0       -2.511816   -2.093288    3.341130
      7          6           0       -2.368155   -1.083238    1.468513
      8          8           0       -1.598488   -1.859663    0.881383
      9          7           0       -2.560233    0.200869    1.104788
     10          1           0       -3.237195    0.702350    1.679313
     11          6           0       -2.093819    0.765991   -0.160648
     12          1           0       -2.186167   -0.023061   -0.919043
     13          6           0       -0.589214    1.115439   -0.098022
     14          6           0       -2.935188    1.985241   -0.556328
     15          1           0       -2.818248    2.754079    0.218047
     16          1           0       -2.497177    2.413401   -1.465710
     17          8           0       -0.161743    2.269891   -0.245646
     18          6           0       -4.433394    1.705275   -0.798334
     19          1           0       -4.860971    1.269690    0.116772
     20          6           0       -5.164106    3.030471   -1.064150
     21          1           0       -4.787626    3.511068   -1.976090
     22          1           0       -6.238610    2.864740   -1.196168
     23          1           0       -5.032526    3.736145   -0.235761
     24          6           0       -4.669946    0.713124   -1.947140
     25          1           0       -4.235541    1.086318   -2.883849
     26          1           0       -4.239978   -0.274910   -1.745579
     27          1           0       -5.742330    0.569174   -2.116780
     28          7           0        0.240299    0.053718    0.083641
     29          1           0       -0.203922   -0.861691    0.250650
     30          6           0        1.664947    0.254554    0.349664
     31          1           0        1.764034    1.184709    0.925211
     32          6           0        2.336874    0.524364   -1.000800
     33          6           0        2.321257   -0.893207    1.149395
     34          1           0        2.333353   -1.789346    0.516510
     35          8           0        3.035142   -0.434466   -1.540410
     36          6           0        3.770511   -0.524411    1.513001
     37          1           0        3.798847    0.353312    2.170484
     38          1           0        4.239011   -1.353410    2.051582
     39          1           0        4.391464   -0.317760    0.635666
     40          6           0        1.518571   -1.202827    2.423787
     41          1           0        1.404594   -0.306887    3.046908
     42          1           0        2.055904   -1.950480    3.015559
     43          1           0        0.526642   -1.606587    2.206311
     44          7           0        2.134750    1.688062   -1.569507
     45          1           0        1.444251    2.271513   -1.055816
     46          6           0        2.442346    2.086618   -2.968810
     47          1           0        2.131537    1.263392   -3.624973
     48          6           0        3.961856    2.264845   -3.123743
     49          6           0        1.677023    3.365781   -3.321984
     50          1           0        0.641580    3.246740   -2.978569
     51          1           0        2.116096    4.199289   -2.761275
     52          8           0        4.570718    3.294536   -3.150861
     53          6           0        1.705435    3.663214   -4.827237
     54          1           0        1.241138    2.828002   -5.372369
     55          1           0        2.736291    3.743332   -5.186784
     56          6           0        0.977274    4.965508   -5.182933
     57          1           0       -0.080684    4.903465   -4.893309
     58          1           0        1.409168    5.793660   -4.601845
     59          6           0        1.065215    5.301998   -6.677491
     60          1           0        0.625147    4.481008   -7.258082
     61          1           0        0.445315    6.193159   -6.875012
     62          7           0        2.464688    5.440837   -7.097216
     63          1           0        2.518990    5.504441   -8.111964
     64          1           0        2.846115    6.316720   -6.740884
     65          8           0        4.561486    1.030971   -3.212686
     66          1           0        3.571396   -0.137282   -2.319963
     67          1           0        5.530109    1.152313   -3.282074
 ---------------------------------------------------------------------

 SCF Done:  E(RB3LYP) =  -1396.63466004     A.U. after    1 cycles

 Alpha  occ. eigenvalues --  -19.36703 -19.35304 -19.28879 -19.25074 -19.22112
 Alpha  occ. eigenvalues --  -14.54411 -14.48115 -14.46132 -14.42682 -14.38311
 Alpha  occ. eigenvalues --  -10.48337 -10.46777 -10.41253 -10.39278 -10.38776
 Alpha  occ. eigenvalues --  -10.37781 -10.34259 -10.31934 -10.31488 -10.30827
 Alpha  occ. eigenvalues --  -10.28336 -10.28144 -10.27998 -10.27688 -10.27641
 Alpha  occ. eigenvalues --  -10.27597 -10.26519 -10.25435 -10.24958  -1.27152
 Alpha  occ. eigenvalues --   -1.25043  -1.16797  -1.16581  -1.13595  -1.11584
 Alpha  occ. eigenvalues --   -1.05096  -1.03066  -0.98624  -0.95302  -0.94713
 Alpha  occ. eigenvalues --   -0.92297  -0.89984  -0.87345  -0.85534  -0.84049
 Alpha  occ. eigenvalues --   -0.81026  -0.79677  -0.79214  -0.78708  -0.76710
 Alpha  occ. eigenvalues --   -0.76219  -0.74367  -0.72913  -0.71529  -0.69994
 Alpha  occ. eigenvalues --   -0.69185  -0.67745  -0.67006  -0.66498  -0.65473
 Alpha  occ. eigenvalues --   -0.65187  -0.63769  -0.63091  -0.62232  -0.60864
 Alpha  occ. eigenvalues --   -0.60205  -0.60101  -0.58455  -0.57939  -0.57199
 Alpha  occ. eigenvalues --   -0.56843  -0.56410  -0.55314  -0.55053  -0.54629
 Alpha  occ. eigenvalues --   -0.54314  -0.53625  -0.53512  -0.53241  -0.52794
 Alpha  occ. eigenvalues --   -0.52013  -0.51919  -0.51171  -0.50414  -0.50059
 Alpha  occ. eigenvalues --   -0.49784  -0.49563  -0.48471  -0.48194  -0.47324
 Alpha  occ. eigenvalues --   -0.47146  -0.47107  -0.46634  -0.46268  -0.45841
 Alpha  occ. eigenvalues --   -0.45516  -0.45119  -0.44652  -0.44562  -0.44384
 Alpha  occ. eigenvalues --   -0.43025  -0.42061  -0.41663  -0.41393  -0.41321
 Alpha  occ. eigenvalues --   -0.41043  -0.40861  -0.39538  -0.38716  -0.37520
 Alpha  occ. eigenvalues --   -0.35542  -0.34198  -0.30615
 Alpha virt. eigenvalues --   -0.17660  -0.14280  -0.10915  -0.08042  -0.07102
 Alpha virt. eigenvalues --   -0.03349  -0.02145  -0.01706  -0.00641   0.00044
 Alpha virt. eigenvalues --    0.00248   0.01081   0.01488   0.01767   0.02393

 Mulliken charges:
               1
     1  N   -0.750501
     2  H    0.335232
     3  H    0.328447
     4  C   -0.239602
     5  H    0.200700
     6  H    0.184434
     7  C    0.609474
     8  O   -0.558134
     9  N   -0.592007
    10  H    0.379431
    11  C   -0.061086
    12  H    0.187941
    13  C    0.636049
    14  C   -0.280848
    15  H    0.159884
    16  H    0.151293
    17  O   -0.553586
    18  C   -0.083501
    19  H    0.130224
    20  C   -0.444916
    21  H    0.146662
    22  H    0.159327
    23  H    0.149574
    24  C   -0.454717
    25  H    0.143841
    26  H    0.145764
    27  H    0.164142
    28  N   -0.635926
    29  H    0.407396
    30  C   -0.038093
    31  H    0.200975
    32  C    0.630186
    33  C   -0.111831
    34  H    0.170053
    35  O   -0.553170
    36  C   -0.464894
    37  H    0.161125
    38  H    0.182444
    39  H    0.145199
    40  C   -0.476275
    41  H    0.151247
    42  H    0.174111
    43  H    0.179689
    44  N   -0.586059
    45  H    0.432550
    46  C   -0.073059
    47  H    0.207632
    48  C    0.628456
    49  C   -0.308509
    50  H    0.169190
    51  H    0.186838
    52  O   -0.387094
    53  C   -0.273478
    54  H    0.135416
    55  H    0.190538
    56  C   -0.260714
    57  H    0.137736
    58  H    0.141758
    59  C   -0.143918
    60  H    0.143849
    61  H    0.134914
    62  N   -0.720649
    63  H    0.311119
    64  H    0.302330
    65  O   -0.615373
    66  H    0.479302
    67  H    0.451468
 Sum of Mulliken charges =   1.00000

 Dipole moment (field-independent basis, Debye):
    X=              3.3766    Y=              4.7795    Z=             -4.2719  Tot=              7.2453
 Quadrupole moment (field-independent basis, Debye-Ang):
   XX=           -108.0797   YY=           -154.6170   ZZ=           -109.1125
   XY=              5.4556   XZ=            -33.8381   YZ=            -34.6040

 Normal termination of Gaussian 16 at Fri May 27 02:43:51 2022.
