 Gaussian 16, Revision C.01,
 Gaussian 16:  ES64L-G16RevC.01  3-Jul-2019

 ----------------------------------------------------------------------
 # B3LYP/6-31G* empiricaldispersion=gd3 guess=read geom=check nosymm in
 tegral(ultrafinegrid)
 ----------------------------------------------------------------------

 ------------------------------------------------------
 Candidate Structure: Conf:370 Charge calc in gas phase
 ------------------------------------------------------
 Structure from the checkpoint file:  "conf-370.chk"
 Charge =  1 Multiplicity = 1

                          Input orientation:
 ---------------------------------------------------------------------
 Center     Atomic      Atomic             Coordinates (Angstroms)
 Number     Number       Type             X           Y           Z
 ---------------------------------------------------------------------
      1          7           0       -5.229809    2.181911   -3.026486
      2          1           0       -5.893758    2.170985   -3.805191
      3          1           0       -5.381073    3.028038   -2.471186
      4          1           0       -5.375515    1.309054   -2.444900
      5          6           0       -3.784211    2.024319   -3.472742
      6          1           0       -3.725366    2.300709   -4.526971
      7          6           0       -3.545940    0.511419   -3.261400
      8          6           0       -2.869727    2.942156   -2.619852
      9          1           0       -3.267548    3.958689   -2.778814
     10          8           0       -4.319252   -0.098714   -2.508890
     11          6           0       -1.414032    2.944988   -3.127128
     12          1           0       -0.948651    1.975085   -2.927447
     13          1           0       -0.854596    3.653582   -2.509150
     14          6           0       -2.934560    2.599595   -1.122369
     15          1           0       -2.509725    1.610716   -0.933518
     16          1           0       -2.348442    3.334611   -0.563169
     17          1           0       -3.952582    2.622846   -0.709276
     18          6           0       -1.233890    3.348374   -4.593288
     19          1           0       -0.172308    3.514547   -4.779333
     20          1           0       -1.565879    2.581209   -5.306972
     21          1           0       -1.776175    4.275242   -4.823207
     22          7           0       -2.527628   -0.036572   -3.925778
     23          1           0       -1.888475    0.568534   -4.433162
     24          6           0       -1.995659   -1.344471   -3.574034
     25          1           0       -2.835431   -2.043633   -3.510101
     26          6           0       -1.351334   -1.267596   -2.170419
     27          6           0       -0.991559   -1.833195   -4.671473
     28          1           0       -1.550946   -2.417855   -5.407770
     29          1           0       -0.268599   -2.505990   -4.198389
     30          8           0       -1.171332   -0.204600   -1.585108
     31          6           0       -0.253241   -0.711851   -5.374376
     32          6           0       -0.587816   -0.378180   -6.694932
     33          1           0       -1.348626   -0.954279   -7.217423
     34          6           0        0.725128    0.042330   -4.707097
     35          1           0        0.997782   -0.210181   -3.686125
     36          6           0        0.057630    0.673021   -7.349218
     37          1           0       -0.200423    0.909220   -8.377958
     38          6           0        1.356921    1.104161   -5.356335
     39          1           0        2.066767    1.716319   -4.813781
     40          6           0        1.029563    1.416030   -6.677935
     41          1           0        1.525556    2.243108   -7.178017
     42          7           0       -1.014961   -2.469097   -1.631361
     43          1           0       -1.005709   -3.272600   -2.246087
     44          6           0       -0.112591   -2.518603   -0.483486
     45          1           0       -0.634282   -2.073331    0.372822
     46          6           0        1.135550   -1.673105   -0.824920
     47          6           0        0.256101   -3.982131   -0.152878
     48          1           0        0.764064   -4.389402   -1.039652
     49          8           0        1.618851   -1.692198   -1.955339
     50          6           0        1.236451   -4.052149    1.028210
     51          1           0        0.784607   -3.615062    1.929538
     52          1           0        1.480321   -5.095878    1.251571
     53          1           0        2.168915   -3.519064    0.821855
     54          6           0       -0.995688   -4.821704    0.146534
     55          1           0       -1.519133   -4.431368    1.028161
     56          1           0       -1.710082   -4.827365   -0.682658
     57          1           0       -0.717782   -5.860733    0.352592
     58          7           0        1.637902   -0.939194    0.189980
     59          1           0        1.191725   -0.925237    1.097408
     60          6           0        2.670549    0.057596   -0.029571
     61          1           0        3.445737   -0.400081   -0.654827
     62          6           0        3.272347    0.430084    1.341949
     63          6           0        2.112222    1.318753   -0.763437
     64          1           0        1.154777    1.056153   -1.220500
     65          1           0        1.911858    2.105917   -0.026759
     66          8           0        2.809382   -0.107433    2.385836
     67          6           0        3.051511    1.864246   -1.856766
     68          1           0        3.036475    1.178114   -2.709371
     69          1           0        4.082876    1.943947   -1.505286
     70          6           0        2.558052    3.235560   -2.313705
     71          7           0        3.193431    4.284402   -1.757882
     72          1           0        3.946570    4.171453   -1.062276
     73          1           0        2.867501    5.210662   -1.998514
     74          8           0        1.606891    3.341308   -3.099232
     75          7           0        4.232185    1.349649    1.280516
     76          1           0        4.456263    1.786060    0.368866
     77          6           0        4.690665    2.345384    2.270038
     78          1           0        3.837586    2.618523    2.903457
     79          6           0        5.105353    3.622586    1.440302
     80          6           0        5.829474    1.847396    3.183383
     81          1           0        6.006087    2.618811    3.938194
     82          1           0        6.756334    1.717437    2.612903
     83          8           0        5.449437    4.592826    2.112833
     84          6           0        5.324933    0.529155    3.753182
     85          1           0        4.292765    0.741217    4.046911
     86          1           0        5.262540   -0.150740    2.894357
     87          6           0        5.946007   -0.270229    4.895151
     88          1           0        5.811048    0.225274    5.864329
     89          1           0        7.020727   -0.441695    4.766630
     90          6           0        5.257868   -1.647092    4.884407
     91          1           0        5.630376   -2.260372    4.059978
     92          1           0        5.366053   -2.203616    5.818545
     93          7           0        3.751245   -1.517643    4.624033
     94          1           0        3.307450   -2.440049    4.594964
     95          1           0        3.511376   -1.008821    3.718008
     96          1           0        3.297761   -0.983766    5.372709
     97          8           0        5.030459    3.462005    0.175003
 ---------------------------------------------------------------------

 SCF Done:  E(RB3LYP) =  -2122.44118782     A.U. after    1 cycles

 Alpha  occ. eigenvalues --  -19.25181 -19.21506 -19.21268 -19.19219 -19.14967
 Alpha  occ. eigenvalues --  -19.12186 -19.10482 -14.58458 -14.57590 -14.47834
 Alpha  occ. eigenvalues --  -14.45344 -14.43672 -14.42073 -14.37890 -10.41767
 Alpha  occ. eigenvalues --  -10.38273 -10.38221 -10.37425 -10.37325 -10.36347
 Alpha  occ. eigenvalues --  -10.33846 -10.32554 -10.32032 -10.31227 -10.30885
 Alpha  occ. eigenvalues --  -10.30107 -10.29653 -10.28987 -10.28666 -10.27226
 Alpha  occ. eigenvalues --  -10.27146 -10.27012 -10.26922 -10.26797 -10.26213
 Alpha  occ. eigenvalues --  -10.25944 -10.25852 -10.25586 -10.25392 -10.25163
 Alpha  occ. eigenvalues --  -10.25029 -10.24794 -10.24666 -10.24495 -10.23958
 Alpha  occ. eigenvalues --   -1.17639  -1.13609  -1.12257  -1.12191  -1.11439
 Alpha  occ. eigenvalues --   -1.10758  -1.06317  -1.04896  -1.04861  -1.01956
 Alpha  occ. eigenvalues --   -1.00251  -0.99237  -0.96188  -0.93074  -0.93009
 Alpha  occ. eigenvalues --   -0.92233  -0.91035  -0.89992  -0.87656  -0.86290
 Alpha  occ. eigenvalues --   -0.84436  -0.84108  -0.81982  -0.81276  -0.80787
 Alpha  occ. eigenvalues --   -0.80059  -0.78955  -0.77548  -0.76909  -0.74590
 Alpha  occ. eigenvalues --   -0.73471  -0.72957  -0.72267  -0.71470  -0.70906
 Alpha  occ. eigenvalues --   -0.70753  -0.70372  -0.69720  -0.68162  -0.67247
 Alpha  occ. eigenvalues --   -0.66693  -0.66432  -0.65775  -0.65537  -0.65091
 Alpha  occ. eigenvalues --   -0.63766  -0.63465  -0.62155  -0.61671  -0.61085
 Alpha  occ. eigenvalues --   -0.60587  -0.60081  -0.58820  -0.58598  -0.58130
 Alpha  occ. eigenvalues --   -0.57540  -0.57043  -0.56600  -0.55597  -0.54855
 Alpha  occ. eigenvalues --   -0.54503  -0.54058  -0.53650  -0.53020  -0.52803
 Alpha  occ. eigenvalues --   -0.52525  -0.52341  -0.52231  -0.52157  -0.51860
 Alpha  occ. eigenvalues --   -0.51603  -0.51065  -0.50836  -0.50167  -0.49794
 Alpha  occ. eigenvalues --   -0.49543  -0.49473  -0.49026  -0.48987  -0.48772
 Alpha  occ. eigenvalues --   -0.48258  -0.47960  -0.47723  -0.47178  -0.46956
 Alpha  occ. eigenvalues --   -0.46753  -0.46591  -0.46324  -0.46120  -0.45667
 Alpha  occ. eigenvalues --   -0.45364  -0.44909  -0.44723  -0.43725  -0.43094
 Alpha  occ. eigenvalues --   -0.42899  -0.42552  -0.42515  -0.42357  -0.42178
 Alpha  occ. eigenvalues --   -0.41822  -0.41454  -0.41284  -0.41204  -0.40973
 Alpha  occ. eigenvalues --   -0.40684  -0.40423  -0.40299  -0.39893  -0.39851
 Alpha  occ. eigenvalues --   -0.39442  -0.38759  -0.38263  -0.35950  -0.34967
 Alpha  occ. eigenvalues --   -0.34706  -0.33820  -0.33080  -0.32552  -0.31518
 Alpha  occ. eigenvalues --   -0.31351  -0.29871  -0.28982  -0.27245  -0.26935
 Alpha  occ. eigenvalues --   -0.24622
 Alpha virt. eigenvalues --   -0.10831  -0.09583  -0.09319  -0.08451  -0.07106
 Alpha virt. eigenvalues --   -0.06800  -0.06605  -0.05405  -0.04988  -0.03593
 Alpha virt. eigenvalues --   -0.02701  -0.01407  -0.01381  -0.00908  -0.00157

 Mulliken charges:
               1
     1  N   -0.757314
     2  H    0.412089
     3  H    0.411006
     4  H    0.429560
     5  C   -0.126568
     6  H    0.211166
     7  C    0.671972
     8  C   -0.105663
     9  H    0.140759
    10  O   -0.551517
    11  C   -0.280836
    12  H    0.188658
    13  H    0.182974
    14  C   -0.493378
    15  H    0.223455
    16  H    0.182561
    17  H    0.113815
    18  C   -0.488375
    19  H    0.224850
    20  H    0.126055
    21  H    0.133725
    22  N   -0.599077
    23  H    0.387470
    24  C   -0.081742
    25  H    0.195015
    26  C    0.660517
    27  C   -0.378240
    28  H    0.167608
    29  H    0.187302
    30  O   -0.528038
    31  C    0.082483
    32  C   -0.186706
    33  H    0.129361
    34  C   -0.207296
    35  H    0.193788
    36  C   -0.128486
    37  H    0.142304
    38  C   -0.120201
    39  H    0.175223
    40  C   -0.135485
    41  H    0.148462
    42  N   -0.604875
    43  H    0.339345
    44  C   -0.011110
    45  H    0.154372
    46  C    0.638109
    47  C   -0.116801
    48  H    0.153759
    49  O   -0.545994
    50  C   -0.464631
    51  H    0.128039
    52  H    0.161798
    53  H    0.163960
    54  C   -0.445814
    55  H    0.151253
    56  H    0.149338
    57  H    0.163247
    58  N   -0.609922
    59  H    0.335843
    60  C   -0.036269
    61  H    0.194964
    62  C    0.601403
    63  C   -0.304750
    64  H    0.198681
    65  H    0.159509
    66  O   -0.626293
    67  C   -0.381180
    68  H    0.171602
    69  H    0.186048
    70  C    0.576662
    71  N   -0.761947
    72  H    0.415155
    73  H    0.327730
    74  O   -0.555669
    75  N   -0.609508
    76  H    0.396631
    77  C   -0.088734
    78  H    0.157380
    79  C    0.599190
    80  C   -0.258498
    81  H    0.179505
    82  H    0.158184
    83  O   -0.541510
    84  C   -0.290560
    85  H    0.132492
    86  H    0.145718
    87  C   -0.275842
    88  H    0.169026
    89  H    0.189848
    90  C   -0.193540
    91  H    0.213030
    92  H    0.202595
    93  N   -0.775625
    94  H    0.402195
    95  H    0.458495
    96  H    0.405153
    97  O   -0.634447
 Sum of Mulliken charges =   1.00000

 Dipole moment (field-independent basis, Debye):
    X=            -11.2341    Y=             -8.7134    Z=              1.8757  Tot=             14.3404
 Quadrupole moment (field-independent basis, Debye-Ang):
   XX=           -180.3178   YY=           -253.9584   ZZ=           -142.4682
   XY=            -99.5146   XZ=            107.7131   YZ=            -56.5486

 Normal termination of Gaussian 16 at Sun Jun 19 06:03:03 2022.
