 Gaussian 16, Revision C.01,
 Gaussian 16:  ES64L-G16RevC.01  3-Jul-2019

 ----------------------------------------------------------------------
 # B3LYP/6-31G* empiricaldispersion=gd3 guess=read geom=check nosymm in
 tegral(ultrafinegrid)
 ----------------------------------------------------------------------

 ------------------------------------------------------
 Candidate Structure: Conf:121 Charge calc in gas phase
 ------------------------------------------------------
 Structure from the checkpoint file:  "conf-121.chk"
 Charge =  1 Multiplicity = 1

                          Input orientation:
 ---------------------------------------------------------------------
 Center     Atomic      Atomic             Coordinates (Angstroms)
 Number     Number       Type             X           Y           Z
 ---------------------------------------------------------------------
      1          7           0       -4.341261   -3.854233   -4.598147
      2          1           0       -4.089148   -4.191606   -5.530912
      3          1           0       -5.298946   -4.143808   -4.384383
      4          1           0       -3.649150   -4.250911   -3.893612
      5          6           0       -4.115331   -2.363195   -4.423714
      6          1           0       -4.113684   -1.901563   -5.412723
      7          6           0       -2.727288   -2.326587   -3.746627
      8          6           0       -5.233428   -1.763150   -3.528844
      9          1           0       -6.175269   -1.980607   -4.059496
     10          8           0       -2.345731   -3.362752   -3.176651
     11          6           0       -5.121781   -0.228170   -3.404489
     12          1           0       -4.234654    0.015481   -2.808649
     13          1           0       -5.979408    0.090750   -2.800697
     14          6           0       -5.268697   -2.407123   -2.130970
     15          1           0       -4.379251   -2.137404   -1.554216
     16          1           0       -6.146440   -2.042219   -1.589601
     17          1           0       -5.341776   -3.502184   -2.152988
     18          6           0       -5.141890    0.542430   -4.730436
     19          1           0       -5.214090    1.617985   -4.541721
     20          1           0       -4.238004    0.397219   -5.335807
     21          1           0       -6.004106    0.257265   -5.345920
     22          7           0       -2.074790   -1.173749   -3.771681
     23          1           0       -2.442508   -0.400183   -4.314678
     24          6           0       -0.936007   -0.883840   -2.893831
     25          1           0       -0.070759   -1.477978   -3.200736
     26          6           0       -1.380319   -1.191747   -1.445786
     27          6           0       -0.587078    0.623310   -3.005085
     28          1           0        0.396378    0.752380   -2.549261
     29          1           0       -1.319044    1.186124   -2.415876
     30          8           0       -2.460684   -0.770243   -1.029188
     31          6           0       -0.580871    1.110989   -4.437436
     32          6           0        0.449258    0.742243   -5.316720
     33          1           0        1.278627    0.151372   -4.933650
     34          6           0       -1.649963    1.877689   -4.924066
     35          1           0       -2.438495    2.191462   -4.241891
     36          6           0        0.402877    1.139519   -6.652854
     37          1           0        1.209069    0.856690   -7.324718
     38          6           0       -1.696465    2.270242   -6.265894
     39          1           0       -2.525519    2.874597   -6.624563
     40          6           0       -0.669212    1.898997   -7.133297
     41          1           0       -0.696909    2.206823   -8.174956
     42          7           0       -0.499000   -1.893831   -0.709811
     43          1           0        0.349543   -2.237428   -1.147487
     44          6           0       -0.618524   -2.119859    0.741015
     45          1           0       -1.327654   -1.376067    1.118022
     46          6           0        0.825749   -1.846579    1.199089
     47          6           0       -1.099861   -3.536968    1.093199
     48          1           0       -0.340316   -4.229205    0.708424
     49          8           0        1.699963   -2.658771    0.901390
     50          6           0       -1.169543   -3.690652    2.619055
     51          1           0       -1.892523   -2.987013    3.052186
     52          1           0       -1.487879   -4.702978    2.889834
     53          1           0       -0.195336   -3.511099    3.086772
     54          6           0       -2.448686   -3.849577    0.433321
     55          1           0       -3.220727   -3.146553    0.769879
     56          1           0       -2.384756   -3.785253   -0.657112
     57          1           0       -2.773790   -4.862256    0.698880
     58          7           0        1.098851   -0.621352    1.722040
     59          1           0        0.345821    0.043829    1.868561
     60          6           0        2.354212    0.007006    1.318328
     61          1           0        3.180156   -0.652646    1.596072
     62          6           0        2.498813    1.388480    1.957772
     63          6           0        2.349036    0.261080   -0.226799
     64          1           0        1.338630    0.053924   -0.590831
     65          1           0        2.557671    1.312837   -0.435021
     66          8           0        1.531526    1.994066    2.407890
     67          6           0        3.357200   -0.573780   -1.027837
     68          1           0        3.165067   -1.640549   -0.897948
     69          1           0        4.371814   -0.338040   -0.694461
     70          6           0        3.164812   -0.200159   -2.487739
     71          7           0        3.884701    0.863878   -2.900550
     72          1           0        4.384006    1.451362   -2.215805
     73          1           0        3.679712    1.246629   -3.813981
     74          8           0        2.334462   -0.797235   -3.194164
     75          7           0        3.756203    1.908840    1.805732
     76          1           0        4.344118    1.350328    1.184004
     77          6           0        3.920040    3.310764    1.395429
     78          1           0        2.922214    3.737512    1.243608
     79          6           0        4.683703    3.342971    0.006056
     80          6           0        4.644586    4.174560    2.431969
     81          1           0        4.112382    4.131840    3.391017
     82          1           0        4.616279    5.204237    2.060679
     83          8           0        5.093698    4.456668   -0.351581
     84          6           0        6.106259    3.752458    2.607784
     85          1           0        6.157462    2.732862    3.011648
     86          1           0        6.576053    3.749413    1.617363
     87          6           0        6.881985    4.717665    3.515650
     88          1           0        6.466135    4.709038    4.533427
     89          1           0        6.773675    5.738378    3.121228
     90          6           0        8.352823    4.340082    3.548110
     91          1           0        8.532437    3.369866    4.017723
     92          1           0        8.801347    4.345514    2.551692
     93          7           0        9.151944    5.363228    4.372448
     94          1           0       10.154128    5.143421    4.415219
     95          1           0        8.795126    5.409397    5.334349
     96          1           0        9.050515    6.301894    3.967482
     97          8           0        4.807401    2.211699   -0.565856
 ---------------------------------------------------------------------

 SCF Done:  E(RB3LYP) =  -2122.41623806     A.U. after    1 cycles

 Alpha  occ. eigenvalues --  -19.24298 -19.18286 -19.16522 -19.15435 -19.14644
 Alpha  occ. eigenvalues --  -19.10429 -19.09115 -14.62562 -14.57888 -14.46930
 Alpha  occ. eigenvalues --  -14.42861 -14.40088 -14.37332 -14.37251 -10.40750
 Alpha  occ. eigenvalues --  -10.38937 -10.38042 -10.35543 -10.33512 -10.31918
 Alpha  occ. eigenvalues --  -10.31695 -10.31643 -10.31091 -10.30715 -10.28530
 Alpha  occ. eigenvalues --  -10.27996 -10.27594 -10.27146 -10.26986 -10.26721
 Alpha  occ. eigenvalues --  -10.25833 -10.25803 -10.25587 -10.25232 -10.25151
 Alpha  occ. eigenvalues --  -10.24825 -10.24691 -10.23976 -10.23961 -10.23904
 Alpha  occ. eigenvalues --  -10.22684 -10.22604 -10.22029 -10.22011 -10.21715
 Alpha  occ. eigenvalues --   -1.16840  -1.16379  -1.11692  -1.10162  -1.08570
 Alpha  occ. eigenvalues --   -1.06844  -1.05597  -1.03704  -1.02993  -0.98958
 Alpha  occ. eigenvalues --   -0.96777  -0.95349  -0.93845  -0.92870  -0.92407
 Alpha  occ. eigenvalues --   -0.92050  -0.91529  -0.87000  -0.85375  -0.84155
 Alpha  occ. eigenvalues --   -0.83996  -0.82671  -0.82019  -0.80293  -0.79999
 Alpha  occ. eigenvalues --   -0.78298  -0.77251  -0.75380  -0.75027  -0.74055
 Alpha  occ. eigenvalues --   -0.73901  -0.73027  -0.72355  -0.71731  -0.71389
 Alpha  occ. eigenvalues --   -0.70103  -0.69525  -0.66867  -0.66391  -0.65972
 Alpha  occ. eigenvalues --   -0.65661  -0.65281  -0.64585  -0.63373  -0.62972
 Alpha  occ. eigenvalues --   -0.62453  -0.61884  -0.60711  -0.59845  -0.59725
 Alpha  occ. eigenvalues --   -0.59511  -0.58906  -0.58467  -0.57481  -0.56367
 Alpha  occ. eigenvalues --   -0.55998  -0.55615  -0.53929  -0.53705  -0.53123
 Alpha  occ. eigenvalues --   -0.52895  -0.52572  -0.52393  -0.51849  -0.51701
 Alpha  occ. eigenvalues --   -0.51147  -0.50963  -0.50759  -0.50141  -0.49626
 Alpha  occ. eigenvalues --   -0.49584  -0.49551  -0.49375  -0.48496  -0.48213
 Alpha  occ. eigenvalues --   -0.47789  -0.47484  -0.47379  -0.47011  -0.46813
 Alpha  occ. eigenvalues --   -0.46378  -0.45899  -0.45699  -0.45431  -0.44637
 Alpha  occ. eigenvalues --   -0.44341  -0.44261  -0.43948  -0.43512  -0.43440
 Alpha  occ. eigenvalues --   -0.43367  -0.43033  -0.42874  -0.42693  -0.42546
 Alpha  occ. eigenvalues --   -0.42449  -0.41873  -0.41431  -0.40955  -0.40188
 Alpha  occ. eigenvalues --   -0.39756  -0.39680  -0.39537  -0.39357  -0.39102
 Alpha  occ. eigenvalues --   -0.38621  -0.38355  -0.38242  -0.38165  -0.37847
 Alpha  occ. eigenvalues --   -0.37758  -0.36652  -0.36180  -0.32614  -0.32114
 Alpha  occ. eigenvalues --   -0.31066  -0.30867  -0.30350  -0.29765  -0.29431
 Alpha  occ. eigenvalues --   -0.29038  -0.28763  -0.27970  -0.25674  -0.25020
 Alpha  occ. eigenvalues --   -0.23044
 Alpha virt. eigenvalues --   -0.13169  -0.10000  -0.09054  -0.06964  -0.06630
 Alpha virt. eigenvalues --   -0.06492  -0.06349  -0.05393  -0.04548  -0.03462
 Alpha virt. eigenvalues --   -0.03272  -0.02223  -0.01660  -0.00033   0.00413

 Mulliken charges:
               1
     1  N   -0.758094
     2  H    0.412920
     3  H    0.409770
     4  H    0.433363
     5  C   -0.125352
     6  H    0.206265
     7  C    0.676091
     8  C   -0.104187
     9  H    0.142577
    10  O   -0.549718
    11  C   -0.290246
    12  H    0.194609
    13  H    0.168762
    14  C   -0.500611
    15  H    0.238952
    16  H    0.180333
    17  H    0.123100
    18  C   -0.480980
    19  H    0.180691
    20  H    0.144297
    21  H    0.153859
    22  N   -0.602109
    23  H    0.367453
    24  C   -0.038349
    25  H    0.216401
    26  C    0.628087
    27  C   -0.401277
    28  H    0.209013
    29  H    0.174964
    30  O   -0.548761
    31  C    0.112954
    32  C   -0.190398
    33  H    0.193495
    34  C   -0.223016
    35  H    0.136696
    36  C   -0.136679
    37  H    0.144600
    38  C   -0.131123
    39  H    0.138168
    40  C   -0.130117
    41  H    0.141717
    42  N   -0.606066
    43  H    0.364871
    44  C   -0.021503
    45  H    0.165074
    46  C    0.589754
    47  C   -0.066106
    48  H    0.152907
    49  O   -0.527851
    50  C   -0.462815
    51  H    0.142315
    52  H    0.152764
    53  H    0.165690
    54  C   -0.474897
    55  H    0.146170
    56  H    0.163743
    57  H    0.139792
    58  N   -0.596072
    59  H    0.342467
    60  C   -0.046003
    61  H    0.183752
    62  C    0.558675
    63  C   -0.317802
    64  H    0.138625
    65  H    0.190978
    66  O   -0.523348
    67  C   -0.341053
    68  H    0.179973
    69  H    0.169226
    70  C    0.556282
    71  N   -0.750294
    72  H    0.404221
    73  H    0.326593
    74  O   -0.557910
    75  N   -0.590248
    76  H    0.341265
    77  C   -0.088344
    78  H    0.166833
    79  C    0.569610
    80  C   -0.243622
    81  H    0.134997
    82  H    0.156153
    83  O   -0.573221
    84  C   -0.280481
    85  H    0.151434
    86  H    0.184600
    87  C   -0.291530
    88  H    0.159332
    89  H    0.167319
    90  C   -0.208248
    91  H    0.223878
    92  H    0.234224
    93  N   -0.732117
    94  H    0.425518
    95  H    0.423174
    96  H    0.425808
    97  O   -0.616605
 Sum of Mulliken charges =   1.00000

 Dipole moment (field-independent basis, Debye):
    X=             10.8313    Y=              5.5173    Z=              0.5486  Tot=             12.1679
 Quadrupole moment (field-independent basis, Debye-Ang):
   XX=             99.3984   YY=           -149.5002   ZZ=           -102.4606
   XY=            212.1822   XZ=            242.7478   YZ=            136.7503

 Normal termination of Gaussian 16 at Sun Jun 19 06:02:59 2022.
