 Gaussian 16, Revision C.01,
 Gaussian 16:  ES64L-G16RevC.01  3-Jul-2019

 ----------------------------------------------------------------------
 # B3LYP/6-31G* empiricaldispersion=gd3 guess=read geom=check nosymm in
 tegral(ultrafinegrid)
 ----------------------------------------------------------------------

 ------------------------------------------------------
 Candidate Structure: Conf:584 Charge calc in gas phase
 ------------------------------------------------------
 Structure from the checkpoint file:  "conf-584.chk"
 Charge =  1 Multiplicity = 1

                          Input orientation:
 ---------------------------------------------------------------------
 Center     Atomic      Atomic             Coordinates (Angstroms)
 Number     Number       Type             X           Y           Z
 ---------------------------------------------------------------------
      1          7           0       -3.376682    0.729693   -4.823537
      2          1           0       -2.564984    0.429808   -5.395189
      3          1           0       -3.703990    1.648514   -5.132115
      4          1           0       -4.110088    0.007437   -4.958222
      5          6           0       -3.041910    0.674933   -3.342433
      6          1           0       -2.033030    1.073606   -3.221306
      7          6           0       -3.085345   -0.843062   -3.084812
      8          6           0       -4.075884    1.482170   -2.520658
      9          1           0       -3.951519    2.533928   -2.826258
     10          8           0       -3.982091   -1.496189   -3.633900
     11          6           0       -3.759072    1.396931   -1.010173
     12          1           0       -3.745498    0.343800   -0.701134
     13          1           0       -4.599370    1.859993   -0.479859
     14          6           0       -5.530867    1.063357   -2.794647
     15          1           0       -5.708045    0.024419   -2.505564
     16          1           0       -6.206762    1.703716   -2.220504
     17          1           0       -5.818806    1.168329   -3.848572
     18          6           0       -2.457032    2.081318   -0.580443
     19          1           0       -2.349420    2.039577    0.507924
     20          1           0       -1.577061    1.602837   -1.016966
     21          1           0       -2.454919    3.139049   -0.874765
     22          7           0       -2.111346   -1.338363   -2.318468
     23          1           0       -1.340615   -0.723051   -2.050067
     24          6           0       -1.868693   -2.769587   -2.246973
     25          1           0       -2.825718   -3.271210   -2.414303
     26          6           0       -1.333711   -3.075938   -0.836353
     27          6           0       -0.845159   -3.203280   -3.355043
     28          1           0       -0.919089   -4.289452   -3.487034
     29          1           0        0.166123   -2.995880   -2.991100
     30          8           0       -1.278041   -2.198181    0.018653
     31          6           0       -1.086320   -2.513523   -4.680594
     32          6           0       -2.008020   -3.019693   -5.607041
     33          1           0       -2.534637   -3.944321   -5.385538
     34          6           0       -0.432331   -1.309362   -4.976041
     35          1           0        0.261340   -0.885395   -4.257010
     36          6           0       -2.272647   -2.347098   -6.800384
     37          1           0       -2.985469   -2.761998   -7.507161
     38          6           0       -0.690213   -0.629273   -6.173322
     39          1           0       -0.143399    0.283100   -6.401244
     40          6           0       -1.612118   -1.148885   -7.092267
     41          1           0       -1.794936   -0.638643   -8.034531
     42          7           0       -0.871970   -4.341017   -0.612412
     43          1           0       -0.733101   -4.923468   -1.428408
     44          6           0        0.151087   -4.513060    0.430672
     45          1           0       -0.304842   -4.269176    1.395699
     46          6           0        1.273564   -3.505361    0.099048
     47          6           0        0.667330   -5.965902    0.451106
     48          1           0        1.103114   -6.161600   -0.540509
     49          8           0        1.644039   -3.358805   -1.067911
     50          6           0        1.776113   -6.133196    1.500622
     51          1           0        1.397748   -5.909311    2.506186
     52          1           0        2.137774   -7.166292    1.505692
     53          1           0        2.630896   -5.477816    1.307627
     54          6           0       -0.476456   -6.958052    0.706734
     55          1           0       -0.924186   -6.783544    1.692743
     56          1           0       -1.274555   -6.876670   -0.038020
     57          1           0       -0.099331   -7.985962    0.687243
     58          7           0        1.788062   -2.773630    1.115801
     59          1           0        1.356120   -2.782031    2.033546
     60          6           0        2.518663   -1.563563    0.783207
     61          1           0        3.312781   -1.831441    0.079713
     62          6           0        3.086391   -0.931907    2.048509
     63          6           0        1.578066   -0.482553    0.144557
     64          1           0        0.569854   -0.896608    0.094898
     65          1           0        1.535341    0.398942    0.790431
     66          8           0        2.580613   -1.109991    3.148429
     67          6           0        2.021593   -0.042577   -1.259490
     68          1           0        2.017377   -0.904772   -1.930188
     69          1           0        3.030503    0.382434   -1.223750
     70          6           0        1.039566    0.992328   -1.769456
     71          7           0        1.290501    2.265385   -1.413827
     72          1           0        2.038084    2.494013   -0.760140
     73          1           0        0.599295    2.971646   -1.627298
     74          8           0        0.030588    0.668723   -2.427934
     75          7           0        4.107190   -0.047747    1.808205
     76          1           0        4.326368    0.100515    0.831108
     77          6           0        4.268841    1.138282    2.642275
     78          1           0        3.474452    1.089363    3.398784
     79          6           0        3.955777    2.379891    1.766108
     80          6           0        5.614747    1.187464    3.375272
     81          1           0        5.725393    0.239686    3.911667
     82          1           0        5.546409    1.958125    4.147334
     83          8           0        4.363600    3.567004    2.163180
     84          6           0        6.840657    1.433869    2.467271
     85          1           0        7.252287    0.468950    2.152752
     86          1           0        6.536930    1.944061    1.541669
     87          6           0        7.942708    2.274268    3.137978
     88          1           0        8.904779    2.085136    2.646825
     89          1           0        8.069478    1.957384    4.183351
     90          6           0        7.704410    3.787934    3.077588
     91          1           0        8.566176    4.311922    3.514513
     92          1           0        7.631023    4.100461    2.029261
     93          7           0        6.434736    4.197610    3.731118
     94          1           0        6.331350    5.210876    3.664188
     95          1           0        6.476733    3.987889    4.729058
     96          1           0        5.086879    3.623713    2.885455
     97          8           0        3.298870    2.253919    0.739938
 ---------------------------------------------------------------------

 SCF Done:  E(RB3LYP) =  -2122.51590126     A.U. after    3 cycles

 Alpha  occ. eigenvalues --  -19.24978 -19.22617 -19.21430 -19.21129 -19.20577
 Alpha  occ. eigenvalues --  -19.19858 -19.19160 -14.56863 -14.45896 -14.44118
 Alpha  occ. eigenvalues --  -14.43993 -14.43614 -14.43326 -14.43288 -10.39854
 Alpha  occ. eigenvalues --  -10.39643 -10.38078 -10.37501 -10.36667 -10.36201
 Alpha  occ. eigenvalues --  -10.36067 -10.32884 -10.31573 -10.31093 -10.31018
 Alpha  occ. eigenvalues --  -10.30857 -10.29987 -10.28906 -10.28723 -10.28657
 Alpha  occ. eigenvalues --  -10.28409 -10.28224 -10.28094 -10.27948 -10.27468
 Alpha  occ. eigenvalues --  -10.27461 -10.27153 -10.27030 -10.26648 -10.26604
 Alpha  occ. eigenvalues --  -10.26463 -10.26458 -10.25565 -10.24311 -10.24265
 Alpha  occ. eigenvalues --   -1.16804  -1.15333  -1.12869  -1.12066  -1.11825
 Alpha  occ. eigenvalues --   -1.10829  -1.10661  -1.08495  -1.03039  -1.00775
 Alpha  occ. eigenvalues --   -1.00549  -0.99900  -0.99042  -0.98756  -0.94894
 Alpha  occ. eigenvalues --   -0.92164  -0.89016  -0.88402  -0.87462  -0.86868
 Alpha  occ. eigenvalues --   -0.84474  -0.83651  -0.83634  -0.82580  -0.81210
 Alpha  occ. eigenvalues --   -0.80545  -0.77669  -0.76555  -0.75360  -0.74967
 Alpha  occ. eigenvalues --   -0.73111  -0.71582  -0.71268  -0.70804  -0.70215
 Alpha  occ. eigenvalues --   -0.69401  -0.69174  -0.68615  -0.67661  -0.67467
 Alpha  occ. eigenvalues --   -0.66878  -0.66547  -0.66086  -0.65737  -0.65221
 Alpha  occ. eigenvalues --   -0.65143  -0.63425  -0.62277  -0.62167  -0.60346
 Alpha  occ. eigenvalues --   -0.59760  -0.59159  -0.58807  -0.58606  -0.57278
 Alpha  occ. eigenvalues --   -0.57080  -0.56527  -0.56064  -0.55315  -0.55222
 Alpha  occ. eigenvalues --   -0.55029  -0.54865  -0.54511  -0.53981  -0.53894
 Alpha  occ. eigenvalues --   -0.53327  -0.53097  -0.52593  -0.52430  -0.52150
 Alpha  occ. eigenvalues --   -0.51372  -0.51271  -0.51032  -0.50868  -0.50515
 Alpha  occ. eigenvalues --   -0.50256  -0.50121  -0.49574  -0.49452  -0.49172
 Alpha  occ. eigenvalues --   -0.48901  -0.48706  -0.48317  -0.48101  -0.47405
 Alpha  occ. eigenvalues --   -0.47252  -0.46698  -0.46251  -0.46047  -0.45764
 Alpha  occ. eigenvalues --   -0.45651  -0.45615  -0.45245  -0.44915  -0.44812
 Alpha  occ. eigenvalues --   -0.44606  -0.44187  -0.43469  -0.43244  -0.42959
 Alpha  occ. eigenvalues --   -0.42920  -0.42518  -0.42314  -0.42130  -0.41994
 Alpha  occ. eigenvalues --   -0.41623  -0.41360  -0.40990  -0.40950  -0.40610
 Alpha  occ. eigenvalues --   -0.40230  -0.38458  -0.37259  -0.36295  -0.36019
 Alpha  occ. eigenvalues --   -0.35910  -0.35306  -0.35004  -0.34771  -0.34324
 Alpha  occ. eigenvalues --   -0.34212  -0.33983  -0.33526  -0.33431  -0.32736
 Alpha  occ. eigenvalues --   -0.32015
 Alpha virt. eigenvalues --   -0.10556  -0.09887  -0.09353  -0.08006  -0.07363
 Alpha virt. eigenvalues --   -0.06991  -0.06766  -0.05051  -0.04890  -0.01723
 Alpha virt. eigenvalues --   -0.01238  -0.01008  -0.00399   0.00296   0.00631

 Mulliken charges:
               1
     1  N   -0.764763
     2  H    0.413940
     3  H    0.398416
     4  H    0.420777
     5  C   -0.134223
     6  H    0.234350
     7  C    0.644898
     8  C   -0.098791
     9  H    0.137535
    10  O   -0.554717
    11  C   -0.270938
    12  H    0.172484
    13  H    0.159994
    14  C   -0.472179
    15  H    0.196136
    16  H    0.178116
    17  H    0.123046
    18  C   -0.484380
    19  H    0.170746
    20  H    0.169547
    21  H    0.138807
    22  N   -0.593801
    23  H    0.397434
    24  C   -0.080987
    25  H    0.208796
    26  C    0.635491
    27  C   -0.404474
    28  H    0.157405
    29  H    0.215041
    30  O   -0.518251
    31  C    0.160886
    32  C   -0.146069
    33  H    0.147982
    34  C   -0.183345
    35  H    0.176070
    36  C   -0.133526
    37  H    0.156813
    38  C   -0.213793
    39  H    0.152467
    40  C   -0.160059
    41  H    0.152458
    42  N   -0.601200
    43  H    0.340832
    44  C   -0.021927
    45  H    0.166723
    46  C    0.627086
    47  C   -0.115865
    48  H    0.144137
    49  O   -0.556928
    50  C   -0.461990
    51  H    0.149964
    52  H    0.163605
    53  H    0.165329
    54  C   -0.444881
    55  H    0.155099
    56  H    0.147851
    57  H    0.161573
    58  N   -0.603780
    59  H    0.354313
    60  C   -0.030790
    61  H    0.181007
    62  C    0.576913
    63  C   -0.331045
    64  H    0.215903
    65  H    0.177438
    66  O   -0.509623
    67  C   -0.356925
    68  H    0.194279
    69  H    0.156527
    70  C    0.592129
    71  N   -0.741814
    72  H    0.405537
    73  H    0.340166
    74  O   -0.565389
    75  N   -0.574789
    76  H    0.336738
    77  C   -0.093821
    78  H    0.210876
    79  C    0.591587
    80  C   -0.281280
    81  H    0.177826
    82  H    0.143067
    83  O   -0.604671
    84  C   -0.278505
    85  H    0.162157
    86  H    0.137459
    87  C   -0.276006
    88  H    0.161142
    89  H    0.148276
    90  C   -0.144577
    91  H    0.157374
    92  H    0.165928
    93  N   -0.779805
    94  H    0.342332
    95  H    0.331496
    96  H    0.485335
    97  O   -0.497733
 Sum of Mulliken charges =   1.00000

 Dipole moment (field-independent basis, Debye):
    X=              2.5071    Y=              4.6883    Z=             -8.5362  Tot=             10.0565
 Quadrupole moment (field-independent basis, Debye-Ang):
   XX=           -153.2949   YY=           -201.8940   ZZ=           -171.3587
   XY=             27.5412   XZ=             86.4213   YZ=             11.4668

 Normal termination of Gaussian 16 at Sun Jun 19 06:03:59 2022.
