 Gaussian 16, Revision C.01,
 Gaussian 16:  ES64L-G16RevC.01  3-Jul-2019

 ----------------------------------------------------------------------
 # B3LYP/6-31G* empiricaldispersion=gd3 guess=read geom=check nosymm in
 tegral(ultrafinegrid)
 ----------------------------------------------------------------------

 ------------------------------------------------------
 Candidate Structure: Conf:578 Charge calc in gas phase
 ------------------------------------------------------
 Structure from the checkpoint file:  "conf-578.chk"
 Charge =  1 Multiplicity = 1

                          Input orientation:
 ---------------------------------------------------------------------
 Center     Atomic      Atomic             Coordinates (Angstroms)
 Number     Number       Type             X           Y           Z
 ---------------------------------------------------------------------
      1          7           0       -5.843993   -3.792927   -3.585852
      2          1           0       -6.079944   -4.076382   -4.540972
      3          1           0       -6.572450   -4.129066   -2.950252
      4          1           0       -4.898686   -4.202964   -3.337671
      5          6           0       -5.583314   -2.301446   -3.456496
      6          1           0       -6.063585   -1.805078   -4.301499
      7          6           0       -4.040305   -2.234698   -3.545003
      8          6           0       -6.157439   -1.784008   -2.110837
      9          1           0       -7.231555   -2.030259   -2.145106
     10          8           0       -3.407529   -3.274770   -3.320460
     11          6           0       -6.045042   -0.249794   -1.977510
     12          1           0       -4.991043    0.016853   -1.840685
     13          1           0       -6.539097    0.011035   -1.034359
     14          6           0       -5.508226   -2.476106   -0.899562
     15          1           0       -4.456664   -2.188966   -0.810370
     16          1           0       -6.024406   -2.164239    0.013008
     17          1           0       -5.566071   -3.571694   -0.938264
     18          6           0       -6.693579    0.558650   -3.108412
     19          1           0       -6.688542    1.625178   -2.864986
     20          1           0       -6.175893    0.455281   -4.072475
     21          1           0       -7.737204    0.261739   -3.268391
     22          7           0       -3.488882   -1.061596   -3.867126
     23          1           0       -4.086163   -0.244638   -3.887856
     24          6           0       -2.061497   -0.820204   -3.642728
     25          1           0       -1.513419   -1.641119   -4.111991
     26          6           0       -1.799317   -0.830300   -2.117151
     27          6           0       -1.664034    0.521307   -4.298619
     28          1           0       -2.206943    1.330870   -3.793019
     29          1           0       -2.015433    0.493225   -5.338577
     30          8           0       -2.713686   -0.612021   -1.314454
     31          6           0       -0.174157    0.787200   -4.254190
     32          6           0        0.346976    1.849579   -3.506140
     33          1           0       -0.330367    2.502409   -2.959072
     34          6           0        0.709333   -0.045742   -4.955864
     35          1           0        0.318203   -0.866558   -5.555330
     36          6           0        1.722734    2.085307   -3.472127
     37          1           0        2.140607    2.918392   -2.915839
     38          6           0        2.086008    0.177065   -4.905667
     39          1           0        2.757830   -0.478206   -5.452877
     40          6           0        2.595396    1.246322   -4.167003
     41          1           0        3.658148    1.457040   -4.121410
     42          7           0       -0.530697   -1.075088   -1.766068
     43          1           0        0.207827   -1.169999   -2.460801
     44          6           0       -0.061125   -1.011929   -0.388839
     45          1           0       -0.553047   -0.164483    0.103698
     46          6           0        1.452642   -0.766172   -0.490727
     47          6           0       -0.421419   -2.307460    0.395284
     48          1           0       -1.508041   -2.403019    0.274759
     49          8           0        2.074824   -1.091925   -1.501802
     50          6           0        0.251577   -3.548042   -0.203819
     51          1           0        1.342276   -3.494649   -0.112568
     52          1           0       -0.086597   -4.451660    0.314896
     53          1           0        0.010359   -3.656218   -1.266062
     54          6           0       -0.123377   -2.169009    1.894205
     55          1           0        0.953624   -2.113424    2.086829
     56          1           0       -0.595817   -1.273108    2.318318
     57          1           0       -0.511962   -3.036336    2.438420
     58          7           0        2.046438   -0.195899    0.580599
     59          1           0        1.520157    0.114632    1.386740
     60          6           0        3.455649    0.156996    0.536346
     61          1           0        4.004163   -0.701286    0.135292
     62          6           0        3.929399    0.473107    1.953541
     63          6           0        3.725088    1.398323   -0.372411
     64          1           0        2.873981    1.520167   -1.044568
     65          1           0        3.775894    2.299764    0.251122
     66          8           0        3.069253    0.721705    2.847552
     67          6           0        5.002544    1.270974   -1.219831
     68          1           0        4.807975    0.572539   -2.039774
     69          1           0        5.841849    0.890611   -0.634516
     70          6           0        5.358505    2.636561   -1.804371
     71          7           0        6.400182    3.252683   -1.206134
     72          1           0        6.880020    2.853338   -0.389956
     73          1           0        6.635868    4.184531   -1.519559
     74          8           0        4.693656    3.133555   -2.718343
     75          7           0        5.239296    0.548149    2.116683
     76          1           0        5.846889    0.520298    1.283872
     77          6           0        5.975051    1.324427    3.118452
     78          1           0        5.301959    2.050108    3.584502
     79          6           0        7.048792    2.180295    2.324658
     80          6           0        6.640278    0.432982    4.167906
     81          1           0        7.402027    1.035743    4.674782
     82          1           0        7.168001   -0.370258    3.640567
     83          8           0        7.585285    3.067122    2.990571
     84          6           0        5.661927   -0.167318    5.190844
     85          1           0        4.792164   -0.579246    4.659696
     86          1           0        6.135831   -1.019423    5.689689
     87          6           0        5.207802    0.850036    6.272967
     88          1           0        5.721982    1.812081    6.135082
     89          1           0        5.510457    0.501332    7.266454
     90          6           0        3.705604    1.104981    6.354403
     91          1           0        3.134517    0.172409    6.358537
     92          1           0        3.444078    1.679782    7.247538
     93          7           0        3.215631    1.894701    5.163863
     94          1           0        2.229451    2.150368    5.266076
     95          1           0        3.295386    1.353828    4.213002
     96          1           0        3.748256    2.764851    5.067881
     97          8           0        7.201433    1.815679    1.116798
 ---------------------------------------------------------------------

 SCF Done:  E(RB3LYP) =  -2122.45752003     A.U. after    3 cycles

 Alpha  occ. eigenvalues --  -19.26950 -19.22406 -19.20850 -19.19349 -19.13551
 Alpha  occ. eigenvalues --  -19.12227 -19.10784 -14.60264 -14.54189 -14.49758
 Alpha  occ. eigenvalues --  -14.44357 -14.43776 -14.42942 -14.36832 -10.43549
 Alpha  occ. eigenvalues --  -10.40465 -10.37890 -10.37854 -10.36455 -10.35239
 Alpha  occ. eigenvalues --  -10.34087 -10.33932 -10.31295 -10.31288 -10.30930
 Alpha  occ. eigenvalues --  -10.29868 -10.29807 -10.29336 -10.29111 -10.29070
 Alpha  occ. eigenvalues --  -10.28751 -10.27617 -10.27263 -10.26481 -10.26342
 Alpha  occ. eigenvalues --  -10.25393 -10.25205 -10.25111 -10.25006 -10.24586
 Alpha  occ. eigenvalues --  -10.24415 -10.24322 -10.23910 -10.23537 -10.22996
 Alpha  occ. eigenvalues --   -1.19479  -1.14161  -1.12995  -1.12633  -1.11298
 Alpha  occ. eigenvalues --   -1.09044  -1.06301  -1.05159  -1.04978  -1.01194
 Alpha  occ. eigenvalues --   -1.00275  -1.00072  -0.96489  -0.95213  -0.92191
 Alpha  occ. eigenvalues --   -0.91925  -0.89276  -0.89165  -0.87989  -0.86330
 Alpha  occ. eigenvalues --   -0.85891  -0.84222  -0.83621  -0.81278  -0.80130
 Alpha  occ. eigenvalues --   -0.79811  -0.78510  -0.76575  -0.76217  -0.75800
 Alpha  occ. eigenvalues --   -0.74490  -0.73970  -0.73599  -0.72626  -0.72302
 Alpha  occ. eigenvalues --   -0.69760  -0.68897  -0.68540  -0.68266  -0.67400
 Alpha  occ. eigenvalues --   -0.66630  -0.66435  -0.66090  -0.65286  -0.64743
 Alpha  occ. eigenvalues --   -0.64507  -0.64125  -0.62619  -0.62199  -0.60649
 Alpha  occ. eigenvalues --   -0.60266  -0.60085  -0.59759  -0.58703  -0.56898
 Alpha  occ. eigenvalues --   -0.56648  -0.56487  -0.56005  -0.55903  -0.55075
 Alpha  occ. eigenvalues --   -0.54803  -0.54480  -0.54099  -0.53965  -0.53269
 Alpha  occ. eigenvalues --   -0.53015  -0.52859  -0.52685  -0.52299  -0.51876
 Alpha  occ. eigenvalues --   -0.51704  -0.51574  -0.51256  -0.50603  -0.49930
 Alpha  occ. eigenvalues --   -0.49739  -0.49560  -0.49471  -0.49090  -0.48423
 Alpha  occ. eigenvalues --   -0.47896  -0.47730  -0.47615  -0.47178  -0.46642
 Alpha  occ. eigenvalues --   -0.46546  -0.46364  -0.45895  -0.45708  -0.45547
 Alpha  occ. eigenvalues --   -0.45436  -0.45221  -0.45037  -0.44908  -0.44665
 Alpha  occ. eigenvalues --   -0.44398  -0.43163  -0.42382  -0.42301  -0.41763
 Alpha  occ. eigenvalues --   -0.41511  -0.41279  -0.41172  -0.41117  -0.41002
 Alpha  occ. eigenvalues --   -0.40709  -0.40554  -0.40232  -0.39712  -0.39613
 Alpha  occ. eigenvalues --   -0.39336  -0.39064  -0.38693  -0.36679  -0.34870
 Alpha  occ. eigenvalues --   -0.34691  -0.34320  -0.33190  -0.32562  -0.30791
 Alpha  occ. eigenvalues --   -0.30161  -0.28693  -0.27868  -0.27040  -0.26838
 Alpha  occ. eigenvalues --   -0.24864
 Alpha virt. eigenvalues --   -0.12632  -0.11224  -0.07525  -0.07041  -0.06765
 Alpha virt. eigenvalues --   -0.06665  -0.06593  -0.06011  -0.05798  -0.04987
 Alpha virt. eigenvalues --   -0.02044  -0.01831  -0.01324  -0.00196   0.00299

 Mulliken charges:
               1
     1  N   -0.757423
     2  H    0.416779
     3  H    0.413202
     4  H    0.434263
     5  C   -0.126624
     6  H    0.209808
     7  C    0.676133
     8  C   -0.103567
     9  H    0.147595
    10  O   -0.542095
    11  C   -0.299171
    12  H    0.197025
    13  H    0.172229
    14  C   -0.495381
    15  H    0.229569
    16  H    0.183672
    17  H    0.124522
    18  C   -0.477606
    19  H    0.188567
    20  H    0.130760
    21  H    0.162987
    22  N   -0.593580
    23  H    0.361742
    24  C   -0.072435
    25  H    0.197728
    26  C    0.643667
    27  C   -0.382346
    28  H    0.157632
    29  H    0.173979
    30  O   -0.554840
    31  C    0.156814
    32  C   -0.187839
    33  H    0.121856
    34  C   -0.203968
    35  H    0.120002
    36  C   -0.142943
    37  H    0.171667
    38  C   -0.114316
    39  H    0.143028
    40  C   -0.123027
    41  H    0.180855
    42  N   -0.609855
    43  H    0.381276
    44  C   -0.039646
    45  H    0.161528
    46  C    0.634515
    47  C   -0.075106
    48  H    0.152804
    49  O   -0.537489
    50  C   -0.456005
    51  H    0.163680
    52  H    0.148231
    53  H    0.154499
    54  C   -0.468295
    55  H    0.157145
    56  H    0.135535
    57  H    0.158041
    58  N   -0.630819
    59  H    0.344407
    60  C   -0.024300
    61  H    0.195765
    62  C    0.608767
    63  C   -0.288471
    64  H    0.186538
    65  H    0.155016
    66  O   -0.642757
    67  C   -0.376458
    68  H    0.174193
    69  H    0.178228
    70  C    0.570634
    71  N   -0.764742
    72  H    0.408216
    73  H    0.331674
    74  O   -0.536709
    75  N   -0.565440
    76  H    0.386131
    77  C   -0.094235
    78  H    0.092076
    79  C    0.600641
    80  C   -0.263122
    81  H    0.183244
    82  H    0.158511
    83  O   -0.547817
    84  C   -0.289078
    85  H    0.143727
    86  H    0.163407
    87  C   -0.287547
    88  H    0.175585
    89  H    0.184278
    90  C   -0.192833
    91  H    0.202484
    92  H    0.193660
    93  N   -0.772816
    94  H    0.391423
    95  H    0.467698
    96  H    0.399597
    97  O   -0.618532
 Sum of Mulliken charges =   1.00000

 Dipole moment (field-independent basis, Debye):
    X=            -25.8757    Y=            -11.2397    Z=              0.7670  Tot=             28.2218
 Quadrupole moment (field-independent basis, Debye-Ang):
   XX=           -188.4290   YY=           -231.7111   ZZ=           -130.9482
   XY=             36.9189   XZ=            116.6771   YZ=             59.2654

 Normal termination of Gaussian 16 at Sun Jun 19 06:03:49 2022.
