 Gaussian 16, Revision C.01,
 Gaussian 16:  ES64L-G16RevC.01  3-Jul-2019

 ----------------------------------------------------------------------
 # B3LYP/6-31G* empiricaldispersion=gd3 guess=read geom=check nosymm in
 tegral(ultrafinegrid)
 ----------------------------------------------------------------------

 ------------------------------------------------------
 Candidate Structure: Conf:797 Charge calc in gas phase
 ------------------------------------------------------
 Structure from the checkpoint file:  "conf-797.chk"
 Charge =  1 Multiplicity = 1

                          Input orientation:
 ---------------------------------------------------------------------
 Center     Atomic      Atomic             Coordinates (Angstroms)
 Number     Number       Type             X           Y           Z
 ---------------------------------------------------------------------
      1          7           0       -3.565419   -0.450390   -5.725115
      2          1           0       -2.697484   -0.895200   -6.073923
      3          1           0       -3.901868    0.243889   -6.396356
      4          1           0       -4.254631   -1.219841   -5.587874
      5          6           0       -3.357779    0.109539   -4.328368
      6          1           0       -2.356759    0.542310   -4.288613
      7          6           0       -3.444555   -1.179111   -3.483852
      8          6           0       -4.444158    1.158284   -3.995916
      9          1           0       -4.376523    1.928680   -4.782043
     10          8           0       -4.248406   -2.051145   -3.849188
     11          6           0       -4.127067    1.849147   -2.648293
     12          1           0       -3.881068    1.088768   -1.895912
     13          1           0       -5.048378    2.331429   -2.300748
     14          6           0       -5.867225    0.576394   -4.010570
     15          1           0       -6.004939   -0.161193   -3.215366
     16          1           0       -6.590474    1.383593   -3.861188
     17          1           0       -6.122925    0.085733   -4.957986
     18          6           0       -3.012345    2.897651   -2.731363
     19          1           0       -2.827684    3.339014   -1.746688
     20          1           0       -2.068637    2.466486   -3.073815
     21          1           0       -3.291026    3.710877   -3.412754
     22          7           0       -2.605446   -1.262216   -2.453899
     23          1           0       -1.878948   -0.533452   -2.359963
     24          6           0       -2.352624   -2.534700   -1.803599
     25          1           0       -3.256652   -3.142352   -1.899532
     26          6           0       -2.048176   -2.253103   -0.320905
     27          6           0       -1.152254   -3.270826   -2.501400
     28          1           0       -1.181750   -4.329655   -2.218821
     29          1           0       -0.213017   -2.869422   -2.106298
     30          8           0       -2.131648   -1.121292    0.140753
     31          6           0       -1.186473   -3.147277   -4.009620
     32          6           0       -1.939680   -4.032977   -4.792457
     33          1           0       -2.477290   -4.845754   -4.311063
     34          6           0       -0.516956   -2.093064   -4.646123
     35          1           0        0.043826   -1.377750   -4.053147
     36          6           0       -2.025164   -3.876352   -6.175862
     37          1           0       -2.608870   -4.578929   -6.763832
     38          6           0       -0.596183   -1.930337   -6.034690
     39          1           0       -0.043169   -1.125071   -6.512883
     40          6           0       -1.350943   -2.824204   -6.806119
     41          1           0       -1.391684   -2.717596   -7.887304
     42          7           0       -1.637922   -3.325828    0.422668
     43          1           0       -1.344802   -4.144015   -0.098043
     44          6           0       -0.790606   -3.063068    1.597716
     45          1           0       -1.317443   -2.337116    2.223287
     46          6           0        0.520270   -2.471499    1.036572
     47          6           0       -0.532333   -4.355383    2.391008
     48          1           0       -0.014271   -5.047149    1.710621
     49          8           0        1.142687   -3.088968    0.167791
     50          6           0        0.400323   -4.072123    3.577780
     51          1           0       -0.053549   -3.346950    4.265623
     52          1           0        0.589777   -4.991892    4.140943
     53          1           0        1.366199   -3.672352    3.251851
     54          6           0       -1.845229   -4.994031    2.862077
     55          1           0       -2.375150   -4.325120    3.551865
     56          1           0       -2.518255   -5.209270    2.026432
     57          1           0       -1.646679   -5.932332    3.391438
     58          7           0        0.876166   -1.256495    1.495415
     59          1           0        0.317567   -0.767060    2.186499
     60          6           0        1.939687   -0.464082    0.900484
     61          1           0        2.872816   -1.040874    0.922832
     62          6           0        2.086172    0.807151    1.767232
     63          6           0        1.635495   -0.100049   -0.575546
     64          1           0        2.525647    0.346201   -1.030108
     65          1           0        1.435945   -1.031956   -1.111429
     66          8           0        1.384471    0.978552    2.768299
     67          6           0        0.454390    0.877981   -0.724945
     68          1           0        0.667927    1.794482   -0.169093
     69          1           0       -0.463583    0.429912   -0.339182
     70          6           0        0.238888    1.230208   -2.183707
     71          7           0        0.986921    2.223010   -2.667291
     72          1           0        1.714720    2.694222   -2.086023
     73          1           0        0.902904    2.445544   -3.650334
     74          8           0       -0.584356    0.598754   -2.893713
     75          7           0        2.977666    1.715602    1.304713
     76          1           0        3.289420    1.592241    0.338345
     77          6           0        2.747508    3.152250    1.494691
     78          1           0        1.734995    3.282765    1.896247
     79          6           0        2.771540    3.847939    0.080124
     80          6           0        3.736134    3.798925    2.460778
     81          1           0        3.559692    4.879548    2.422750
     82          1           0        4.761087    3.621283    2.106030
     83          8           0        2.883986    3.032646   -0.899825
     84          6           0        3.578198    3.262850    3.886291
     85          1           0        2.546456    3.422186    4.225702
     86          1           0        3.736445    2.177281    3.890611
     87          6           0        4.554330    3.938636    4.862539
     88          1           0        4.390514    5.025811    4.849846
     89          1           0        5.588266    3.759414    4.534143
     90          6           0        4.360222    3.404564    6.271035
     91          1           0        3.357102    3.599531    6.658124
     92          1           0        4.570984    2.335099    6.347764
     93          7           0        5.328120    4.096207    7.245851
     94          1           0        5.226003    3.761981    8.211690
     95          1           0        5.173721    5.111862    7.244391
     96          1           0        6.301685    3.939873    6.957866
     97          8           0        2.659878    5.075625    0.081768
 ---------------------------------------------------------------------

 SCF Done:  E(RB3LYP) =  -2122.45797214     A.U. after    1 cycles

 Alpha  occ. eigenvalues --  -19.20806 -19.18797 -19.17816 -19.17075 -19.16592
 Alpha  occ. eigenvalues --  -19.11338 -19.09907 -14.63528 -14.54872 -14.43426
 Alpha  occ. eigenvalues --  -14.42358 -14.41119 -14.39375 -14.38884 -10.40056
 Alpha  occ. eigenvalues --  -10.37660 -10.35693 -10.34367 -10.34250 -10.33717
 Alpha  occ. eigenvalues --  -10.33588 -10.31894 -10.31054 -10.29153 -10.28835
 Alpha  occ. eigenvalues --  -10.28799 -10.28725 -10.27406 -10.27275 -10.27165
 Alpha  occ. eigenvalues --  -10.27053 -10.26951 -10.26831 -10.26631 -10.26333
 Alpha  occ. eigenvalues --  -10.25747 -10.25409 -10.25345 -10.25125 -10.24205
 Alpha  occ. eigenvalues --  -10.23794 -10.23356 -10.23232 -10.23141 -10.22857
 Alpha  occ. eigenvalues --   -1.17341  -1.13466  -1.10863  -1.08917  -1.08705
 Alpha  occ. eigenvalues --   -1.08398  -1.08082  -1.03915  -1.00961  -0.98971
 Alpha  occ. eigenvalues --   -0.97611  -0.96735  -0.95261  -0.94427  -0.93386
 Alpha  occ. eigenvalues --   -0.93188  -0.90276  -0.87210  -0.85843  -0.85306
 Alpha  occ. eigenvalues --   -0.84085  -0.82663  -0.82140  -0.80620  -0.79544
 Alpha  occ. eigenvalues --   -0.79174  -0.78026  -0.76027  -0.75976  -0.74999
 Alpha  occ. eigenvalues --   -0.73969  -0.73314  -0.71316  -0.71019  -0.69165
 Alpha  occ. eigenvalues --   -0.69081  -0.68511  -0.67688  -0.67017  -0.66577
 Alpha  occ. eigenvalues --   -0.66032  -0.64982  -0.64336  -0.63887  -0.63527
 Alpha  occ. eigenvalues --   -0.63363  -0.62346  -0.61010  -0.60757  -0.60610
 Alpha  occ. eigenvalues --   -0.59370  -0.58747  -0.58080  -0.57368  -0.56447
 Alpha  occ. eigenvalues --   -0.55779  -0.55252  -0.54550  -0.54399  -0.53864
 Alpha  occ. eigenvalues --   -0.53672  -0.53362  -0.53273  -0.52421  -0.52110
 Alpha  occ. eigenvalues --   -0.51424  -0.51234  -0.50764  -0.50628  -0.50216
 Alpha  occ. eigenvalues --   -0.49735  -0.49579  -0.49354  -0.48943  -0.48881
 Alpha  occ. eigenvalues --   -0.48301  -0.48003  -0.47636  -0.47300  -0.47254
 Alpha  occ. eigenvalues --   -0.46639  -0.46448  -0.46190  -0.45536  -0.45361
 Alpha  occ. eigenvalues --   -0.45045  -0.44974  -0.44670  -0.44063  -0.44056
 Alpha  occ. eigenvalues --   -0.43944  -0.43705  -0.43560  -0.43175  -0.42743
 Alpha  occ. eigenvalues --   -0.42137  -0.41675  -0.41515  -0.41092  -0.41010
 Alpha  occ. eigenvalues --   -0.40827  -0.40468  -0.40227  -0.39934  -0.39747
 Alpha  occ. eigenvalues --   -0.39732  -0.39416  -0.39376  -0.38907  -0.38481
 Alpha  occ. eigenvalues --   -0.37333  -0.35515  -0.34445  -0.33569  -0.32939
 Alpha  occ. eigenvalues --   -0.32529  -0.31948  -0.31905  -0.31617  -0.31485
 Alpha  occ. eigenvalues --   -0.30668  -0.30348  -0.29582  -0.26593  -0.26099
 Alpha  occ. eigenvalues --   -0.23851
 Alpha virt. eigenvalues --   -0.14088  -0.08960  -0.08374  -0.07411  -0.07322
 Alpha virt. eigenvalues --   -0.07288  -0.05348  -0.05215  -0.04602  -0.04192
 Alpha virt. eigenvalues --   -0.02737  -0.02479  -0.01119   0.00408   0.00450

 Mulliken charges:
               1
     1  N   -0.765623
     2  H    0.411817
     3  H    0.394934
     4  H    0.418686
     5  C   -0.134166
     6  H    0.235970
     7  C    0.650834
     8  C   -0.094285
     9  H    0.133804
    10  O   -0.567120
    11  C   -0.275224
    12  H    0.172796
    13  H    0.154619
    14  C   -0.465755
    15  H    0.188971
    16  H    0.171941
    17  H    0.125547
    18  C   -0.475144
    19  H    0.167602
    20  H    0.172445
    21  H    0.143435
    22  N   -0.602525
    23  H    0.410075
    24  C   -0.079590
    25  H    0.204459
    26  C    0.624487
    27  C   -0.400821
    28  H    0.159190
    29  H    0.207639
    30  O   -0.510762
    31  C    0.158483
    32  C   -0.145931
    33  H    0.144979
    34  C   -0.179861
    35  H    0.178983
    36  C   -0.133053
    37  H    0.152402
    38  C   -0.202453
    39  H    0.150763
    40  C   -0.169118
    41  H    0.148938
    42  N   -0.598466
    43  H    0.340632
    44  C   -0.035601
    45  H    0.164197
    46  C    0.623492
    47  C   -0.102721
    48  H    0.145700
    49  O   -0.563932
    50  C   -0.460364
    51  H    0.142721
    52  H    0.156012
    53  H    0.161933
    54  C   -0.444259
    55  H    0.147357
    56  H    0.151919
    57  H    0.153312
    58  N   -0.604640
    59  H    0.357614
    60  C   -0.033328
    61  H    0.179468
    62  C    0.570273
    63  C   -0.314724
    64  H    0.172433
    65  H    0.179738
    66  O   -0.552714
    67  C   -0.381621
    68  H    0.177692
    69  H    0.202501
    70  C    0.593099
    71  N   -0.742352
    72  H    0.429054
    73  H    0.323858
    74  O   -0.594981
    75  N   -0.595238
    76  H    0.357117
    77  C   -0.085657
    78  H    0.160199
    79  C    0.590800
    80  C   -0.256262
    81  H    0.169922
    82  H    0.134441
    83  O   -0.643448
    84  C   -0.267342
    85  H    0.160537
    86  H    0.166076
    87  C   -0.291570
    88  H    0.165593
    89  H    0.162723
    90  C   -0.205970
    91  H    0.228485
    92  H    0.227529
    93  N   -0.731812
    94  H    0.426555
    95  H    0.425735
    96  H    0.425022
    97  O   -0.549105
 Sum of Mulliken charges =   1.00000

 Dipole moment (field-independent basis, Debye):
    X=              7.8862    Y=              6.2099    Z=             13.8765  Tot=             17.1263
 Quadrupole moment (field-independent basis, Debye-Ang):
   XX=           -136.2242   YY=           -223.2837   ZZ=             49.0137
   XY=             68.0967   XZ=            209.9946   YZ=            119.2542

 Normal termination of Gaussian 16 at Sun Jun 19 06:03:04 2022.
