 Gaussian 16, Revision C.01,
 Gaussian 16:  ES64L-G16RevC.01  3-Jul-2019

 ----------------------------------------------------------------------
 # B3LYP/6-31G* empiricaldispersion=gd3 guess=read geom=check nosymm in
 tegral(ultrafinegrid)
 ----------------------------------------------------------------------

 ------------------------------------------------------
 Candidate Structure: Conf:474 Charge calc in gas phase
 ------------------------------------------------------
 Structure from the checkpoint file:  "conf-474.chk"
 Charge =  1 Multiplicity = 1

                          Input orientation:
 ---------------------------------------------------------------------
 Center     Atomic      Atomic             Coordinates (Angstroms)
 Number     Number       Type             X           Y           Z
 ---------------------------------------------------------------------
      1          7           0       -2.927175   -3.141521   -5.657244
      2          1           0       -2.930364   -2.308820   -6.280672
      3          1           0       -3.407297   -3.921196   -6.113401
      4          1           0       -1.926799   -3.366845   -5.467757
      5          6           0       -3.496784   -2.792393   -4.299789
      6          1           0       -4.297939   -2.074604   -4.480023
      7          6           0       -2.281703   -2.121720   -3.617776
      8          6           0       -4.019765   -4.045524   -3.563159
      9          1           0       -4.837943   -4.447111   -4.182264
     10          8           0       -1.160550   -2.523829   -3.927142
     11          6           0       -4.623091   -3.659604   -2.194308
     12          1           0       -3.833240   -3.243729   -1.555588
     13          1           0       -4.940992   -4.590414   -1.711129
     14          6           0       -2.940597   -5.128682   -3.400756
     15          1           0       -2.099714   -4.769876   -2.800134
     16          1           0       -3.369951   -6.002467   -2.902286
     17          1           0       -2.537087   -5.476414   -4.359685
     18          6           0       -5.818921   -2.701189   -2.248705
     19          1           0       -6.237738   -2.558416   -1.248094
     20          1           0       -5.557702   -1.704059   -2.626194
     21          1           0       -6.615738   -3.094319   -2.891008
     22          7           0       -2.544823   -1.125121   -2.752819
     23          1           0       -3.514904   -0.851086   -2.650383
     24          6           0       -1.555435   -0.066259   -2.495657
     25          1           0       -0.562926   -0.480407   -2.711537
     26          6           0       -1.564812    0.360895   -1.024317
     27          6           0       -1.775678    1.130364   -3.454380
     28          1           0       -0.871217    1.739103   -3.395954
     29          1           0       -2.611556    1.741032   -3.095066
     30          8           0       -1.328718    1.517207   -0.698789
     31          6           0       -2.027234    0.655056   -4.869874
     32          6           0       -0.972858    0.175576   -5.666461
     33          1           0        0.038431    0.197753   -5.268256
     34          6           0       -3.334296    0.592271   -5.376025
     35          1           0       -4.157577    0.979642   -4.778513
     36          6           0       -1.228981   -0.350772   -6.933545
     37          1           0       -0.401615   -0.705705   -7.542368
     38          6           0       -3.596975    0.062840   -6.644744
     39          1           0       -4.613902    0.052090   -7.029414
     40          6           0       -2.539605   -0.416506   -7.430592
     41          1           0       -2.728931   -0.790828   -8.434139
     42          7           0       -1.826745   -0.646288   -0.135590
     43          1           0       -1.738725   -1.591420   -0.494395
     44          6           0       -1.436298   -0.518699    1.278046
     45          1           0       -1.572601    0.531801    1.548426
     46          6           0        0.049619   -0.927315    1.282616
     47          6           0       -2.290471   -1.421844    2.179136
     48          1           0       -2.097389   -2.456493    1.863403
     49          8           0        0.357389   -2.105230    1.088638
     50          6           0       -1.836761   -1.281136    3.638973
     51          1           0       -1.965047   -0.249584    3.991448
     52          1           0       -2.429334   -1.932089    4.290604
     53          1           0       -0.783825   -1.556374    3.758600
     54          6           0       -3.785281   -1.114520    2.027547
     55          1           0       -4.006197   -0.084983    2.336655
     56          1           0       -4.118051   -1.228071    0.989893
     57          1           0       -4.381637   -1.786575    2.654610
     58          7           0        0.938347    0.084007    1.359214
     59          1           0        0.638928    1.041182    1.509346
     60          6           0        2.333278   -0.081882    0.983575
     61          1           0        2.741374   -0.948195    1.516653
     62          6           0        3.080195    1.201583    1.397602
     63          6           0        2.473120   -0.326159   -0.541507
     64          1           0        3.495195   -0.642365   -0.773535
     65          1           0        1.814892   -1.159625   -0.806698
     66          8           0        2.489340    2.141733    1.932773
     67          6           0        2.139647    0.923812   -1.376308
     68          1           0        2.823099    1.732397   -1.105242
     69          1           0        1.115405    1.254543   -1.188507
     70          6           0        2.280023    0.632954   -2.862107
     71          7           0        3.523326    0.759663   -3.353591
     72          1           0        4.325245    1.008473   -2.749211
     73          1           0        3.674939    0.525960   -4.325164
     74          8           0        1.303630    0.277380   -3.546676
     75          7           0        4.393254    1.228057    1.054263
     76          1           0        4.688890    0.530046    0.368577
     77          6           0        5.036946    2.491098    0.688694
     78          1           0        4.255737    3.256934    0.600446
     79          6           0        5.687860    2.332820   -0.741779
     80          6           0        6.063772    2.969547    1.710340
     81          1           0        6.581537    3.802811    1.220872
     82          1           0        6.807639    2.176506    1.876524
     83          8           0        6.395069    3.277849   -1.112547
     84          6           0        5.433939    3.376862    3.045417
     85          1           0        4.669665    4.148247    2.883462
     86          1           0        4.903653    2.523419    3.479945
     87          6           0        6.468430    3.881406    4.070542
     88          1           0        7.215672    3.094770    4.251171
     89          1           0        5.979136    4.103670    5.029753
     90          6           0        7.166565    5.131392    3.553841
     91          1           0        7.706428    4.956497    2.622319
     92          1           0        6.476381    5.967308    3.414606
     93          7           0        8.219109    5.613727    4.561774
     94          1           0        8.707663    6.459086    4.243239
     95          1           0        8.923777    4.883144    4.719222
     96          1           0        7.787444    5.819155    5.470709
     97          8           0        5.382268    1.249891   -1.339097
 ---------------------------------------------------------------------

 SCF Done:  E(RB3LYP) =  -2122.43262019     A.U. after    1 cycles

 Alpha  occ. eigenvalues --  -19.23776 -19.18271 -19.15701 -19.15667 -19.14379
 Alpha  occ. eigenvalues --  -19.10008 -19.08845 -14.62420 -14.57064 -14.47207
 Alpha  occ. eigenvalues --  -14.42394 -14.40084 -14.37677 -14.36799 -10.40791
 Alpha  occ. eigenvalues --  -10.38534 -10.37632 -10.35430 -10.32887 -10.32229
 Alpha  occ. eigenvalues --  -10.32141 -10.31490 -10.30938 -10.30641 -10.29030
 Alpha  occ. eigenvalues --  -10.28323 -10.28228 -10.28209 -10.28068 -10.27918
 Alpha  occ. eigenvalues --  -10.27778 -10.27715 -10.27689 -10.27484 -10.27287
 Alpha  occ. eigenvalues --  -10.26061 -10.25937 -10.25926 -10.24613 -10.24083
 Alpha  occ. eigenvalues --  -10.23130 -10.22937 -10.22717 -10.22383 -10.21554
 Alpha  occ. eigenvalues --   -1.16464  -1.16251  -1.11224  -1.10249  -1.07856
 Alpha  occ. eigenvalues --   -1.06980  -1.05386  -1.03916  -1.02696  -0.98663
 Alpha  occ. eigenvalues --   -0.96575  -0.95453  -0.94101  -0.93815  -0.93286
 Alpha  occ. eigenvalues --   -0.92044  -0.91989  -0.87358  -0.85849  -0.85006
 Alpha  occ. eigenvalues --   -0.83974  -0.83160  -0.82728  -0.82615  -0.80977
 Alpha  occ. eigenvalues --   -0.78577  -0.77334  -0.75431  -0.74905  -0.74565
 Alpha  occ. eigenvalues --   -0.74258  -0.73627  -0.72846  -0.71950  -0.70430
 Alpha  occ. eigenvalues --   -0.69958  -0.69591  -0.68554  -0.67480  -0.67002
 Alpha  occ. eigenvalues --   -0.66254  -0.65442  -0.64691  -0.63977  -0.63791
 Alpha  occ. eigenvalues --   -0.62414  -0.61871  -0.60836  -0.59965  -0.59506
 Alpha  occ. eigenvalues --   -0.59294  -0.59050  -0.58539  -0.58130  -0.57159
 Alpha  occ. eigenvalues --   -0.55713  -0.55573  -0.54744  -0.54115  -0.53775
 Alpha  occ. eigenvalues --   -0.53538  -0.53405  -0.53135  -0.52785  -0.52047
 Alpha  occ. eigenvalues --   -0.51964  -0.51433  -0.51129  -0.51042  -0.50343
 Alpha  occ. eigenvalues --   -0.50161  -0.50045  -0.49836  -0.49194  -0.48880
 Alpha  occ. eigenvalues --   -0.48158  -0.47959  -0.47832  -0.47473  -0.47320
 Alpha  occ. eigenvalues --   -0.46725  -0.46475  -0.46027  -0.45605  -0.45122
 Alpha  occ. eigenvalues --   -0.44983  -0.44662  -0.44414  -0.44259  -0.44143
 Alpha  occ. eigenvalues --   -0.44037  -0.44003  -0.43509  -0.43431  -0.43297
 Alpha  occ. eigenvalues --   -0.42972  -0.42295  -0.41965  -0.41607  -0.41118
 Alpha  occ. eigenvalues --   -0.40860  -0.40331  -0.39625  -0.39142  -0.39088
 Alpha  occ. eigenvalues --   -0.38957  -0.38522  -0.38259  -0.38177  -0.37960
 Alpha  occ. eigenvalues --   -0.37357  -0.36889  -0.36248  -0.33709  -0.33371
 Alpha  occ. eigenvalues --   -0.33164  -0.31439  -0.30461  -0.29614  -0.29140
 Alpha  occ. eigenvalues --   -0.28921  -0.28766  -0.28121  -0.25326  -0.24696
 Alpha  occ. eigenvalues --   -0.22867
 Alpha virt. eigenvalues --   -0.13031  -0.11142  -0.09073  -0.08962  -0.07419
 Alpha virt. eigenvalues --   -0.06343  -0.06272  -0.05542  -0.04134  -0.03265
 Alpha virt. eigenvalues --   -0.02352  -0.01766  -0.01299  -0.00824   0.00171

 Mulliken charges:
               1
     1  N   -0.766519
     2  H    0.415360
     3  H    0.399969
     4  H    0.426172
     5  C   -0.111592
     6  H    0.195297
     7  C    0.654094
     8  C   -0.103324
     9  H    0.147095
    10  O   -0.516244
    11  C   -0.277436
    12  H    0.163506
    13  H    0.173245
    14  C   -0.473793
    15  H    0.197324
    16  H    0.184264
    17  H    0.134887
    18  C   -0.468304
    19  H    0.186609
    20  H    0.130163
    21  H    0.164158
    22  N   -0.610207
    23  H    0.347665
    24  C   -0.117278
    25  H    0.271786
    26  C    0.626207
    27  C   -0.350022
    28  H    0.217378
    29  H    0.155085
    30  O   -0.517610
    31  C    0.124783
    32  C   -0.160373
    33  H    0.219758
    34  C   -0.202638
    35  H    0.136450
    36  C   -0.142958
    37  H    0.157995
    38  C   -0.158034
    39  H    0.149326
    40  C   -0.210803
    41  H    0.151984
    42  N   -0.604402
    43  H    0.341037
    44  C   -0.040504
    45  H    0.167818
    46  C    0.620017
    47  C   -0.085674
    48  H    0.142305
    49  O   -0.556755
    50  C   -0.460852
    51  H    0.144044
    52  H    0.152173
    53  H    0.168459
    54  C   -0.445572
    55  H    0.149276
    56  H    0.129959
    57  H    0.149392
    58  N   -0.601227
    59  H    0.359013
    60  C   -0.043666
    61  H    0.181841
    62  C    0.574640
    63  C   -0.303804
    64  H    0.172580
    65  H    0.171197
    66  O   -0.548027
    67  C   -0.377467
    68  H    0.175788
    69  H    0.173773
    70  C    0.568632
    71  N   -0.752493
    72  H    0.418644
    73  H    0.322486
    74  O   -0.551523
    75  N   -0.593779
    76  H    0.353884
    77  C   -0.078749
    78  H    0.158796
    79  C    0.588459
    80  C   -0.275730
    81  H    0.156101
    82  H    0.131277
    83  O   -0.565274
    84  C   -0.264141
    85  H    0.159261
    86  H    0.184627
    87  C   -0.293367
    88  H    0.158813
    89  H    0.154988
    90  C   -0.206760
    91  H    0.242658
    92  H    0.224687
    93  N   -0.732025
    94  H    0.427274
    95  H    0.424190
    96  H    0.421089
    97  O   -0.630809
 Sum of Mulliken charges =   1.00000

 Dipole moment (field-independent basis, Debye):
    X=              5.7691    Y=              5.5453    Z=              2.9281  Tot=              8.5209
 Quadrupole moment (field-independent basis, Debye-Ang):
   XX=            -14.2664   YY=           -127.2049   ZZ=            -80.0796
   XY=            192.0444   XZ=            227.7183   YZ=            164.6970

 Normal termination of Gaussian 16 at Sun Jun 19 06:03:00 2022.
