 Gaussian 16, Revision C.01,
 Gaussian 16:  ES64L-G16RevC.01  3-Jul-2019

 ----------------------------------------------------------------------
 # B3LYP/6-31G* empiricaldispersion=gd3 guess=read geom=check nosymm in
 tegral(ultrafinegrid)
 ----------------------------------------------------------------------

 ------------------------------------------------------
 Candidate Structure: Conf:669 Charge calc in gas phase
 ------------------------------------------------------
 Structure from the checkpoint file:  "conf-669.chk"
 Charge =  1 Multiplicity = 1

                          Input orientation:
 ---------------------------------------------------------------------
 Center     Atomic      Atomic             Coordinates (Angstroms)
 Number     Number       Type             X           Y           Z
 ---------------------------------------------------------------------
      1          7           0       -2.049490    2.931328   -4.577617
      2          1           0       -1.718336    2.476116   -5.445615
      3          1           0       -1.940140    3.945857   -4.642937
      4          1           0       -3.048719    2.649447   -4.462228
      5          6           0       -1.367242    2.323478   -3.363686
      6          1           0       -0.329155    2.120682   -3.632309
      7          6           0       -2.175228    1.015600   -3.210343
      8          6           0       -1.456408    3.273807   -2.146364
      9          1           0       -1.128090    4.264006   -2.505232
     10          8           0       -3.378055    1.047594   -3.513768
     11          6           0       -0.453293    2.836242   -1.050595
     12          1           0       -0.517987    1.749764   -0.910045
     13          1           0       -0.784209    3.275443   -0.102344
     14          6           0       -2.884617    3.406966   -1.595490
     15          1           0       -3.222408    2.469009   -1.144963
     16          1           0       -2.904775    4.182262   -0.823680
     17          1           0       -3.618848    3.682947   -2.361544
     18          6           0        0.990133    3.271989   -1.327019
     19          1           0        1.675499    2.924428   -0.545904
     20          1           0        1.356427    2.880974   -2.281929
     21          1           0        1.057297    4.366904   -1.363881
     22          7           0       -1.483862   -0.048060   -2.812492
     23          1           0       -0.450272    0.041955   -2.799521
     24          6           0       -2.023072   -1.390453   -2.961292
     25          1           0       -3.109002   -1.289500   -3.052906
     26          6           0       -1.751166   -2.166970   -1.654494
     27          6           0       -1.455070   -2.011307   -4.272843
     28          1           0       -1.992836   -2.941976   -4.490714
     29          1           0       -0.398223   -2.259564   -4.120317
     30          8           0       -1.747779   -1.574424   -0.580077
     31          6           0       -1.593920   -1.045979   -5.434268
     32          6           0       -2.821117   -0.892230   -6.093405
     33          1           0       -3.660339   -1.524863   -5.815223
     34          6           0       -0.528044   -0.209114   -5.793547
     35          1           0        0.420866   -0.292956   -5.272504
     36          6           0       -2.988642    0.075274   -7.083984
     37          1           0       -3.947540    0.174957   -7.584435
     38          6           0       -0.689055    0.762090   -6.789359
     39          1           0        0.158554    1.379870   -7.077964
     40          6           0       -1.922346    0.909284   -7.437726
     41          1           0       -2.042565    1.644798   -8.229302
     42          7           0       -1.569223   -3.510007   -1.761528
     43          1           0       -1.357729   -3.913220   -2.664393
     44          6           0       -1.165809   -4.312706   -0.595371
     45          1           0       -1.709475   -3.908709    0.263432
     46          6           0        0.353769   -4.093060   -0.437246
     47          6           0       -1.518090   -5.794742   -0.791192
     48          1           0       -0.947451   -6.147793   -1.661376
     49          8           0        1.157445   -4.714575   -1.132315
     50          6           0       -1.061600   -6.607532    0.428997
     51          1           0       -1.558367   -6.255705    1.342371
     52          1           0       -1.315482   -7.664804    0.298489
     53          1           0        0.020618   -6.536940    0.572136
     54          6           0       -3.018779   -5.983099   -1.049436
     55          1           0       -3.607454   -5.643346   -0.187911
     56          1           0       -3.360739   -5.422779   -1.926021
     57          1           0       -3.247951   -7.041475   -1.214001
     58          7           0        0.703835   -3.125149    0.440670
     59          1           0       -0.007047   -2.559031    0.894538
     60          6           0        2.055981   -2.600796    0.507543
     61          1           0        2.755240   -3.434667    0.635773
     62          6           0        2.124228   -1.626857    1.696685
     63          6           0        2.439372   -1.833362   -0.786040
     64          1           0        3.506464   -1.597742   -0.770494
     65          1           0        2.261502   -2.504490   -1.631634
     66          8           0        1.102642   -1.251014    2.263889
     67          6           0        1.638509   -0.527376   -0.947562
     68          1           0        1.811419    0.130251   -0.090902
     69          1           0        0.568273   -0.739172   -0.971005
     70          6           0        2.022427    0.232384   -2.202307
     71          7           0        3.259127    0.731491   -2.236089
     72          1           0        3.856111    0.745716   -1.379769
     73          1           0        3.518881    1.282121   -3.043664
     74          8           0        1.211999    0.379720   -3.152100
     75          7           0        3.374389   -1.142320    1.974412
     76          1           0        4.076847   -1.351487    1.268410
     77          6           0        3.509589    0.260990    2.381630
     78          1           0        2.549866    0.580283    2.791767
     79          6           0        3.835551    1.127319    1.114868
     80          6           0        4.614882    0.428076    3.434891
     81          1           0        5.578689    0.179979    2.967023
     82          1           0        4.456844   -0.288542    4.251063
     83          8           0        3.455521    2.314764    1.130581
     84          6           0        4.651718    1.862954    3.978101
     85          1           0        4.592703    2.560936    3.135248
     86          1           0        3.760498    2.042202    4.594835
     87          6           0        5.914994    2.141738    4.805822
     88          1           0        6.802917    1.942671    4.188601
     89          1           0        5.960707    1.469979    5.675386
     90          6           0        5.927817    3.590077    5.265266
     91          1           0        5.910729    4.289659    4.426041
     92          1           0        5.103968    3.824895    5.943678
     93          7           0        7.216143    3.897424    6.044992
     94          1           0        7.259095    4.870514    6.370806
     95          1           0        8.040802    3.724385    5.457291
     96          1           0        7.296811    3.284931    6.865645
     97          8           0        4.473734    0.508184    0.204220
 ---------------------------------------------------------------------

 SCF Done:  E(RB3LYP) =  -2122.46051260     A.U. after    3 cycles

 Alpha  occ. eigenvalues --  -19.20770 -19.17977 -19.17733 -19.16222 -19.15396
 Alpha  occ. eigenvalues --  -19.12420 -19.11722 -14.63688 -14.54896 -14.43115
 Alpha  occ. eigenvalues --  -14.42560 -14.39661 -14.39362 -14.38976 -10.40162
 Alpha  occ. eigenvalues --  -10.37536 -10.35211 -10.34453 -10.34305 -10.32893
 Alpha  occ. eigenvalues --  -10.32573 -10.32145 -10.30820 -10.29981 -10.28890
 Alpha  occ. eigenvalues --  -10.27883 -10.27692 -10.27508 -10.27368 -10.27235
 Alpha  occ. eigenvalues --  -10.27171 -10.27130 -10.26801 -10.26620 -10.26340
 Alpha  occ. eigenvalues --  -10.25649 -10.25294 -10.25019 -10.24880 -10.23979
 Alpha  occ. eigenvalues --  -10.23551 -10.23495 -10.22374 -10.21978 -10.21485
 Alpha  occ. eigenvalues --   -1.17506  -1.13442  -1.09971  -1.08665  -1.08574
 Alpha  occ. eigenvalues --   -1.08149  -1.07117  -1.05211  -1.00909  -0.98619
 Alpha  occ. eigenvalues --   -0.97107  -0.96364  -0.95634  -0.94770  -0.93393
 Alpha  occ. eigenvalues --   -0.93376  -0.90027  -0.86916  -0.85628  -0.85098
 Alpha  occ. eigenvalues --   -0.83788  -0.82397  -0.82123  -0.80191  -0.79711
 Alpha  occ. eigenvalues --   -0.78780  -0.77746  -0.76142  -0.76018  -0.74739
 Alpha  occ. eigenvalues --   -0.73323  -0.72618  -0.71171  -0.70953  -0.68708
 Alpha  occ. eigenvalues --   -0.68564  -0.68349  -0.67714  -0.67075  -0.66586
 Alpha  occ. eigenvalues --   -0.66133  -0.65051  -0.64109  -0.63898  -0.63157
 Alpha  occ. eigenvalues --   -0.62606  -0.62377  -0.60966  -0.60469  -0.60264
 Alpha  occ. eigenvalues --   -0.59226  -0.58740  -0.58051  -0.57216  -0.56277
 Alpha  occ. eigenvalues --   -0.55775  -0.55157  -0.54504  -0.54276  -0.53873
 Alpha  occ. eigenvalues --   -0.53596  -0.53168  -0.52994  -0.52346  -0.51764
 Alpha  occ. eigenvalues --   -0.51056  -0.50585  -0.50509  -0.50179  -0.49705
 Alpha  occ. eigenvalues --   -0.49652  -0.49268  -0.48797  -0.48754  -0.48524
 Alpha  occ. eigenvalues --   -0.47874  -0.47785  -0.47398  -0.47182  -0.46920
 Alpha  occ. eigenvalues --   -0.46539  -0.46379  -0.45730  -0.45336  -0.45276
 Alpha  occ. eigenvalues --   -0.44702  -0.44384  -0.43988  -0.43825  -0.43711
 Alpha  occ. eigenvalues --   -0.43464  -0.43158  -0.42823  -0.42644  -0.42449
 Alpha  occ. eigenvalues --   -0.42354  -0.41897  -0.41783  -0.41556  -0.41229
 Alpha  occ. eigenvalues --   -0.40762  -0.40534  -0.40178  -0.39729  -0.39464
 Alpha  occ. eigenvalues --   -0.39080  -0.38949  -0.38314  -0.38145  -0.37903
 Alpha  occ. eigenvalues --   -0.37443  -0.35420  -0.34283  -0.33032  -0.32815
 Alpha  occ. eigenvalues --   -0.32446  -0.32213  -0.31824  -0.31561  -0.31111
 Alpha  occ. eigenvalues --   -0.29917  -0.29337  -0.28300  -0.27900  -0.27009
 Alpha  occ. eigenvalues --   -0.24889
 Alpha virt. eigenvalues --   -0.14236  -0.08702  -0.08362  -0.07551  -0.07441
 Alpha virt. eigenvalues --   -0.07208  -0.05267  -0.04672  -0.04666  -0.03948
 Alpha virt. eigenvalues --   -0.02208  -0.01624  -0.01218   0.00083   0.00277

 Mulliken charges:
               1
     1  N   -0.762026
     2  H    0.408879
     3  H    0.394086
     4  H    0.419134
     5  C   -0.143004
     6  H    0.229587
     7  C    0.660710
     8  C   -0.088688
     9  H    0.127669
    10  O   -0.567102
    11  C   -0.277557
    12  H    0.173089
    13  H    0.157231
    14  C   -0.464529
    15  H    0.192584
    16  H    0.167308
    17  H    0.130978
    18  C   -0.492997
    19  H    0.219755
    20  H    0.140443
    21  H    0.132917
    22  N   -0.612731
    23  H    0.425539
    24  C   -0.084301
    25  H    0.213857
    26  C    0.635440
    27  C   -0.395979
    28  H    0.164060
    29  H    0.178710
    30  O   -0.520498
    31  C    0.152166
    32  C   -0.148224
    33  H    0.146263
    34  C   -0.187217
    35  H    0.186653
    36  C   -0.128630
    37  H    0.152994
    38  C   -0.199187
    39  H    0.148609
    40  C   -0.166128
    41  H    0.147664
    42  N   -0.618510
    43  H    0.345633
    44  C   -0.035305
    45  H    0.170101
    46  C    0.620095
    47  C   -0.096454
    48  H    0.147349
    49  O   -0.550236
    50  C   -0.461877
    51  H    0.143339
    52  H    0.153059
    53  H    0.172136
    54  C   -0.445210
    55  H    0.148226
    56  H    0.136704
    57  H    0.154211
    58  N   -0.607088
    59  H    0.371287
    60  C   -0.048360
    61  H    0.178963
    62  C    0.587801
    63  C   -0.298472
    64  H    0.174658
    65  H    0.176560
    66  O   -0.524647
    67  C   -0.409771
    68  H    0.200972
    69  H    0.182328
    70  C    0.608972
    71  N   -0.743372
    72  H    0.423215
    73  H    0.325217
    74  O   -0.604745
    75  N   -0.585677
    76  H    0.338333
    77  C   -0.064924
    78  H    0.174346
    79  C    0.580171
    80  C   -0.271782
    81  H    0.140421
    82  H    0.147772
    83  O   -0.577352
    84  C   -0.284407
    85  H    0.199918
    86  H    0.150512
    87  C   -0.291041
    88  H    0.164944
    89  H    0.160608
    90  C   -0.207462
    91  H    0.234832
    92  H    0.226443
    93  N   -0.732115
    94  H    0.427284
    95  H    0.425889
    96  H    0.424737
    97  O   -0.625753
 Sum of Mulliken charges =   1.00000

 Dipole moment (field-independent basis, Debye):
    X=             18.6595    Y=             19.9344    Z=              9.0293  Tot=             28.7592
 Quadrupole moment (field-independent basis, Debye-Ang):
   XX=            -67.3266   YY=           -173.8228   ZZ=            -47.7595
   XY=            101.9462   XZ=            202.2207   YZ=             59.8474

 Normal termination of Gaussian 16 at Sun Jun 19 06:04:04 2022.
