 Gaussian 16, Revision C.01,
 Gaussian 16:  ES64L-G16RevC.01  3-Jul-2019

 ----------------------------------------------------------------------
 # B3LYP/6-31G* empiricaldispersion=gd3 guess=read geom=check nosymm in
 tegral(ultrafinegrid)
 ----------------------------------------------------------------------

 ------------------------------------------------------
 Candidate Structure: Conf:428 Charge calc in gas phase
 ------------------------------------------------------
 Structure from the checkpoint file:  "conf-428.chk"
 Charge =  1 Multiplicity = 1

                          Input orientation:
 ---------------------------------------------------------------------
 Center     Atomic      Atomic             Coordinates (Angstroms)
 Number     Number       Type             X           Y           Z
 ---------------------------------------------------------------------
      1          7           0       -4.120898   -5.890745   -2.784790
      2          1           0       -4.245516   -6.455715   -3.629071
      3          1           0       -4.660335   -6.307112   -2.021592
      4          1           0       -3.089174   -5.859138   -2.547871
      5          6           0       -4.434224   -4.421416   -2.996907
      6          1           0       -5.083629   -4.333003   -3.871777
      7          6           0       -3.041062   -3.805892   -3.233443
      8          6           0       -5.107196   -3.808397   -1.739648
      9          1           0       -5.062823   -2.724865   -1.902647
     10          8           0       -2.054318   -4.447490   -2.845069
     11          6           0       -4.310381   -4.097469   -0.445150
     12          1           0       -3.239210   -3.989664   -0.638922
     13          1           0       -4.480712   -5.139943   -0.128164
     14          6           0       -6.575671   -4.247753   -1.649657
     15          1           0       -6.674573   -5.331230   -1.489493
     16          1           0       -7.069551   -3.760095   -0.805795
     17          1           0       -7.134102   -3.989192   -2.556249
     18          6           0       -4.680941   -3.155080    0.705226
     19          1           0       -4.100629   -3.407930    1.598397
     20          1           0       -4.440627   -2.125154    0.427406
     21          1           0       -5.741175   -3.218158    0.971808
     22          7           0       -3.002881   -2.587579   -3.772359
     23          1           0       -3.877633   -2.129603   -3.998070
     24          6           0       -1.853879   -1.711089   -3.526858
     25          1           0       -0.959265   -2.223580   -3.890813
     26          6           0       -1.786731   -1.468115   -2.000414
     27          6           0       -2.047005   -0.370966   -4.267331
     28          1           0       -1.134204    0.216289   -4.119754
     29          1           0       -2.859662    0.176122   -3.773190
     30          8           0       -2.833196   -1.380150   -1.349030
     31          6           0       -2.347493   -0.558199   -5.737178
     32          6           0       -1.338174   -0.949663   -6.626837
     33          1           0       -0.318970   -1.068479   -6.265370
     34          6           0       -3.650204   -0.392659   -6.223877
     35          1           0       -4.437040   -0.056256   -5.549795
     36          6           0       -1.626591   -1.173286   -7.972384
     37          1           0       -0.831867   -1.465636   -8.652822
     38          6           0       -3.942915   -0.616925   -7.571470
     39          1           0       -4.955729   -0.470898   -7.936984
     40          6           0       -2.931107   -1.010480   -8.447691
     41          1           0       -3.153028   -1.177686   -9.497758
     42          7           0       -0.553652   -1.328739   -1.506559
     43          1           0        0.277095   -1.515703   -2.066553
     44          6           0       -0.240308   -1.066220   -0.106347
     45          1           0       -0.818348   -0.196239    0.226001
     46          6           0        1.267353   -0.740644   -0.120025
     47          6           0       -0.601308   -2.273742    0.807132
     48          1           0       -1.685062   -2.397097    0.690648
     49          8           0        1.985882   -1.231435   -0.998587
     50          6           0        0.088501   -3.567737    0.355744
     51          1           0        1.178984   -3.472058    0.390266
     52          1           0       -0.201646   -4.397904    1.010331
     53          1           0       -0.191142   -3.831617   -0.669927
     54          6           0       -0.316130   -1.959703    2.281759
     55          1           0        0.757861   -1.858177    2.470442
     56          1           0       -0.802828   -1.028356    2.597983
     57          1           0       -0.694780   -2.765881    2.920011
     58          7           0        1.721207    0.081481    0.835254
     59          1           0        1.125187    0.491396    1.549420
     60          6           0        3.098646    0.552798    0.855771
     61          1           0        3.767176   -0.315477    0.826087
     62          6           0        3.275326    1.327869    2.177224
     63          6           0        3.418448    1.486359   -0.352348
     64          1           0        2.668504    1.332421   -1.131584
     65          1           0        3.342329    2.531469   -0.029432
     66          8           0        2.299502    1.573161    2.901901
     67          6           0        4.801505    1.239757   -0.977506
     68          1           0        4.787703    0.276206   -1.496640
     69          1           0        5.589727    1.222274   -0.220646
     70          6           0        5.081589    2.339134   -2.003993
     71          7           0        5.893491    3.329256   -1.558806
     72          1           0        6.205555    3.383030   -0.581674
     73          1           0        6.023465    4.126395   -2.166384
     74          8           0        4.556399    2.318633   -3.115917
     75          7           0        4.528841    1.755501    2.409017
     76          1           0        5.221388    1.669983    1.654017
     77          6           0        4.835896    3.013043    3.092277
     78          1           0        3.950917    3.660876    3.056162
     79          6           0        5.987040    3.727141    2.265926
     80          6           0        5.262237    2.842736    4.546811
     81          1           0        5.651664    3.815185    4.869482
     82          1           0        6.091822    2.123380    4.595772
     83          8           0        6.378825    4.801078    2.734859
     84          6           0        4.122649    2.386290    5.461522
     85          1           0        3.285513    3.092314    5.381848
     86          1           0        3.733401    1.417023    5.128794
     87          6           0        4.589979    2.304612    6.924055
     88          1           0        4.993012    3.281521    7.228653
     89          1           0        5.406355    1.573065    7.010908
     90          6           0        3.447273    1.913795    7.842599
     91          1           0        2.623771    2.631590    7.815452
     92          1           0        3.058787    0.914126    7.633415
     93          7           0        3.928678    1.883570    9.304732
     94          1           0        3.186727    1.625903    9.966328
     95          1           0        4.292005    2.804845    9.578012
     96          1           0        4.699443    1.213492    9.413886
     97          8           0        6.357000    3.087687    1.231425
 ---------------------------------------------------------------------

 SCF Done:  E(RB3LYP) =  -2122.39696576     A.U. after    3 cycles

 Alpha  occ. eigenvalues --  -19.26135 -19.19736 -19.17216 -19.15567 -19.09754
 Alpha  occ. eigenvalues --  -19.08575 -19.07218 -14.62809 -14.59483 -14.48682
 Alpha  occ. eigenvalues --  -14.43533 -14.41027 -14.36983 -14.33270 -10.42534
 Alpha  occ. eigenvalues --  -10.39622 -10.39253 -10.36872 -10.34305 -10.33253
 Alpha  occ. eigenvalues --  -10.32653 -10.32013 -10.30809 -10.29920 -10.29804
 Alpha  occ. eigenvalues --  -10.29324 -10.28224 -10.27650 -10.27243 -10.27102
 Alpha  occ. eigenvalues --  -10.26369 -10.26262 -10.26215 -10.26092 -10.26065
 Alpha  occ. eigenvalues --  -10.25941 -10.25866 -10.25765 -10.25664 -10.24054
 Alpha  occ. eigenvalues --  -10.23417 -10.23145 -10.22090 -10.21594 -10.19645
 Alpha  occ. eigenvalues --   -1.18567  -1.16616  -1.13384  -1.11586  -1.09239
 Alpha  occ. eigenvalues --   -1.06770  -1.05395  -1.01429  -1.01281  -1.00156
 Alpha  occ. eigenvalues --   -0.97445  -0.94667  -0.94391  -0.92894  -0.92590
 Alpha  occ. eigenvalues --   -0.92179  -0.88819  -0.88345  -0.86944  -0.85776
 Alpha  occ. eigenvalues --   -0.83932  -0.83016  -0.82037  -0.81551  -0.81359
 Alpha  occ. eigenvalues --   -0.78093  -0.77887  -0.75668  -0.75370  -0.75253
 Alpha  occ. eigenvalues --   -0.74810  -0.74213  -0.73456  -0.73255  -0.72064
 Alpha  occ. eigenvalues --   -0.71500  -0.69657  -0.68811  -0.67808  -0.67423
 Alpha  occ. eigenvalues --   -0.66364  -0.66022  -0.65759  -0.63890  -0.63401
 Alpha  occ. eigenvalues --   -0.62463  -0.62199  -0.61612  -0.61141  -0.59922
 Alpha  occ. eigenvalues --   -0.59531  -0.59157  -0.58459  -0.57256  -0.57073
 Alpha  occ. eigenvalues --   -0.56811  -0.56553  -0.54893  -0.54611  -0.53745
 Alpha  occ. eigenvalues --   -0.53166  -0.53059  -0.52815  -0.52655  -0.52467
 Alpha  occ. eigenvalues --   -0.52219  -0.51813  -0.51271  -0.51147  -0.50488
 Alpha  occ. eigenvalues --   -0.49852  -0.49394  -0.49277  -0.49018  -0.48904
 Alpha  occ. eigenvalues --   -0.48780  -0.48675  -0.48159  -0.47699  -0.47513
 Alpha  occ. eigenvalues --   -0.47196  -0.46812  -0.45992  -0.45805  -0.45344
 Alpha  occ. eigenvalues --   -0.45288  -0.45072  -0.44747  -0.44308  -0.43924
 Alpha  occ. eigenvalues --   -0.43649  -0.43553  -0.43389  -0.43192  -0.42687
 Alpha  occ. eigenvalues --   -0.42604  -0.41297  -0.41100  -0.41009  -0.40768
 Alpha  occ. eigenvalues --   -0.40341  -0.40009  -0.39923  -0.39757  -0.39388
 Alpha  occ. eigenvalues --   -0.38796  -0.38571  -0.38504  -0.37707  -0.37080
 Alpha  occ. eigenvalues --   -0.36276  -0.35552  -0.35169  -0.33929  -0.33171
 Alpha  occ. eigenvalues --   -0.32113  -0.31467  -0.31347  -0.30396  -0.29505
 Alpha  occ. eigenvalues --   -0.28630  -0.25171  -0.24131  -0.23452  -0.23149
 Alpha  occ. eigenvalues --   -0.21362
 Alpha virt. eigenvalues --   -0.13446  -0.11920  -0.10608  -0.07987  -0.07506
 Alpha virt. eigenvalues --   -0.06808  -0.06600  -0.06307  -0.05552  -0.04014
 Alpha virt. eigenvalues --   -0.03855  -0.03269  -0.01612  -0.01253  -0.00456

 Mulliken charges:
               1
     1  N   -0.753114
     2  H    0.416302
     3  H    0.411730
     4  H    0.432505
     5  C   -0.129643
     6  H    0.202359
     7  C    0.670030
     8  C   -0.110174
     9  H    0.197425
    10  O   -0.538811
    11  C   -0.296254
    12  H    0.189531
    13  H    0.112677
    14  C   -0.464874
    15  H    0.131415
    16  H    0.198126
    17  H    0.165868
    18  C   -0.463648
    19  H    0.161327
    20  H    0.203084
    21  H    0.149832
    22  N   -0.569989
    23  H    0.350860
    24  C   -0.052876
    25  H    0.192354
    26  C    0.642278
    27  C   -0.412956
    28  H    0.198763
    29  H    0.173734
    30  O   -0.567719
    31  C    0.185490
    32  C   -0.181382
    33  H    0.145197
    34  C   -0.212284
    35  H    0.123475
    36  C   -0.127381
    37  H    0.152403
    38  C   -0.128223
    39  H    0.142682
    40  C   -0.128818
    41  H    0.148414
    42  N   -0.617828
    43  H    0.368193
    44  C   -0.024176
    45  H    0.165716
    46  C    0.625967
    47  C   -0.094242
    48  H    0.158049
    49  O   -0.552918
    50  C   -0.466090
    51  H    0.172766
    52  H    0.134526
    53  H    0.154096
    54  C   -0.464156
    55  H    0.164065
    56  H    0.145288
    57  H    0.144046
    58  N   -0.629064
    59  H    0.350466
    60  C   -0.025017
    61  H    0.176822
    62  C    0.569894
    63  C   -0.282839
    64  H    0.171980
    65  H    0.164735
    66  O   -0.573906
    67  C   -0.365334
    68  H    0.164134
    69  H    0.171111
    70  C    0.558451
    71  N   -0.769529
    72  H    0.403935
    73  H    0.321064
    74  O   -0.540465
    75  N   -0.608571
    76  H    0.376387
    77  C   -0.081070
    78  H    0.148896
    79  C    0.588241
    80  C   -0.257027
    81  H    0.169172
    82  H    0.132869
    83  O   -0.562226
    84  C   -0.264895
    85  H    0.154063
    86  H    0.167886
    87  C   -0.291593
    88  H    0.164611
    89  H    0.161346
    90  C   -0.205448
    91  H    0.226253
    92  H    0.224070
    93  N   -0.731533
    94  H    0.423279
    95  H    0.425414
    96  H    0.423799
    97  O   -0.623377
 Sum of Mulliken charges =   1.00000

 Dipole moment (field-independent basis, Debye):
    X=            -18.9282    Y=            -21.2319    Z=             21.9461  Tot=             35.9263
 Quadrupole moment (field-independent basis, Debye-Ang):
   XX=           -224.8529   YY=           -189.5863   ZZ=            118.4387
   XY=             52.3655   XZ=            186.1880   YZ=            106.5398

 Normal termination of Gaussian 16 at Sun Jun 19 06:03:36 2022.
