 Gaussian 16, Revision C.01,
 Gaussian 16:  ES64L-G16RevC.01  3-Jul-2019

 ----------------------------------------------------------------------
 # B3LYP/6-31G* empiricaldispersion=gd3 guess=read geom=check nosymm in
 tegral(ultrafinegrid)
 ----------------------------------------------------------------------

 ------------------------------------------------------
 Candidate Structure: Conf:727 Charge calc in gas phase
 ------------------------------------------------------
 Structure from the checkpoint file:  "conf-727.chk"
 Charge =  1 Multiplicity = 1

                          Input orientation:
 ---------------------------------------------------------------------
 Center     Atomic      Atomic             Coordinates (Angstroms)
 Number     Number       Type             X           Y           Z
 ---------------------------------------------------------------------
      1          7           0       -6.652598   -0.308053   -1.863440
      2          1           0       -7.558176   -0.246638   -2.332790
      3          1           0       -6.645624    0.338990   -1.068343
      4          1           0       -6.472698   -1.290233   -1.506811
      5          6           0       -5.465339   -0.068021   -2.779366
      6          1           0       -5.850281   -0.064382   -3.803807
      7          6           0       -4.612469   -1.349970   -2.570531
      8          6           0       -4.764124    1.275882   -2.469198
      9          1           0       -3.872386    1.301876   -3.110598
     10          8           0       -5.041467   -2.235509   -1.822873
     11          6           0       -4.279295    1.356478   -1.005237
     12          1           0       -3.736946    0.438835   -0.758825
     13          1           0       -5.147668    1.413078   -0.324175
     14          6           0       -5.665882    2.451480   -2.876316
     15          1           0       -6.556875    2.521942   -2.236961
     16          1           0       -5.127152    3.396205   -2.777248
     17          1           0       -5.998224    2.367745   -3.917416
     18          6           0       -3.375241    2.563777   -0.725688
     19          1           0       -3.003618    2.520437    0.303078
     20          1           0       -2.504133    2.592538   -1.387387
     21          1           0       -3.905161    3.514800   -0.837576
     22          7           0       -3.479203   -1.407490   -3.273411
     23          1           0       -3.171704   -0.571861   -3.761080
     24          6           0       -2.422674   -2.372581   -3.012045
     25          1           0       -2.839355   -3.380333   -3.110778
     26          6           0       -1.921158   -2.219561   -1.555535
     27          6           0       -1.275201   -2.178254   -4.061538
     28          1           0       -1.483868   -2.824367   -4.919031
     29          1           0       -0.339423   -2.536641   -3.617515
     30          8           0       -2.256474   -1.270326   -0.845376
     31          6           0       -1.122765   -0.746047   -4.543564
     32          6           0       -1.288645   -0.450395   -5.903112
     33          1           0       -1.465616   -1.257520   -6.610247
     34          6           0       -0.904392    0.314393   -3.644983
     35          1           0       -0.788015    0.108018   -2.584047
     36          6           0       -1.226987    0.868516   -6.359976
     37          1           0       -1.344908    1.076486   -7.419706
     38          6           0       -0.870857    1.637836   -4.092429
     39          1           0       -0.729654    2.449738   -3.380296
     40          6           0       -1.028021    1.911551   -5.455427
     41          1           0       -0.993838    2.939382   -5.805079
     42          7           0       -1.087902   -3.196172   -1.128553
     43          1           0       -0.786994   -3.916551   -1.771930
     44          6           0       -0.500821   -3.190555    0.219987
     45          1           0       -1.271179   -2.779112    0.881405
     46          6           0        0.715306   -2.228781    0.212571
     47          6           0       -0.123500   -4.599332    0.702607
     48          1           0        0.755311   -4.918163    0.127133
     49          8           0        1.881530   -2.644771    0.120676
     50          6           0        0.267735   -4.532429    2.188349
     51          1           0       -0.606764   -4.308623    2.811008
     52          1           0        0.676603   -5.491996    2.521019
     53          1           0        1.011698   -3.752234    2.375887
     54          6           0       -1.265166   -5.606356    0.502408
     55          1           0       -2.174828   -5.274528    1.017421
     56          1           0       -1.517760   -5.759423   -0.552063
     57          1           0       -0.983337   -6.580605    0.914697
     58          7           0        0.374373   -0.933961    0.236210
     59          1           0       -0.615819   -0.715365    0.269567
     60          6           0        1.322901    0.162742    0.161848
     61          1           0        2.015082   -0.046102   -0.663709
     62          6           0        2.157489    0.250371    1.463196
     63          6           0        0.570851    1.496563   -0.099172
     64          1           0       -0.446539    1.281836   -0.447957
     65          1           0        0.472197    2.046231    0.843125
     66          8           0        1.925446   -0.504455    2.432380
     67          6           0        1.247801    2.406444   -1.139862
     68          1           0        1.184842    1.946227   -2.130652
     69          1           0        2.299723    2.570472   -0.902160
     70          6           0        0.514009    3.746289   -1.171535
     71          7           0        1.062402    4.707878   -0.411203
     72          1           0        1.896794    4.534505    0.174822
     73          1           0        0.578842    5.594022   -0.351180
     74          8           0       -0.537814    3.880104   -1.816011
     75          7           0        3.106197    1.181635    1.427947
     76          1           0        3.079527    1.895991    0.682142
     77          6           0        3.659471    1.885842    2.593358
     78          1           0        3.016058    1.684588    3.456114
     79          6           0        3.560191    3.425719    2.238286
     80          6           0        5.097934    1.487807    2.937895
     81          1           0        5.387620    2.114928    3.786056
     82          1           0        5.765334    1.757616    2.108068
     83          8           0        3.853603    4.205550    3.140625
     84          6           0        5.258168   -0.004291    3.281500
     85          1           0        6.111275   -0.152397    3.955735
     86          1           0        4.369214   -0.324389    3.843500
     87          6           0        5.464161   -0.901706    2.041893
     88          1           0        6.513199   -0.858413    1.727431
     89          1           0        4.877810   -0.531259    1.193823
     90          6           0        5.109140   -2.365598    2.295066
     91          1           0        5.503286   -3.034866    1.526101
     92          1           0        5.480055   -2.698967    3.268491
     93          7           0        3.608583   -2.548702    2.304401
     94          1           0        3.321259   -3.383715    2.819518
     95          1           0        3.190722   -2.622214    1.352177
     96          1           0        3.088245   -1.715294    2.689324
     97          8           0        3.194101    3.649567    1.030080
 ---------------------------------------------------------------------

 SCF Done:  E(RB3LYP) =  -2122.47008701     A.U. after    1 cycles

 Alpha  occ. eigenvalues --  -19.27269 -19.24399 -19.22657 -19.20105 -19.16150
 Alpha  occ. eigenvalues --  -19.11990 -19.10166 -14.59736 -14.52632 -14.49864
 Alpha  occ. eigenvalues --  -14.48660 -14.45917 -14.41427 -14.38748 -10.43825
 Alpha  occ. eigenvalues --  -10.41292 -10.40257 -10.39352 -10.36594 -10.36470
 Alpha  occ. eigenvalues --  -10.34124 -10.34112 -10.33618 -10.33343 -10.32211
 Alpha  occ. eigenvalues --  -10.31497 -10.29934 -10.29743 -10.29717 -10.29553
 Alpha  occ. eigenvalues --  -10.29240 -10.28363 -10.28233 -10.27902 -10.27614
 Alpha  occ. eigenvalues --  -10.27521 -10.27510 -10.27469 -10.27232 -10.26930
 Alpha  occ. eigenvalues --  -10.25947 -10.25871 -10.25446 -10.25322 -10.23306
 Alpha  occ. eigenvalues --   -1.19628  -1.16314  -1.14048  -1.13781  -1.11130
 Alpha  occ. eigenvalues --   -1.07786  -1.07351  -1.07162  -1.04838  -1.04515
 Alpha  occ. eigenvalues --   -1.02587  -0.98876  -0.95775  -0.95425  -0.94595
 Alpha  occ. eigenvalues --   -0.93995  -0.91716  -0.89907  -0.88422  -0.87606
 Alpha  occ. eigenvalues --   -0.86693  -0.84354  -0.83374  -0.82994  -0.82857
 Alpha  occ. eigenvalues --   -0.81842  -0.79138  -0.78357  -0.76751  -0.76320
 Alpha  occ. eigenvalues --   -0.75940  -0.74171  -0.73695  -0.72154  -0.71743
 Alpha  occ. eigenvalues --   -0.71343  -0.70150  -0.69649  -0.69154  -0.68709
 Alpha  occ. eigenvalues --   -0.68056  -0.67500  -0.67227  -0.66203  -0.64780
 Alpha  occ. eigenvalues --   -0.64470  -0.63349  -0.63269  -0.62706  -0.62156
 Alpha  occ. eigenvalues --   -0.61684  -0.61209  -0.60346  -0.59586  -0.59378
 Alpha  occ. eigenvalues --   -0.58494  -0.58185  -0.58037  -0.57198  -0.56967
 Alpha  occ. eigenvalues --   -0.56215  -0.55164  -0.54861  -0.54660  -0.54275
 Alpha  occ. eigenvalues --   -0.54094  -0.53761  -0.53394  -0.53098  -0.52731
 Alpha  occ. eigenvalues --   -0.52177  -0.51763  -0.51720  -0.51541  -0.51086
 Alpha  occ. eigenvalues --   -0.51004  -0.50862  -0.50364  -0.49805  -0.49708
 Alpha  occ. eigenvalues --   -0.49482  -0.48946  -0.48842  -0.48597  -0.48417
 Alpha  occ. eigenvalues --   -0.48221  -0.47892  -0.47823  -0.47235  -0.46910
 Alpha  occ. eigenvalues --   -0.45983  -0.45384  -0.45203  -0.44873  -0.44525
 Alpha  occ. eigenvalues --   -0.44447  -0.43896  -0.43767  -0.43488  -0.43414
 Alpha  occ. eigenvalues --   -0.43151  -0.42926  -0.42835  -0.42444  -0.41783
 Alpha  occ. eigenvalues --   -0.41467  -0.41335  -0.41235  -0.40632  -0.40537
 Alpha  occ. eigenvalues --   -0.39966  -0.39551  -0.39308  -0.38065  -0.37795
 Alpha  occ. eigenvalues --   -0.36498  -0.35370  -0.34148  -0.34020  -0.33900
 Alpha  occ. eigenvalues --   -0.32709  -0.30804  -0.30148  -0.27058  -0.26694
 Alpha  occ. eigenvalues --   -0.24092
 Alpha virt. eigenvalues --   -0.12877  -0.11174  -0.10713  -0.09639  -0.09121
 Alpha virt. eigenvalues --   -0.08774  -0.06679  -0.06521  -0.05133  -0.03938
 Alpha virt. eigenvalues --   -0.03649  -0.02531  -0.02154  -0.01577  -0.00589

 Mulliken charges:
               1
     1  N   -0.760366
     2  H    0.415059
     3  H    0.412541
     4  H    0.431832
     5  C   -0.118325
     6  H    0.215301
     7  C    0.670604
     8  C   -0.124031
     9  H    0.184058
    10  O   -0.539438
    11  C   -0.320137
    12  H    0.207201
    13  H    0.111920
    14  C   -0.467694
    15  H    0.134138
    16  H    0.210002
    17  H    0.162406
    18  C   -0.473660
    19  H    0.162490
    20  H    0.207401
    21  H    0.160355
    22  N   -0.600682
    23  H    0.375102
    24  C   -0.067027
    25  H    0.199297
    26  C    0.659222
    27  C   -0.374672
    28  H    0.179719
    29  H    0.178413
    30  O   -0.544922
    31  C    0.094424
    32  C   -0.182518
    33  H    0.141998
    34  C   -0.229294
    35  H    0.146421
    36  C   -0.126209
    37  H    0.154384
    38  C   -0.160781
    39  H    0.226887
    40  C   -0.145406
    41  H    0.160624
    42  N   -0.609776
    43  H    0.346622
    44  C   -0.044234
    45  H    0.184287
    46  C    0.645431
    47  C   -0.105550
    48  H    0.153644
    49  O   -0.590461
    50  C   -0.464817
    51  H    0.164450
    52  H    0.163648
    53  H    0.135446
    54  C   -0.449382
    55  H    0.157320
    56  H    0.136291
    57  H    0.169444
    58  N   -0.605404
    59  H    0.378513
    60  C   -0.025197
    61  H    0.183483
    62  C    0.585584
    63  C   -0.335422
    64  H    0.161535
    65  H    0.191337
    66  O   -0.602392
    67  C   -0.377128
    68  H    0.156116
    69  H    0.198882
    70  C    0.574947
    71  N   -0.751306
    72  H    0.416510
    73  H    0.334162
    74  O   -0.543670
    75  N   -0.583377
    76  H    0.384075
    77  C   -0.091867
    78  H    0.163043
    79  C    0.597906
    80  C   -0.264831
    81  H    0.185085
    82  H    0.144935
    83  O   -0.534302
    84  C   -0.282021
    85  H    0.152261
    86  H    0.136678
    87  C   -0.289840
    88  H    0.176032
    89  H    0.173560
    90  C   -0.177385
    91  H    0.191613
    92  H    0.193305
    93  N   -0.806070
    94  H    0.386885
    95  H    0.440167
    96  H    0.448427
    97  O   -0.643825
 Sum of Mulliken charges =   1.00000

 Dipole moment (field-independent basis, Debye):
    X=            -17.9540    Y=            -16.6908    Z=            -10.2283  Tot=             26.5622
 Quadrupole moment (field-independent basis, Debye-Ang):
   XX=           -106.4175   YY=           -258.3106   ZZ=           -220.6201
   XY=            -52.8853   XZ=             58.9620   YZ=            -28.0224

 Normal termination of Gaussian 16 at Sun Jun 19 06:03:06 2022.
