 Gaussian 16, Revision C.01,
 Gaussian 16:  ES64L-G16RevC.01  3-Jul-2019

 ----------------------------------------------------------------------
 # B3LYP/6-31G* empiricaldispersion=gd3 guess=read geom=check nosymm in
 tegral(ultrafinegrid)
 ----------------------------------------------------------------------

 ------------------------------------------------------
 Candidate Structure: Conf:112 Charge calc in gas phase
 ------------------------------------------------------
 Structure from the checkpoint file:  "conf-112.chk"
 Charge =  1 Multiplicity = 1

                          Input orientation:
 ---------------------------------------------------------------------
 Center     Atomic      Atomic             Coordinates (Angstroms)
 Number     Number       Type             X           Y           Z
 ---------------------------------------------------------------------
      1          7           0       -7.103648   -0.519812   -3.769557
      2          1           0       -7.362327    0.465167   -3.668201
      3          1           0       -7.956416   -1.081362   -3.833371
      4          1           0       -6.497687   -0.626932   -4.642544
      5          6           0       -6.147112   -0.995798   -2.690704
      6          1           0       -6.191185   -0.284307   -1.864957
      7          6           0       -4.783680   -0.938967   -3.427148
      8          6           0       -6.538289   -2.418310   -2.214154
      9          1           0       -7.584167   -2.337393   -1.876622
     10          8           0       -4.808479   -0.868042   -4.669322
     11          6           0       -5.710915   -2.882875   -0.994358
     12          1           0       -4.671134   -3.064419   -1.289909
     13          1           0       -6.114252   -3.860868   -0.706645
     14          6           0       -6.455454   -3.448776   -3.352639
     15          1           0       -5.423222   -3.577638   -3.693812
     16          1           0       -6.815703   -4.418643   -2.998384
     17          1           0       -7.059459   -3.183259   -4.229328
     18          6           0       -5.752482   -1.950963    0.222192
     19          1           0       -5.253336   -2.422634    1.072994
     20          1           0       -5.234242   -0.999319    0.050302
     21          1           0       -6.783350   -1.723507    0.520083
     22          7           0       -3.701245   -1.000769   -2.672457
     23          1           0       -3.741372   -1.162400   -1.663009
     24          6           0       -2.339033   -1.149719   -3.182325
     25          1           0       -2.362972   -1.859418   -4.015298
     26          6           0       -1.573247   -1.789495   -1.997053
     27          6           0       -1.779495    0.205385   -3.681637
     28          1           0       -1.704006    0.888798   -2.828484
     29          1           0       -2.538877    0.616130   -4.359297
     30          8           0       -2.170114   -1.988245   -0.927179
     31          6           0       -0.447167    0.111383   -4.398712
     32          6           0        0.609269    0.959394   -4.046803
     33          1           0        0.502506    1.693474   -3.252745
     34          6           0       -0.259270   -0.803341   -5.448663
     35          1           0       -1.075850   -1.449895   -5.765176
     36          6           0        1.826691    0.900018   -4.726260
     37          1           0        2.603213    1.598535   -4.435784
     38          6           0        0.966283   -0.880801   -6.111043
     39          1           0        1.098467   -1.598634   -6.916256
     40          6           0        2.011671   -0.027536   -5.750452
     41          1           0        2.963666   -0.084797   -6.270631
     42          7           0       -0.297910   -2.119276   -2.226969
     43          1           0        0.162285   -1.820287   -3.084958
     44          6           0        0.594062   -2.658698   -1.197017
     45          1           0        0.087088   -2.542318   -0.234754
     46          6           0        1.859881   -1.791648   -1.286499
     47          6           0        0.914071   -4.151434   -1.439418
     48          1           0        1.430108   -4.207242   -2.407559
     49          8           0        2.367387   -1.578147   -2.388463
     50          6           0        1.859849   -4.675856   -0.349326
     51          1           0        1.389727   -4.605133    0.640698
     52          1           0        2.102573   -5.728829   -0.527696
     53          1           0        2.798645   -4.113679   -0.317499
     54          6           0       -0.369533   -4.988032   -1.505293
     55          1           0       -0.930611   -4.918261   -0.565244
     56          1           0       -1.026251   -4.652154   -2.314360
     57          1           0       -0.131128   -6.042694   -1.681906
     58          7           0        2.322164   -1.273914   -0.133630
     59          1           0        1.892550   -1.456382    0.767966
     60          6           0        3.360092   -0.256693   -0.120145
     61          1           0        4.217573   -0.617265   -0.699664
     62          6           0        3.749638   -0.031875    1.353473
     63          6           0        2.847516    1.081424   -0.735762
     64          1           0        1.980042    0.865320   -1.363503
     65          1           0        2.509953    1.741955    0.072104
     66          8           0        3.090443   -0.542750    2.269063
     67          6           0        3.883576    1.814627   -1.602746
     68          1           0        4.033781    1.246747   -2.526339
     69          1           0        4.843672    1.913121   -1.092455
     70          6           0        3.338215    3.197623   -1.950625
     71          7           0        3.847855    4.208056   -1.214879
     72          1           0        4.485573    4.039921   -0.423355
     73          1           0        3.450451    5.127525   -1.351270
     74          8           0        2.459628    3.343762   -2.808255
     75          7           0        4.787021    0.807630    1.538525
     76          1           0        5.130841    1.338664    0.731320
     77          6           0        4.886788    1.702249    2.693034
     78          1           0        3.902001    1.771997    3.170609
     79          6           0        5.266842    3.141679    2.154234
     80          6           0        5.907043    1.240987    3.730461
     81          1           0        6.003834    2.051404    4.461697
     82          1           0        6.884213    1.121973    3.240995
     83          8           0        5.381482    4.012938    3.022301
     84          6           0        5.508198   -0.069641    4.413399
     85          1           0        4.533302    0.051779    4.903259
     86          1           0        5.373768   -0.855933    3.661124
     87          6           0        6.559476   -0.502302    5.448268
     88          1           0        6.684867    0.293304    6.196954
     89          1           0        7.530198   -0.638142    4.949699
     90          6           0        6.147839   -1.792947    6.132398
     91          1           0        5.211011   -1.694684    6.686266
     92          1           0        6.065944   -2.630851    5.435789
     93          7           0        7.207311   -2.207868    7.169078
     94          1           0        6.968708   -3.078389    7.658916
     95          1           0        7.325782   -1.469376    7.873257
     96          1           0        8.119548   -2.338406    6.715320
     97          8           0        5.414925    3.204416    0.891603
 ---------------------------------------------------------------------

 SCF Done:  E(RB3LYP) =  -2122.41114563     A.U. after    3 cycles

 Alpha  occ. eigenvalues --  -19.25322 -19.20116 -19.16095 -19.15582 -19.11595
 Alpha  occ. eigenvalues --  -19.08979 -19.07580 -14.62847 -14.58749 -14.47595
 Alpha  occ. eigenvalues --  -14.43247 -14.40448 -14.37250 -14.34684 -10.41894
 Alpha  occ. eigenvalues --  -10.39297 -10.39133 -10.37071 -10.33312 -10.33197
 Alpha  occ. eigenvalues --  -10.32648 -10.32104 -10.30926 -10.29479 -10.29206
 Alpha  occ. eigenvalues --  -10.29175 -10.28918 -10.27586 -10.27088 -10.26629
 Alpha  occ. eigenvalues --  -10.26629 -10.25830 -10.25195 -10.24552 -10.23574
 Alpha  occ. eigenvalues --  -10.23379 -10.23192 -10.23185 -10.23173 -10.22505
 Alpha  occ. eigenvalues --  -10.22367 -10.22304 -10.22132 -10.21753 -10.20579
 Alpha  occ. eigenvalues --   -1.17803  -1.16655  -1.12611  -1.11804  -1.08331
 Alpha  occ. eigenvalues --   -1.06804  -1.04475  -1.02966  -1.01667  -0.99836
 Alpha  occ. eigenvalues --   -0.96870  -0.94891  -0.94282  -0.92908  -0.92288
 Alpha  occ. eigenvalues --   -0.90244  -0.89799  -0.87552  -0.86298  -0.84771
 Alpha  occ. eigenvalues --   -0.84074  -0.83331  -0.82236  -0.79848  -0.78190
 Alpha  occ. eigenvalues --   -0.78104  -0.77551  -0.75445  -0.75294  -0.75201
 Alpha  occ. eigenvalues --   -0.74256  -0.73845  -0.73565  -0.73098  -0.72245
 Alpha  occ. eigenvalues --   -0.69891  -0.69345  -0.67361  -0.66745  -0.66207
 Alpha  occ. eigenvalues --   -0.65600  -0.65141  -0.64200  -0.63526  -0.63131
 Alpha  occ. eigenvalues --   -0.62585  -0.62212  -0.61001  -0.60465  -0.59982
 Alpha  occ. eigenvalues --   -0.59736  -0.58694  -0.58296  -0.57588  -0.55699
 Alpha  occ. eigenvalues --   -0.55295  -0.54707  -0.54331  -0.53821  -0.53540
 Alpha  occ. eigenvalues --   -0.53439  -0.53297  -0.53072  -0.52593  -0.52283
 Alpha  occ. eigenvalues --   -0.51671  -0.51244  -0.50673  -0.50642  -0.50054
 Alpha  occ. eigenvalues --   -0.49552  -0.49257  -0.49031  -0.48620  -0.48422
 Alpha  occ. eigenvalues --   -0.48056  -0.47576  -0.47439  -0.47200  -0.46823
 Alpha  occ. eigenvalues --   -0.46262  -0.45851  -0.45424  -0.45329  -0.45119
 Alpha  occ. eigenvalues --   -0.44803  -0.44627  -0.44293  -0.44155  -0.44024
 Alpha  occ. eigenvalues --   -0.43916  -0.43688  -0.43552  -0.43076  -0.42963
 Alpha  occ. eigenvalues --   -0.41634  -0.41009  -0.40182  -0.40000  -0.39862
 Alpha  occ. eigenvalues --   -0.39705  -0.39433  -0.39315  -0.38935  -0.38830
 Alpha  occ. eigenvalues --   -0.38492  -0.38098  -0.37947  -0.37608  -0.37002
 Alpha  occ. eigenvalues --   -0.36694  -0.36535  -0.35512  -0.34391  -0.33193
 Alpha  occ. eigenvalues --   -0.30593  -0.29688  -0.29387  -0.28867  -0.28625
 Alpha  occ. eigenvalues --   -0.28539  -0.26669  -0.25616  -0.23998  -0.23745
 Alpha  occ. eigenvalues --   -0.21683
 Alpha virt. eigenvalues --   -0.13470  -0.10796  -0.10075  -0.06820  -0.06636
 Alpha virt. eigenvalues --   -0.06186  -0.05659  -0.04296  -0.04221  -0.03881
 Alpha virt. eigenvalues --   -0.03595  -0.02617  -0.01262  -0.00379  -0.00197

 Mulliken charges:
               1
     1  N   -0.761936
     2  H    0.415380
     3  H    0.409055
     4  H    0.433983
     5  C   -0.113056
     6  H    0.212004
     7  C    0.653766
     8  C   -0.109253
     9  H    0.150069
    10  O   -0.554822
    11  C   -0.285958
    12  H    0.179419
    13  H    0.169223
    14  C   -0.474538
    15  H    0.187684
    16  H    0.189876
    17  H    0.137488
    18  C   -0.467843
    19  H    0.190439
    20  H    0.147670
    21  H    0.153382
    22  N   -0.615861
    23  H    0.392048
    24  C   -0.078967
    25  H    0.195308
    26  C    0.626061
    27  C   -0.338359
    28  H    0.162788
    29  H    0.178514
    30  O   -0.563083
    31  C    0.123476
    32  C   -0.191565
    33  H    0.161665
    34  C   -0.207663
    35  H    0.119069
    36  C   -0.114491
    37  H    0.180110
    38  C   -0.121370
    39  H    0.132960
    40  C   -0.120495
    41  H    0.138424
    42  N   -0.615064
    43  H    0.384972
    44  C   -0.046510
    45  H    0.166417
    46  C    0.625736
    47  C   -0.072868
    48  H    0.152294
    49  O   -0.543093
    50  C   -0.462623
    51  H    0.138882
    52  H    0.153072
    53  H    0.164360
    54  C   -0.446402
    55  H    0.147776
    56  H    0.137650
    57  H    0.150687
    58  N   -0.623532
    59  H    0.346378
    60  C   -0.026406
    61  H    0.178079
    62  C    0.570773
    63  C   -0.287052
    64  H    0.170987
    65  H    0.161973
    66  O   -0.569743
    67  C   -0.370493
    68  H    0.164765
    69  H    0.178146
    70  C    0.565879
    71  N   -0.762989
    72  H    0.409658
    73  H    0.323522
    74  O   -0.545520
    75  N   -0.605966
    76  H    0.371886
    77  C   -0.081976
    78  H    0.150911
    79  C    0.586638
    80  C   -0.256222
    81  H    0.168157
    82  H    0.132985
    83  O   -0.560597
    84  C   -0.264668
    85  H    0.155593
    86  H    0.167876
    87  C   -0.291582
    88  H    0.164377
    89  H    0.161598
    90  C   -0.205559
    91  H    0.225965
    92  H    0.226079
    93  N   -0.731641
    94  H    0.424047
    95  H    0.424952
    96  H    0.424374
    97  O   -0.627540
 Sum of Mulliken charges =   1.00000

 Dipole moment (field-independent basis, Debye):
    X=             -8.0390    Y=            -22.0391    Z=             14.6231  Tot=             27.6439
 Quadrupole moment (field-independent basis, Debye-Ang):
   XX=             61.8233   YY=           -268.2625   ZZ=            -50.4586
   XY=            -90.9426   XZ=            258.2451   YZ=            -64.5293

 Normal termination of Gaussian 16 at Sun Jun 19 06:03:42 2022.
