 Gaussian 16, Revision C.01,
 Gaussian 16:  ES64L-G16RevC.01  3-Jul-2019

 ----------------------------------------------------------------------
 # B3LYP/6-31G* empiricaldispersion=gd3 guess=read geom=check nosymm in
 tegral(ultrafinegrid)
 ----------------------------------------------------------------------

 -----------------------------------------------------
 Candidate Structure: Conf:95 Charge calc in gas phase
 -----------------------------------------------------
 Structure from the checkpoint file:  "conf-95.chk"
 Charge =  1 Multiplicity = 1

                          Input orientation:
 ---------------------------------------------------------------------
 Center     Atomic      Atomic             Coordinates (Angstroms)
 Number     Number       Type             X           Y           Z
 ---------------------------------------------------------------------
      1          7           0       -2.567635    2.180365   -6.227939
      2          1           0       -1.794408    2.697428   -6.654816
      3          1           0       -3.451152    2.602987   -6.524668
      4          1           0       -2.505658    1.158573   -6.528439
      5          6           0       -2.439671    2.057617   -4.718967
      6          1           0       -1.697633    2.786206   -4.383761
      7          6           0       -1.918861    0.603776   -4.561136
      8          6           0       -3.804807    2.319953   -4.033587
      9          1           0       -4.138562    3.301151   -4.408066
     10          8           0       -2.009840   -0.147909   -5.547522
     11          6           0       -3.637248    2.462578   -2.503475
     12          1           0       -2.765470    3.099402   -2.295361
     13          1           0       -3.425931    1.484147   -2.056803
     14          6           0       -4.848477    1.257135   -4.413848
     15          1           0       -4.579052    0.279063   -4.001549
     16          1           0       -5.828827    1.530976   -4.018146
     17          1           0       -4.966121    1.135213   -5.497854
     18          6           0       -4.865431    3.074370   -1.818868
     19          1           0       -4.671508    3.207478   -0.750554
     20          1           0       -5.110030    4.056409   -2.240341
     21          1           0       -5.747778    2.433804   -1.913306
     22          7           0       -1.440522    0.267111   -3.375123
     23          1           0       -1.453650    0.903627   -2.577658
     24          6           0       -1.027153   -1.085077   -3.008089
     25          1           0       -1.730858   -1.794361   -3.455375
     26          6           0       -1.162637   -1.122689   -1.468447
     27          6           0        0.404797   -1.390739   -3.538454
     28          1           0        1.111497   -0.662337   -3.127056
     29          1           0        0.361750   -1.240280   -4.623881
     30          8           0       -1.391082   -0.069876   -0.850472
     31          6           0        0.845190   -2.800144   -3.209576
     32          6           0        1.884917   -3.021192   -2.298903
     33          1           0        2.437901   -2.171277   -1.911889
     34          6           0        0.145534   -3.903629   -3.726147
     35          1           0       -0.652176   -3.747148   -4.450293
     36          6           0        2.197247   -4.316465   -1.882708
     37          1           0        2.979248   -4.465491   -1.145514
     38          6           0        0.461538   -5.199464   -3.314575
     39          1           0       -0.088126   -6.044903   -3.719028
     40          6           0        1.483013   -5.406548   -2.382303
     41          1           0        1.720108   -6.413244   -2.050348
     42          7           0       -1.029370   -2.324621   -0.886713
     43          1           0       -0.702529   -3.092139   -1.464826
     44          6           0       -0.898100   -2.512418    0.571966
     45          1           0       -1.615891   -1.836784    1.049036
     46          6           0        0.553861   -2.096584    0.908692
     47          6           0       -1.198252   -3.967382    0.957327
     48          1           0       -0.432045   -4.587266    0.471974
     49          8           0        1.477842   -2.902295    0.903749
     50          6           0       -1.061321   -4.144215    2.476332
     51          1           0       -1.777733   -3.507978    3.011873
     52          1           0       -1.266834   -5.182685    2.755920
     53          1           0       -0.052173   -3.897046    2.816440
     54          6           0       -2.588974   -4.401586    0.474590
     55          1           0       -3.372310   -3.783520    0.931534
     56          1           0       -2.695178   -4.326823   -0.613068
     57          1           0       -2.779062   -5.442235    0.757202
     58          7           0        0.721476   -0.755773    1.069878
     59          1           0       -0.091977   -0.164378    0.953904
     60          6           0        2.020275   -0.144501    0.843296
     61          1           0        2.617977   -0.891214    0.311733
     62          6           0        2.722213    0.254242    2.149750
     63          6           0        1.853387    1.115381   -0.029498
     64          1           0        1.223948    0.856681   -0.886442
     65          1           0        1.335727    1.881908    0.558604
     66          8           0        2.156617    0.917545    3.007129
     67          6           0        3.195070    1.656383   -0.543642
     68          1           0        3.838892    1.982127    0.278300
     69          1           0        3.012263    2.526944   -1.183852
     70          6           0        3.875304    0.591255   -1.400166
     71          7           0        5.116168    0.217297   -0.998211
     72          1           0        5.602873    0.688158   -0.234799
     73          1           0        5.617715   -0.444452   -1.576334
     74          8           0        3.293531    0.072323   -2.355258
     75          7           0        4.032017   -0.129916    2.211127
     76          1           0        4.429105   -0.591243    1.402565
     77          6           0        4.964624    0.413443    3.177358
     78          1           0        4.380977    0.839368    3.994948
     79          6           0        5.823974    1.520338    2.574793
     80          6           0        5.900957   -0.709206    3.718773
     81          1           0        6.174769   -1.359860    2.876717
     82          1           0        5.294695   -1.320940    4.394339
     83          8           0        6.236817    2.373841    3.490590
     84          6           0        7.189401   -0.232114    4.426871
     85          1           0        6.972199    0.674977    4.998358
     86          1           0        7.480361   -0.992824    5.159470
     87          6           0        8.387337    0.006616    3.462940
     88          1           0        8.032993    0.115880    2.430532
     89          1           0        9.013244   -0.893127    3.458965
     90          6           0        9.287951    1.215205    3.788539
     91          1           0        9.292197    1.407846    4.866859
     92          1           0       10.324120    0.995532    3.497137
     93          7           0        8.815946    2.457238    3.116868
     94          1           0        8.939941    2.369125    2.107841
     95          1           0        9.377040    3.255202    3.412784
     96          1           0        7.215643    2.649375    3.278450
     97          8           0        6.193197    1.532944    1.400874
 ---------------------------------------------------------------------

 SCF Done:  E(RB3LYP) =  -2122.49564796     A.U. after    1 cycles

 Alpha  occ. eigenvalues --  -19.26645 -19.22533 -19.22392 -19.20235 -19.18094
 Alpha  occ. eigenvalues --  -19.17817 -19.16976 -14.59836 -14.49139 -14.45580
 Alpha  occ. eigenvalues --  -14.42199 -14.41959 -14.41905 -14.41664 -10.43274
 Alpha  occ. eigenvalues --  -10.40396 -10.39116 -10.37665 -10.35405 -10.35135
 Alpha  occ. eigenvalues --  -10.34299 -10.34198 -10.34191 -10.30725 -10.30366
 Alpha  occ. eigenvalues --  -10.30309 -10.29432 -10.29267 -10.28780 -10.27690
 Alpha  occ. eigenvalues --  -10.27679 -10.26859 -10.26162 -10.26091 -10.25945
 Alpha  occ. eigenvalues --  -10.25944 -10.25938 -10.25563 -10.25515 -10.25306
 Alpha  occ. eigenvalues --  -10.25117 -10.25072 -10.24544 -10.23957 -10.23094
 Alpha  occ. eigenvalues --   -1.19106  -1.15108  -1.14184  -1.13512  -1.10123
 Alpha  occ. eigenvalues --   -1.09380  -1.08921  -1.06417  -1.05960  -1.02112
 Alpha  occ. eigenvalues --   -0.99000  -0.98569  -0.97259  -0.96463  -0.95346
 Alpha  occ. eigenvalues --   -0.92736  -0.89237  -0.87539  -0.86867  -0.86075
 Alpha  occ. eigenvalues --   -0.85923  -0.83829  -0.81876  -0.81711  -0.81054
 Alpha  occ. eigenvalues --   -0.79631  -0.77139  -0.76749  -0.75617  -0.75185
 Alpha  occ. eigenvalues --   -0.74552  -0.73812  -0.73258  -0.70905  -0.70477
 Alpha  occ. eigenvalues --   -0.69279  -0.68793  -0.68335  -0.67144  -0.66717
 Alpha  occ. eigenvalues --   -0.66428  -0.65311  -0.65109  -0.64105  -0.64005
 Alpha  occ. eigenvalues --   -0.63846  -0.63271  -0.62232  -0.60874  -0.60140
 Alpha  occ. eigenvalues --   -0.59935  -0.59421  -0.58055  -0.57816  -0.57731
 Alpha  occ. eigenvalues --   -0.57471  -0.57014  -0.56646  -0.56037  -0.54988
 Alpha  occ. eigenvalues --   -0.54868  -0.54626  -0.54061  -0.53787  -0.53674
 Alpha  occ. eigenvalues --   -0.53183  -0.53025  -0.52593  -0.51981  -0.51602
 Alpha  occ. eigenvalues --   -0.50951  -0.50325  -0.50222  -0.50032  -0.49739
 Alpha  occ. eigenvalues --   -0.49625  -0.49541  -0.49063  -0.48555  -0.48360
 Alpha  occ. eigenvalues --   -0.48269  -0.48099  -0.47842  -0.47571  -0.47497
 Alpha  occ. eigenvalues --   -0.46736  -0.46534  -0.46173  -0.46011  -0.45724
 Alpha  occ. eigenvalues --   -0.45298  -0.44871  -0.44703  -0.44584  -0.44281
 Alpha  occ. eigenvalues --   -0.43875  -0.43674  -0.43066  -0.42824  -0.42495
 Alpha  occ. eigenvalues --   -0.42314  -0.41951  -0.41592  -0.41247  -0.40748
 Alpha  occ. eigenvalues --   -0.40377  -0.40310  -0.40013  -0.39929  -0.39732
 Alpha  occ. eigenvalues --   -0.39440  -0.39391  -0.38700  -0.36729  -0.36217
 Alpha  occ. eigenvalues --   -0.36092  -0.34269  -0.34028  -0.33380  -0.33055
 Alpha  occ. eigenvalues --   -0.31832  -0.31629  -0.31272  -0.31099  -0.30763
 Alpha  occ. eigenvalues --   -0.29893
 Alpha virt. eigenvalues --   -0.12156  -0.11119  -0.08663  -0.07151  -0.06894
 Alpha virt. eigenvalues --   -0.06652  -0.05838  -0.04389  -0.04120  -0.03943
 Alpha virt. eigenvalues --   -0.03640  -0.01512  -0.00857   0.00041   0.00349

 Mulliken charges:
               1
     1  N   -0.762067
     2  H    0.416759
     3  H    0.411219
     4  H    0.434955
     5  C   -0.115353
     6  H    0.210295
     7  C    0.654844
     8  C   -0.098746
     9  H    0.151230
    10  O   -0.551823
    11  C   -0.291661
    12  H    0.148319
    13  H    0.178271
    14  C   -0.477108
    15  H    0.184875
    16  H    0.196591
    17  H    0.139549
    18  C   -0.458755
    19  H    0.182006
    20  H    0.157174
    21  H    0.166136
    22  N   -0.602069
    23  H    0.382694
    24  C   -0.076753
    25  H    0.194551
    26  C    0.638285
    27  C   -0.372604
    28  H    0.214349
    29  H    0.174708
    30  O   -0.570893
    31  C    0.107405
    32  C   -0.183600
    33  H    0.176080
    34  C   -0.209295
    35  H    0.132009
    36  C   -0.109685
    37  H    0.154036
    38  C   -0.129229
    39  H    0.145107
    40  C   -0.137833
    41  H    0.147569
    42  N   -0.606280
    43  H    0.372710
    44  C   -0.050254
    45  H    0.169048
    46  C    0.620127
    47  C   -0.103131
    48  H    0.159611
    49  O   -0.528301
    50  C   -0.463436
    51  H    0.143749
    52  H    0.157097
    53  H    0.178951
    54  C   -0.448798
    55  H    0.145677
    56  H    0.136856
    57  H    0.161034
    58  N   -0.587112
    59  H    0.358556
    60  C   -0.071522
    61  H    0.175829
    62  C    0.632343
    63  C   -0.299057
    64  H    0.153991
    65  H    0.168087
    66  O   -0.519464
    67  C   -0.368378
    68  H    0.176903
    69  H    0.166541
    70  C    0.579632
    71  N   -0.784196
    72  H    0.400935
    73  H    0.338950
    74  O   -0.528358
    75  N   -0.598052
    76  H    0.335774
    77  C   -0.043764
    78  H    0.207420
    79  C    0.605314
    80  C   -0.284026
    81  H    0.140529
    82  H    0.171679
    83  O   -0.583846
    84  C   -0.287307
    85  H    0.173392
    86  H    0.152380
    87  C   -0.291872
    88  H    0.153105
    89  H    0.155064
    90  C   -0.144534
    91  H    0.169404
    92  H    0.151832
    93  N   -0.779712
    94  H    0.339318
    95  H    0.337133
    96  H    0.460048
    97  O   -0.529161
 Sum of Mulliken charges =   1.00000

 Dipole moment (field-independent basis, Debye):
    X=             -0.1326    Y=              7.1964    Z=            -16.9915  Tot=             18.4531
 Quadrupole moment (field-independent basis, Debye-Ang):
   XX=           -109.2450   YY=           -219.5814   ZZ=           -150.4044
   XY=             -7.3717   XZ=             93.2144   YZ=            -50.2693

 Normal termination of Gaussian 16 at Sun Jun 19 06:03:00 2022.
