 Gaussian 16, Revision C.01,
 Gaussian 16:  ES64L-G16RevC.01  3-Jul-2019

 ----------------------------------------------------------------------
 # B3LYP/6-31G* empiricaldispersion=gd3 guess=read geom=check nosymm in
 tegral(ultrafinegrid)
 ----------------------------------------------------------------------

 ------------------------------------------------------
 Candidate Structure: Conf:883 Charge calc in gas phase
 ------------------------------------------------------
 Structure from the checkpoint file:  "conf-883.chk"
 Charge =  1 Multiplicity = 1

                          Input orientation:
 ---------------------------------------------------------------------
 Center     Atomic      Atomic             Coordinates (Angstroms)
 Number     Number       Type             X           Y           Z
 ---------------------------------------------------------------------
      1          7           0       -5.204771   -2.204914   -1.869173
      2          1           0       -5.492863   -3.116417   -2.235546
      3          1           0       -5.914653   -1.870378   -1.212200
      4          1           0       -4.263571   -2.315518   -1.393122
      5          6           0       -4.883455   -1.199391   -2.961158
      6          1           0       -5.396887   -1.514263   -3.871522
      7          6           0       -3.348263   -1.323678   -3.075248
      8          6           0       -5.344938    0.217265   -2.523429
      9          1           0       -6.432190    0.128895   -2.364035
     10          8           0       -2.740022   -1.816883   -2.114229
     11          6           0       -5.127152    1.270623   -3.631283
     12          1           0       -4.050975    1.442236   -3.748209
     13          1           0       -5.535331    2.210377   -3.241809
     14          6           0       -4.667310    0.672369   -1.218232
     15          1           0       -3.596866    0.835378   -1.373476
     16          1           0       -5.110729    1.618298   -0.894228
     17          1           0       -4.791520   -0.035516   -0.388449
     18          6           0       -5.802092    0.964811   -4.974432
     19          1           0       -5.717815    1.825467   -5.645134
     20          1           0       -5.357620    0.113153   -5.506629
     21          1           0       -6.870288    0.751130   -4.846710
     22          7           0       -2.780578   -0.847745   -4.179650
     23          1           0       -3.361389   -0.494773   -4.930828
     24          6           0       -1.342357   -0.587650   -4.261706
     25          1           0       -0.814499   -1.547104   -4.252988
     26          6           0       -0.947961    0.287385   -3.048665
     27          6           0       -1.036642    0.188903   -5.565390
     28          1           0        0.052084    0.213083   -5.681393
     29          1           0       -1.370563    1.222426   -5.421309
     30          8           0       -1.667969    1.234648   -2.721419
     31          6           0       -1.706233   -0.415088   -6.779371
     32          6           0       -2.852993    0.182265   -7.322278
     33          1           0       -3.205876    1.129597   -6.918250
     34          6           0       -1.242283   -1.614236   -7.337492
     35          1           0       -0.349817   -2.085441   -6.931483
     36          6           0       -3.526031   -0.407067   -8.396827
     37          1           0       -4.406018    0.075222   -8.813380
     38          6           0       -1.908690   -2.201420   -8.412209
     39          1           0       -1.531354   -3.125361   -8.841250
     40          6           0       -3.055340   -1.601583   -8.942113
     41          1           0       -3.570328   -2.058643   -9.782069
     42          7           0        0.209222   -0.039929   -2.464287
     43          1           0        0.732873   -0.871311   -2.728521
     44          6           0        0.752020    0.632645   -1.290365
     45          1           0        0.751085    1.713309   -1.474681
     46          6           0        2.192486    0.106301   -1.169893
     47          6           0       -0.112403    0.345958   -0.021382
     48          1           0       -1.122634    0.652687   -0.317783
     49          8           0        2.514027   -0.957004   -1.699022
     50          6           0       -0.131688   -1.145031    0.340751
     51          1           0        0.855945   -1.481781    0.671197
     52          1           0       -0.832795   -1.314795    1.166131
     53          1           0       -0.456671   -1.757559   -0.506603
     54          6           0        0.310351    1.204543    1.179692
     55          1           0        1.254099    0.850034    1.605921
     56          1           0        0.399166    2.266102    0.909969
     57          1           0       -0.446359    1.134857    1.968816
     58          7           0        3.061432    0.876054   -0.467130
     59          1           0        2.661468    1.602431    0.112749
     60          6           0        4.320243    0.301174   -0.003126
     61          1           0        4.821465   -0.143747   -0.864458
     62          6           0        4.032478   -0.792998    1.049107
     63          6           0        5.182471    1.432764    0.591855
     64          1           0        5.303470    2.202715   -0.180289
     65          1           0        4.627184    1.887381    1.423068
     66          8           0        3.046371   -0.732359    1.785189
     67          6           0        6.564809    1.016320    1.140352
     68          1           0        6.441025    0.305990    1.965061
     69          1           0        7.048442    1.909472    1.552082
     70          6           0        7.447760    0.357106    0.091774
     71          7           0        8.507140    1.079069   -0.352800
     72          1           0        8.753899    1.977357    0.033327
     73          1           0        9.126333    0.657019   -1.031849
     74          8           0        7.211360   -0.769100   -0.358413
     75          7           0        4.959017   -1.770526    1.113440
     76          1           0        5.804418   -1.655387    0.550550
     77          6           0        4.967759   -2.701845    2.223637
     78          1           0        4.013265   -3.233709    2.265031
     79          6           0        5.150130   -1.992420    3.565249
     80          6           0        6.131644   -3.715627    2.031433
     81          1           0        6.996310   -3.168952    1.632007
     82          1           0        5.821085   -4.417724    1.250157
     83          8           0        4.580258   -2.678778    4.550750
     84          6           0        6.567281   -4.482206    3.302312
     85          1           0        5.689374   -4.685624    3.922294
     86          1           0        6.960330   -5.458621    2.997832
     87          6           0        7.659842   -3.748609    4.132072
     88          1           0        7.699187   -2.688516    3.855957
     89          1           0        8.638416   -4.158807    3.855882
     90          6           0        7.524760   -3.837542    5.664195
     91          1           0        7.100088   -4.805798    5.953674
     92          1           0        8.523686   -3.776810    6.120374
     93          7           0        6.637048   -2.778773    6.210098
     94          1           0        7.042373   -1.861695    6.019576
     95          1           0        6.563924   -2.867220    7.222624
     96          1           0        5.192597   -2.605104    5.367410
     97          8           0        5.861001   -1.010574    3.723692
 ---------------------------------------------------------------------

 SCF Done:  E(RB3LYP) =  -2122.49215248     A.U. after    2 cycles

 Alpha  occ. eigenvalues --  -19.26170 -19.20223 -19.19916 -19.18661 -19.18099
 Alpha  occ. eigenvalues --  -19.17205 -19.16152 -14.59621 -14.49031 -14.43925
 Alpha  occ. eigenvalues --  -14.42522 -14.42431 -14.39569 -14.39448 -10.42732
 Alpha  occ. eigenvalues --  -10.39796 -10.37253 -10.35660 -10.35455 -10.34888
 Alpha  occ. eigenvalues --  -10.33990 -10.33242 -10.32865 -10.30203 -10.29220
 Alpha  occ. eigenvalues --  -10.29129 -10.28741 -10.28714 -10.28521 -10.28456
 Alpha  occ. eigenvalues --  -10.27798 -10.27608 -10.27501 -10.27422 -10.27403
 Alpha  occ. eigenvalues --  -10.27268 -10.27022 -10.26245 -10.25509 -10.25191
 Alpha  occ. eigenvalues --  -10.24040 -10.23366 -10.23081 -10.22813 -10.22174
 Alpha  occ. eigenvalues --   -1.18723  -1.13500  -1.12486  -1.11874  -1.10572
 Alpha  occ. eigenvalues --   -1.09703  -1.07781  -1.05759  -1.03804  -1.00524
 Alpha  occ. eigenvalues --   -0.99010  -0.97124  -0.96594  -0.95123  -0.94753
 Alpha  occ. eigenvalues --   -0.94133  -0.89360  -0.86993  -0.86155  -0.85610
 Alpha  occ. eigenvalues --   -0.84521  -0.83852  -0.82972  -0.82328  -0.80176
 Alpha  occ. eigenvalues --   -0.79025  -0.76963  -0.75694  -0.74534  -0.74027
 Alpha  occ. eigenvalues --   -0.73658  -0.73641  -0.73134  -0.72130  -0.69770
 Alpha  occ. eigenvalues --   -0.69109  -0.67761  -0.67712  -0.67626  -0.67220
 Alpha  occ. eigenvalues --   -0.66413  -0.64931  -0.64627  -0.64317  -0.62530
 Alpha  occ. eigenvalues --   -0.62014  -0.61696  -0.61464  -0.61089  -0.60449
 Alpha  occ. eigenvalues --   -0.59954  -0.59533  -0.58441  -0.57533  -0.55979
 Alpha  occ. eigenvalues --   -0.55928  -0.55376  -0.54972  -0.54475  -0.54261
 Alpha  occ. eigenvalues --   -0.54064  -0.54008  -0.53443  -0.53277  -0.52806
 Alpha  occ. eigenvalues --   -0.52447  -0.52195  -0.51812  -0.51435  -0.51393
 Alpha  occ. eigenvalues --   -0.50936  -0.50782  -0.50451  -0.49953  -0.49831
 Alpha  occ. eigenvalues --   -0.49750  -0.48672  -0.48495  -0.48325  -0.48111
 Alpha  occ. eigenvalues --   -0.47709  -0.47387  -0.47089  -0.46657  -0.46394
 Alpha  occ. eigenvalues --   -0.45971  -0.45861  -0.45744  -0.45106  -0.45052
 Alpha  occ. eigenvalues --   -0.44745  -0.44657  -0.44211  -0.43961  -0.43827
 Alpha  occ. eigenvalues --   -0.43362  -0.43045  -0.42514  -0.42426  -0.42395
 Alpha  occ. eigenvalues --   -0.42291  -0.41673  -0.41168  -0.40763  -0.40637
 Alpha  occ. eigenvalues --   -0.39938  -0.39709  -0.39143  -0.38975  -0.38742
 Alpha  occ. eigenvalues --   -0.38189  -0.38144  -0.37547  -0.34223  -0.33798
 Alpha  occ. eigenvalues --   -0.33719  -0.33690  -0.33470  -0.32945  -0.32636
 Alpha  occ. eigenvalues --   -0.32222  -0.31877  -0.31654  -0.31271  -0.29700
 Alpha  occ. eigenvalues --   -0.29059
 Alpha virt. eigenvalues --   -0.11896  -0.10613  -0.09347  -0.09146  -0.06558
 Alpha virt. eigenvalues --   -0.06006  -0.04761  -0.04117  -0.04019  -0.03150
 Alpha virt. eigenvalues --   -0.02113  -0.01105  -0.00677   0.00389   0.00609

 Mulliken charges:
               1
     1  N   -0.757145
     2  H    0.415217
     3  H    0.413175
     4  H    0.435410
     5  C   -0.126841
     6  H    0.207632
     7  C    0.675785
     8  C   -0.104906
     9  H    0.147153
    10  O   -0.543125
    11  C   -0.292153
    12  H    0.192465
    13  H    0.173158
    14  C   -0.503416
    15  H    0.240307
    16  H    0.185022
    17  H    0.124245
    18  C   -0.482387
    19  H    0.183204
    20  H    0.137984
    21  H    0.160148
    22  N   -0.604038
    23  H    0.367230
    24  C   -0.026255
    25  H    0.178086
    26  C    0.648158
    27  C   -0.406513
    28  H    0.188608
    29  H    0.186663
    30  O   -0.552663
    31  C    0.155572
    32  C   -0.224313
    33  H    0.142417
    34  C   -0.176875
    35  H    0.141914
    36  C   -0.128494
    37  H    0.148527
    38  C   -0.127240
    39  H    0.153853
    40  C   -0.129405
    41  H    0.152893
    42  N   -0.615343
    43  H    0.362041
    44  C   -0.052493
    45  H    0.169636
    46  C    0.638390
    47  C   -0.076069
    48  H    0.151499
    49  O   -0.542943
    50  C   -0.475308
    51  H    0.196014
    52  H    0.134527
    53  H    0.145013
    54  C   -0.497813
    55  H    0.200742
    56  H    0.129948
    57  H    0.151569
    58  N   -0.604246
    59  H    0.339643
    60  C   -0.063881
    61  H    0.199522
    62  C    0.632001
    63  C   -0.294576
    64  H    0.158215
    65  H    0.163144
    66  O   -0.546569
    67  C   -0.402953
    68  H    0.239163
    69  H    0.142916
    70  C    0.612991
    71  N   -0.735264
    72  H    0.348634
    73  H    0.352550
    74  O   -0.529977
    75  N   -0.633676
    76  H    0.395740
    77  C   -0.001316
    78  H    0.177247
    79  C    0.605737
    80  C   -0.313147
    81  H    0.158066
    82  H    0.160436
    83  O   -0.597888
    84  C   -0.286129
    85  H    0.170900
    86  H    0.144001
    87  C   -0.289158
    88  H    0.163700
    89  H    0.147446
    90  C   -0.139817
    91  H    0.159609
    92  H    0.142155
    93  N   -0.774126
    94  H    0.338461
    95  H    0.327416
    96  H    0.451864
    97  O   -0.507304
 Sum of Mulliken charges =   1.00000

 Dipole moment (field-independent basis, Debye):
    X=             -9.0326    Y=             -5.1847    Z=             -9.9118  Tot=             14.3775
 Quadrupole moment (field-independent basis, Debye-Ang):
   XX=            -42.6114   YY=           -229.1632   ZZ=           -166.5532
   XY=             37.0476   XZ=             94.5294   YZ=              4.2512

 Normal termination of Gaussian 16 at Sun Jun 19 06:03:20 2022.
