 Gaussian 16, Revision C.01,
 Gaussian 16:  ES64L-G16RevC.01  3-Jul-2019

 ----------------------------------------------------------------------
 # B3LYP/6-31G* empiricaldispersion=gd3 guess=read geom=check nosymm in
 tegral(ultrafinegrid)
 ----------------------------------------------------------------------

 ------------------------------------------------------
 Candidate Structure: Conf:224 Charge calc in gas phase
 ------------------------------------------------------
 Structure from the checkpoint file:  "conf-224.chk"
 Charge =  1 Multiplicity = 1

                          Input orientation:
 ---------------------------------------------------------------------
 Center     Atomic      Atomic             Coordinates (Angstroms)
 Number     Number       Type             X           Y           Z
 ---------------------------------------------------------------------
      1          7           0       -2.726932    0.741295   -5.190068
      2          1           0       -2.300151    0.063825   -5.842932
      3          1           0       -2.817921    1.657134   -5.636779
      4          1           0       -3.650962    0.352298   -4.915054
      5          6           0       -1.943190    0.798074   -3.888433
      6          1           0       -0.878539    0.785986   -4.134623
      7          6           0       -2.386818   -0.512325   -3.220727
      8          6           0       -2.332790    2.047472   -3.069374
      9          1           0       -3.432433    2.055550   -3.004105
     10          8           0       -3.567251   -0.857706   -3.348498
     11          6           0       -1.851838    3.339997   -3.764853
     12          1           0       -2.167848    3.348118   -4.823829
     13          1           0       -0.755219    3.358819   -3.755567
     14          6           0       -1.767184    1.934624   -1.642595
     15          1           0       -0.675486    1.978649   -1.665198
     16          1           0       -2.101428    2.785030   -1.046011
     17          1           0       -2.079577    1.020528   -1.130687
     18          6           0       -2.361483    4.622787   -3.099081
     19          1           0       -2.135337    5.490340   -3.727371
     20          1           0       -3.447439    4.590584   -2.942472
     21          1           0       -1.851948    4.774933   -2.145595
     22          7           0       -1.423806   -1.185590   -2.583521
     23          1           0       -0.461601   -0.864115   -2.733960
     24          6           0       -1.629192   -2.552571   -2.127170
     25          1           0       -2.705196   -2.735918   -2.198317
     26          6           0       -1.303228   -2.607089   -0.617615
     27          6           0       -0.889128   -3.514052   -3.096286
     28          1           0       -1.152768   -4.548885   -2.847888
     29          1           0        0.195471   -3.402807   -2.970363
     30          8           0       -1.834054   -1.792619    0.130681
     31          6           0       -1.270019   -3.179563   -4.526776
     32          6           0       -2.497948   -3.600638   -5.054339
     33          1           0       -3.134676   -4.259403   -4.468802
     34          6           0       -0.469776   -2.317503   -5.289071
     35          1           0        0.471436   -1.955717   -4.886482
     36          6           0       -2.926872   -3.165204   -6.308309
     37          1           0       -3.881443   -3.504749   -6.699910
     38          6           0       -0.894881   -1.876868   -6.547580
     39          1           0       -0.247164   -1.230020   -7.135117
     40          6           0       -2.128842   -2.296713   -7.060365
     41          1           0       -2.451348   -1.975310   -8.047612
     42          7           0       -0.447350   -3.572325   -0.185127
     43          1           0        0.089654   -4.091141   -0.865942
     44          6           0        0.076502   -3.578267    1.193886
     45          1           0       -0.737586   -3.210377    1.824266
     46          6           0        1.226564   -2.545878    1.193692
     47          6           0        0.471191   -4.995665    1.655763
     48          1           0        1.040637   -4.850940    2.583579
     49          8           0        2.380187   -2.839021    0.890032
     50          6           0       -0.787318   -5.816046    1.974529
     51          1           0       -1.414747   -5.925800    1.081649
     52          1           0       -0.517902   -6.820033    2.319868
     53          1           0       -1.394181   -5.341295    2.754355
     54          6           0        1.378517   -5.747696    0.667016
     55          1           0        0.831972   -6.026271   -0.245179
     56          1           0        2.249895   -5.148729    0.396447
     57          1           0        1.722880   -6.684368    1.117984
     58          7           0        0.819492   -1.261446    1.407190
     59          1           0       -0.179512   -1.079432    1.483656
     60          6           0        1.546133   -0.169708    0.769035
     61          1           0        2.599372   -0.205502    1.061802
     62          6           0        0.862729    1.147027    1.177278
     63          6           0        1.390900   -0.320228   -0.773802
     64          1           0        1.443598   -1.386182   -1.006123
     65          1           0        0.371265    0.001181   -1.001040
     66          8           0       -0.295529    1.148867    1.594367
     67          6           0        2.400213    0.419766   -1.667449
     68          1           0        3.247929   -0.239653   -1.890572
     69          1           0        2.806159    1.318476   -1.205439
     70          6           0        1.755217    0.808855   -2.987814
     71          7           0        2.036778    2.036342   -3.440740
     72          1           0        2.383971    2.762708   -2.781220
     73          1           0        1.569834    2.340426   -4.285531
     74          8           0        1.004323    0.011347   -3.597287
     75          7           0        1.561450    2.289424    0.931929
     76          1           0        2.462124    2.223446    0.465114
     77          6           0        0.862863    3.514927    0.521286
     78          1           0       -0.205071    3.291422    0.495981
     79          6           0        1.324455    3.880849   -0.927628
     80          6           0        1.108297    4.666472    1.500086
     81          1           0        0.605577    5.560518    1.109704
     82          1           0        2.184572    4.884084    1.534244
     83          8           0        0.479275    4.422519   -1.661460
     84          6           0        0.591896    4.323264    2.900969
     85          1           0       -0.486600    4.123703    2.855643
     86          1           0        1.064791    3.390810    3.233004
     87          6           0        0.872451    5.437701    3.921151
     88          1           0        0.384958    6.369276    3.599790
     89          1           0        1.953759    5.631656    3.964924
     90          6           0        0.364715    5.035813    5.296338
     91          1           0       -0.717304    4.884232    5.315802
     92          1           0        0.856978    4.137488    5.676811
     93          7           0        0.653302    6.141092    6.324548
     94          1           0        0.321852    5.900419    7.266648
     95          1           0        0.201616    7.020861    6.046367
     96          1           0        1.662255    6.325744    6.382830
     97          8           0        2.520854    3.546786   -1.204829
 ---------------------------------------------------------------------

 SCF Done:  E(RB3LYP) =  -2122.45230002     A.U. after    2 cycles

 Alpha  occ. eigenvalues --  -19.20793 -19.18275 -19.18230 -19.17154 -19.16831
 Alpha  occ. eigenvalues --  -19.12755 -19.12088 -14.64272 -14.54886 -14.43780
 Alpha  occ. eigenvalues --  -14.43394 -14.40429 -14.40177 -14.40160 -10.40884
 Alpha  occ. eigenvalues --  -10.37527 -10.35778 -10.35094 -10.34115 -10.33672
 Alpha  occ. eigenvalues --  -10.33497 -10.32967 -10.31073 -10.30448 -10.28930
 Alpha  occ. eigenvalues --  -10.28911 -10.28331 -10.28004 -10.27648 -10.27438
 Alpha  occ. eigenvalues --  -10.26998 -10.26932 -10.26614 -10.26501 -10.26493
 Alpha  occ. eigenvalues --  -10.26232 -10.25655 -10.25539 -10.24990 -10.24920
 Alpha  occ. eigenvalues --  -10.24503 -10.23313 -10.22578 -10.22446 -10.22264
 Alpha  occ. eigenvalues --   -1.18088  -1.13367  -1.10504  -1.09173  -1.09065
 Alpha  occ. eigenvalues --   -1.08677  -1.08336  -1.05712  -1.01278  -0.99362
 Alpha  occ. eigenvalues --   -0.97755  -0.97192  -0.96490  -0.95385  -0.94143
 Alpha  occ. eigenvalues --   -0.93239  -0.89602  -0.87147  -0.86435  -0.85602
 Alpha  occ. eigenvalues --   -0.84693  -0.82620  -0.81957  -0.80613  -0.80371
 Alpha  occ. eigenvalues --   -0.78689  -0.77116  -0.76786  -0.76719  -0.75376
 Alpha  occ. eigenvalues --   -0.73692  -0.73391  -0.72211  -0.71464  -0.69703
 Alpha  occ. eigenvalues --   -0.68758  -0.68071  -0.67741  -0.67317  -0.66661
 Alpha  occ. eigenvalues --   -0.66045  -0.65767  -0.64930  -0.63874  -0.63473
 Alpha  occ. eigenvalues --   -0.63149  -0.62779  -0.62473  -0.61659  -0.60884
 Alpha  occ. eigenvalues --   -0.59549  -0.58657  -0.58218  -0.57601  -0.56467
 Alpha  occ. eigenvalues --   -0.56100  -0.55516  -0.55206  -0.54975  -0.54262
 Alpha  occ. eigenvalues --   -0.53735  -0.53605  -0.53111  -0.52869  -0.52604
 Alpha  occ. eigenvalues --   -0.51829  -0.51104  -0.50949  -0.50761  -0.50390
 Alpha  occ. eigenvalues --   -0.50034  -0.49459  -0.49336  -0.49058  -0.48755
 Alpha  occ. eigenvalues --   -0.48498  -0.47791  -0.47714  -0.47527  -0.47355
 Alpha  occ. eigenvalues --   -0.46963  -0.46547  -0.46299  -0.45977  -0.45767
 Alpha  occ. eigenvalues --   -0.45411  -0.45208  -0.44445  -0.44272  -0.43755
 Alpha  occ. eigenvalues --   -0.43678  -0.43334  -0.43254  -0.43072  -0.42656
 Alpha  occ. eigenvalues --   -0.42521  -0.42290  -0.42136  -0.41793  -0.41308
 Alpha  occ. eigenvalues --   -0.41246  -0.41112  -0.40488  -0.40331  -0.39813
 Alpha  occ. eigenvalues --   -0.39436  -0.39160  -0.39068  -0.38732  -0.38614
 Alpha  occ. eigenvalues --   -0.38595  -0.35190  -0.34588  -0.33748  -0.33167
 Alpha  occ. eigenvalues --   -0.33018  -0.32412  -0.32204  -0.31936  -0.31456
 Alpha  occ. eigenvalues --   -0.31199  -0.30456  -0.29045  -0.28141  -0.27410
 Alpha  occ. eigenvalues --   -0.25653
 Alpha virt. eigenvalues --   -0.14774  -0.08388  -0.08205  -0.08074  -0.08001
 Alpha virt. eigenvalues --   -0.07229  -0.05744  -0.05413  -0.04896  -0.04256
 Alpha virt. eigenvalues --   -0.03630  -0.02976  -0.01907  -0.00421   0.00186

 Mulliken charges:
               1
     1  N   -0.759143
     2  H    0.408093
     3  H    0.398155
     4  H    0.412685
     5  C   -0.147467
     6  H    0.229828
     7  C    0.643103
     8  C   -0.092854
     9  H    0.139339
    10  O   -0.554586
    11  C   -0.269630
    12  H    0.084663
    13  H    0.180789
    14  C   -0.484824
    15  H    0.173603
    16  H    0.173714
    17  H    0.194266
    18  C   -0.453612
    19  H    0.151867
    20  H    0.127766
    21  H    0.203896
    22  N   -0.610122
    23  H    0.417469
    24  C   -0.074301
    25  H    0.216388
    26  C    0.630261
    27  C   -0.402863
    28  H    0.171474
    29  H    0.166929
    30  O   -0.518530
    31  C    0.157470
    32  C   -0.152562
    33  H    0.145105
    34  C   -0.184627
    35  H    0.180053
    36  C   -0.127118
    37  H    0.152028
    38  C   -0.194765
    39  H    0.149535
    40  C   -0.162320
    41  H    0.146837
    42  N   -0.624174
    43  H    0.354802
    44  C   -0.059745
    45  H    0.175071
    46  C    0.599190
    47  C   -0.081170
    48  H    0.149049
    49  O   -0.525514
    50  C   -0.449680
    51  H    0.145810
    52  H    0.154710
    53  H    0.147380
    54  C   -0.481477
    55  H    0.123361
    56  H    0.195170
    57  H    0.156797
    58  N   -0.599599
    59  H    0.375593
    60  C   -0.058202
    61  H    0.173859
    62  C    0.594592
    63  C   -0.306282
    64  H    0.162358
    65  H    0.168183
    66  O   -0.537402
    67  C   -0.377838
    68  H    0.185648
    69  H    0.186483
    70  C    0.589607
    71  N   -0.737821
    72  H    0.412260
    73  H    0.325338
    74  O   -0.583542
    75  N   -0.605355
    76  H    0.349165
    77  C   -0.067757
    78  H    0.170431
    79  C    0.586686
    80  C   -0.268166
    81  H    0.156258
    82  H    0.147196
    83  O   -0.571543
    84  C   -0.267426
    85  H    0.163786
    86  H    0.171753
    87  C   -0.291592
    88  H    0.164835
    89  H    0.165154
    90  C   -0.206527
    91  H    0.230022
    92  H    0.230602
    93  N   -0.732017
    94  H    0.428800
    95  H    0.425970
    96  H    0.426277
    97  O   -0.625361
 Sum of Mulliken charges =   1.00000

 Dipole moment (field-independent basis, Debye):
    X=             -4.1424    Y=             18.5428    Z=             12.9532  Tot=             22.9952
 Quadrupole moment (field-independent basis, Debye-Ang):
   XX=           -264.1376   YY=           -114.3705   ZZ=            -20.9989
   XY=              8.8646   XZ=             56.7169   YZ=            161.0276

 Normal termination of Gaussian 16 at Sun Jun 19 06:03:38 2022.
