 Gaussian 16, Revision C.01,
 Gaussian 16:  ES64L-G16RevC.01  3-Jul-2019

 ----------------------------------------------------------------------
 # B3LYP/6-31G* empiricaldispersion=gd3 guess=read geom=check nosymm in
 tegral(ultrafinegrid)
 ----------------------------------------------------------------------

 ------------------------------------------------------
 Candidate Structure: Conf:879 Charge calc in gas phase
 ------------------------------------------------------
 Structure from the checkpoint file:  "conf-879.chk"
 Charge =  1 Multiplicity = 1

                          Input orientation:
 ---------------------------------------------------------------------
 Center     Atomic      Atomic             Coordinates (Angstroms)
 Number     Number       Type             X           Y           Z
 ---------------------------------------------------------------------
      1          7           0       -5.404308   -3.138451   -5.493072
      2          1           0       -4.787556   -2.716733   -6.211452
      3          1           0       -6.350820   -3.257882   -5.863747
      4          1           0       -4.968283   -4.051840   -5.246593
      5          6           0       -5.353554   -2.333274   -4.210223
      6          1           0       -5.304269   -1.283848   -4.503451
      7          6           0       -4.011964   -2.801462   -3.606174
      8          6           0       -6.590019   -2.604244   -3.325647
      9          1           0       -7.463678   -2.284381   -3.915482
     10          8           0       -3.627386   -3.945598   -3.869620
     11          6           0       -6.549716   -1.729741   -2.052537
     12          1           0       -5.689185   -2.023765   -1.437775
     13          1           0       -7.439036   -1.984457   -1.465171
     14          6           0       -6.745152   -4.092005   -2.971570
     15          1           0       -5.889863   -4.457302   -2.395117
     16          1           0       -7.647414   -4.233741   -2.370097
     17          1           0       -6.849398   -4.734002   -3.855047
     18          6           0       -6.536667   -0.215554   -2.296839
     19          1           0       -6.619841    0.322641   -1.348510
     20          1           0       -5.614901    0.138829   -2.775999
     21          1           0       -7.376863    0.092738   -2.930156
     22          7           0       -3.329194   -1.908176   -2.884418
     23          1           0       -3.715005   -1.003377   -2.628493
     24          6           0       -1.914746   -2.065445   -2.584811
     25          1           0       -1.711779   -3.128224   -2.434185
     26          6           0       -1.647145   -1.226707   -1.325628
     27          6           0       -1.037706   -1.502912   -3.759069
     28          1           0       -0.014191   -1.869896   -3.625466
     29          1           0       -1.005301   -0.412212   -3.658569
     30          8           0       -2.392116   -0.284841   -1.057831
     31          6           0       -1.574062   -1.866471   -5.126739
     32          6           0       -2.446021   -0.992890   -5.791284
     33          1           0       -2.662043   -0.019585   -5.356684
     34          6           0       -1.283320   -3.101672   -5.721973
     35          1           0       -0.614607   -3.793903   -5.217476
     36          6           0       -3.022173   -1.344449   -7.018850
     37          1           0       -3.657638   -0.633333   -7.541542
     38          6           0       -1.854601   -3.462682   -6.941552
     39          1           0       -1.609790   -4.421297   -7.389302
     40          6           0       -2.729380   -2.587109   -7.596207
     41          1           0       -3.146678   -2.853315   -8.563854
     42          7           0       -0.541364   -1.551843   -0.625857
     43          1           0        0.052614   -2.319628   -0.916625
     44          6           0       -0.024809   -0.728697    0.468343
     45          1           0       -0.533737    0.237383    0.399757
     46          6           0        1.479303   -0.594326    0.213030
     47          6           0       -0.292366   -1.344366    1.864455
     48          1           0        0.264076   -2.293587    1.898575
     49          8           0        2.146272   -1.624910   -0.009880
     50          6           0        0.238088   -0.414011    2.966597
     51          1           0       -0.296968    0.544472    2.948795
     52          1           0        0.067235   -0.859647    3.952189
     53          1           0        1.308094   -0.206558    2.865115
     54          6           0       -1.784864   -1.639264    2.057090
     55          1           0       -2.376874   -0.720970    1.972226
     56          1           0       -2.158520   -2.350759    1.313868
     57          1           0       -1.959827   -2.065796    3.050310
     58          7           0        1.982797    0.643999    0.199119
     59          1           0        1.387487    1.413671    0.478308
     60          6           0        3.402030    0.926170    0.026812
     61          1           0        3.760699    0.240412   -0.749635
     62          6           0        4.177425    0.590307    1.322844
     63          6           0        3.617559    2.381047   -0.433078
     64          1           0        4.635785    2.472870   -0.824668
     65          1           0        2.945654    2.594529   -1.272191
     66          8           0        3.605305    0.018423    2.283604
     67          6           0        3.425387    3.432960    0.673127
     68          1           0        4.070981    3.204087    1.524933
     69          1           0        2.384259    3.468515    1.014041
     70          6           0        3.758518    4.816683    0.100902
     71          7           0        5.035229    5.210871    0.311679
     72          1           0        5.741320    4.593764    0.732722
     73          1           0        5.329122    6.077210   -0.118391
     74          8           0        2.916893    5.452071   -0.528827
     75          7           0        5.461286    0.913117    1.296311
     76          1           0        5.786685    1.655738    0.642880
     77          6           0        6.300899    1.089610    2.488882
     78          1           0        5.644231    1.174720    3.361921
     79          6           0        7.018329    2.485679    2.276452
     80          6           0        7.296833   -0.047651    2.724339
     81          1           0        7.901711    0.261154    3.581787
     82          1           0        7.983674   -0.124377    1.870496
     83          8           0        7.787297    2.837699    3.166930
     84          6           0        6.628471   -1.409647    2.992365
     85          1           0        7.289112   -2.046752    3.594322
     86          1           0        5.732821   -1.237266    3.605856
     87          6           0        6.258531   -2.185443    1.708534
     88          1           0        7.146883   -2.697409    1.321049
     89          1           0        5.938749   -1.499311    0.916629
     90          6           0        5.173346   -3.238709    1.933142
     91          1           0        5.112414   -3.962919    1.116717
     92          1           0        5.343012   -3.783004    2.866397
     93          7           0        3.812764   -2.584789    2.042010
     94          1           0        3.152695   -3.140874    2.589669
     95          1           0        3.363119   -2.395872    1.122629
     96          1           0        3.857749   -1.606602    2.445961
     97          8           0        6.683697    3.064337    1.182257
 ---------------------------------------------------------------------

 SCF Done:  E(RB3LYP) =  -2122.45903660     A.U. after    2 cycles

 Alpha  occ. eigenvalues --  -19.26898 -19.23517 -19.23233 -19.20310 -19.12788
 Alpha  occ. eigenvalues --  -19.11306 -19.09558 -14.60257 -14.52830 -14.50278
 Alpha  occ. eigenvalues --  -14.47980 -14.47105 -14.41258 -14.36169 -10.44020
 Alpha  occ. eigenvalues --  -10.40861 -10.40591 -10.39996 -10.36629 -10.36429
 Alpha  occ. eigenvalues --  -10.34582 -10.34363 -10.33757 -10.32182 -10.32067
 Alpha  occ. eigenvalues --  -10.32054 -10.31830 -10.31627 -10.31557 -10.31183
 Alpha  occ. eigenvalues --  -10.31101 -10.31093 -10.30822 -10.30746 -10.29455
 Alpha  occ. eigenvalues --  -10.29230 -10.28576 -10.27591 -10.26358 -10.26204
 Alpha  occ. eigenvalues --  -10.25694 -10.25450 -10.25347 -10.23765 -10.22981
 Alpha  occ. eigenvalues --   -1.19590  -1.15770  -1.14616  -1.14266  -1.11289
 Alpha  occ. eigenvalues --   -1.07932  -1.07117  -1.04505  -1.04265  -1.03910
 Alpha  occ. eigenvalues --   -1.03264  -0.98650  -0.98069  -0.95977  -0.95091
 Alpha  occ. eigenvalues --   -0.92062  -0.91394  -0.90240  -0.88332  -0.88015
 Alpha  occ. eigenvalues --   -0.87019  -0.86759  -0.86111  -0.84648  -0.82594
 Alpha  occ. eigenvalues --   -0.81714  -0.79107  -0.78286  -0.77075  -0.76670
 Alpha  occ. eigenvalues --   -0.76086  -0.74837  -0.73819  -0.72830  -0.72681
 Alpha  occ. eigenvalues --   -0.71809  -0.70825  -0.70704  -0.69851  -0.69475
 Alpha  occ. eigenvalues --   -0.69259  -0.68128  -0.67411  -0.66404  -0.66077
 Alpha  occ. eigenvalues --   -0.64646  -0.63692  -0.63146  -0.62775  -0.62594
 Alpha  occ. eigenvalues --   -0.61294  -0.60945  -0.60410  -0.60209  -0.59491
 Alpha  occ. eigenvalues --   -0.58854  -0.58156  -0.58086  -0.57236  -0.56843
 Alpha  occ. eigenvalues --   -0.56605  -0.55896  -0.55654  -0.55400  -0.55036
 Alpha  occ. eigenvalues --   -0.54581  -0.54226  -0.54155  -0.53731  -0.53408
 Alpha  occ. eigenvalues --   -0.53090  -0.52667  -0.52433  -0.52081  -0.51824
 Alpha  occ. eigenvalues --   -0.51621  -0.50873  -0.50151  -0.49972  -0.49867
 Alpha  occ. eigenvalues --   -0.49495  -0.49168  -0.49068  -0.48878  -0.48826
 Alpha  occ. eigenvalues --   -0.48108  -0.47724  -0.47616  -0.47388  -0.46690
 Alpha  occ. eigenvalues --   -0.46582  -0.46219  -0.46080  -0.46046  -0.45643
 Alpha  occ. eigenvalues --   -0.45579  -0.45120  -0.44645  -0.44171  -0.43492
 Alpha  occ. eigenvalues --   -0.43038  -0.42639  -0.42412  -0.41481  -0.41394
 Alpha  occ. eigenvalues --   -0.41272  -0.40946  -0.40261  -0.39964  -0.39602
 Alpha  occ. eigenvalues --   -0.39047  -0.38819  -0.38433  -0.37753  -0.37638
 Alpha  occ. eigenvalues --   -0.37335  -0.37016  -0.36574  -0.35937  -0.34093
 Alpha  occ. eigenvalues --   -0.32731  -0.27945  -0.27043  -0.26192  -0.25994
 Alpha  occ. eigenvalues --   -0.23507
 Alpha virt. eigenvalues --   -0.14186  -0.13116  -0.12677  -0.10236  -0.10001
 Alpha virt. eigenvalues --   -0.08257  -0.06750  -0.06049  -0.05663  -0.04900
 Alpha virt. eigenvalues --   -0.03353  -0.02777  -0.02210  -0.01677  -0.01067

 Mulliken charges:
               1
     1  N   -0.760781
     2  H    0.411439
     3  H    0.406617
     4  H    0.426774
     5  C   -0.114777
     6  H    0.203340
     7  C    0.670483
     8  C   -0.104655
     9  H    0.152747
    10  O   -0.542932
    11  C   -0.279418
    12  H    0.163576
    13  H    0.177256
    14  C   -0.474132
    15  H    0.188458
    16  H    0.191401
    17  H    0.136254
    18  C   -0.469523
    19  H    0.193247
    20  H    0.136624
    21  H    0.164855
    22  N   -0.613983
    23  H    0.376261
    24  C   -0.064850
    25  H    0.194669
    26  C    0.637536
    27  C   -0.370129
    28  H    0.177701
    29  H    0.184432
    30  O   -0.532795
    31  C    0.166481
    32  C   -0.190947
    33  H    0.151179
    34  C   -0.143521
    35  H    0.152761
    36  C   -0.193622
    37  H    0.163170
    38  C   -0.127266
    39  H    0.166764
    40  C   -0.170130
    41  H    0.164821
    42  N   -0.613749
    43  H    0.347400
    44  C   -0.044948
    45  H    0.183410
    46  C    0.644345
    47  C   -0.074098
    48  H    0.112072
    49  O   -0.611627
    50  C   -0.499691
    51  H    0.153857
    52  H    0.160432
    53  H    0.195287
    54  C   -0.446714
    55  H    0.165791
    56  H    0.138366
    57  H    0.160501
    58  N   -0.571030
    59  H    0.360651
    60  C   -0.060493
    61  H    0.185876
    62  C    0.594892
    63  C   -0.324676
    64  H    0.192026
    65  H    0.170230
    66  O   -0.603517
    67  C   -0.358986
    68  H    0.177413
    69  H    0.139918
    70  C    0.566581
    71  N   -0.765199
    72  H    0.407950
    73  H    0.331672
    74  O   -0.529722
    75  N   -0.575220
    76  H    0.379981
    77  C   -0.093766
    78  H    0.164901
    79  C    0.605038
    80  C   -0.263279
    81  H    0.187561
    82  H    0.143223
    83  O   -0.534200
    84  C   -0.282005
    85  H    0.151239
    86  H    0.136511
    87  C   -0.290530
    88  H    0.175926
    89  H    0.171286
    90  C   -0.179149
    91  H    0.187780
    92  H    0.194081
    93  N   -0.801278
    94  H    0.383537
    95  H    0.432942
    96  H    0.452559
    97  O   -0.636746
 Sum of Mulliken charges =   1.00000

 Dipole moment (field-independent basis, Debye):
    X=            -23.9508    Y=            -26.0506    Z=            -19.9327  Tot=             40.6151
 Quadrupole moment (field-independent basis, Debye-Ang):
   XX=           -188.8567   YY=           -253.2575   ZZ=           -146.4700
   XY=            -21.3133   XZ=             88.9184   YZ=             29.3174

 Normal termination of Gaussian 16 at Sun Jun 19 06:03:22 2022.
