 Gaussian 16, Revision C.01,
 Gaussian 16:  ES64L-G16RevC.01  3-Jul-2019

 ----------------------------------------------------------------------
 # B3LYP/6-31G* empiricaldispersion=gd3 guess=read geom=check nosymm in
 tegral(ultrafinegrid)
 ----------------------------------------------------------------------

 ------------------------------------------------------
 Candidate Structure: Conf:472 Charge calc in gas phase
 ------------------------------------------------------
 Structure from the checkpoint file:  "conf-472.chk"
 Charge =  1 Multiplicity = 1

                          Input orientation:
 ---------------------------------------------------------------------
 Center     Atomic      Atomic             Coordinates (Angstroms)
 Number     Number       Type             X           Y           Z
 ---------------------------------------------------------------------
      1          7           0       -2.832453    0.853627   -6.004457
      2          1           0       -2.188182    0.520453   -6.727410
      3          1           0       -3.419154    1.591363   -6.403097
      4          1           0       -3.406740    0.039199   -5.668967
      5          6           0       -2.117856    1.294561   -4.732835
      6          1           0       -1.129735    1.683052   -4.985261
      7          6           0       -2.043552   -0.037663   -3.949568
      8          6           0       -2.974351    2.386243   -4.041755
      9          1           0       -4.006212    2.002258   -3.998209
     10          8           0       -2.950768   -0.862484   -4.139198
     11          6           0       -2.946572    3.685947   -4.879436
     12          1           0       -3.168925    3.479195   -5.940394
     13          1           0       -1.921351    4.079278   -4.864327
     14          6           0       -2.496073    2.634919   -2.604230
     15          1           0       -1.463765    2.996747   -2.608700
     16          1           0       -3.126811    3.390659   -2.130203
     17          1           0       -2.542015    1.731501   -1.993449
     18          6           0       -3.933553    4.757343   -4.402775
     19          1           0       -3.924691    5.614863   -5.082564
     20          1           0       -4.957257    4.366166   -4.367977
     21          1           0       -3.679944    5.126793   -3.405394
     22          7           0       -0.981496   -0.203304   -3.162115
     23          1           0       -0.286317    0.560241   -3.144052
     24          6           0       -0.806808   -1.381422   -2.321116
     25          1           0       -1.458377   -2.163691   -2.723168
     26          6           0       -1.280554   -1.052037   -0.877077
     27          6           0        0.677234   -1.838218   -2.411259
     28          1           0        1.305532   -1.103113   -1.895869
     29          1           0        0.950661   -1.794517   -3.471748
     30          8           0       -1.907538   -0.019199   -0.636016
     31          6           0        0.962998   -3.225164   -1.871545
     32          6           0        0.393775   -4.353911   -2.478980
     33          1           0       -0.231588   -4.232820   -3.360922
     34          6           0        1.774047   -3.404766   -0.740292
     35          1           0        2.198720   -2.538766   -0.237880
     36          6           0        0.623763   -5.630390   -1.966604
     37          1           0        0.176360   -6.494256   -2.449479
     38          6           0        2.001851   -4.682949   -0.224206
     39          1           0        2.627690   -4.803772    0.655374
     40          6           0        1.427394   -5.798090   -0.835658
     41          1           0        1.603653   -6.792081   -0.435399
     42          7           0       -0.930410   -1.935922    0.090278
     43          1           0       -0.341788   -2.721335   -0.163285
     44          6           0       -0.947129   -1.594737    1.525553
     45          1           0       -1.863031   -1.027592    1.718845
     46          6           0        0.296941   -0.691029    1.707098
     47          6           0       -0.910257   -2.855740    2.398379
     48          1           0        0.046489   -3.357431    2.199341
     49          8           0        1.406176   -1.161467    2.014310
     50          6           0       -0.949321   -2.462622    3.882171
     51          1           0       -1.884317   -1.943271    4.126025
     52          1           0       -0.891179   -3.354484    4.514304
     53          1           0       -0.114657   -1.805984    4.148028
     54          6           0       -2.060719   -3.810026    2.050379
     55          1           0       -3.032410   -3.326655    2.209577
     56          1           0       -2.019292   -4.144025    1.008862
     57          1           0       -2.020534   -4.698343    2.689174
     58          7           0        0.108023    0.586869    1.317113
     59          1           0       -0.828368    0.820174    1.003072
     60          6           0        1.194312    1.390706    0.770049
     61          1           0        2.012233    0.676944    0.595025
     62          6           0        1.817628    2.363183    1.798769
     63          6           0        0.791381    2.013038   -0.587217
     64          1           0       -0.089512    1.496692   -0.972038
     65          1           0        0.495081    3.059674   -0.451805
     66          8           0        1.745521    2.082284    3.013079
     67          6           0        1.917521    1.924671   -1.638794
     68          1           0        2.102279    0.876056   -1.896034
     69          1           0        2.847464    2.356870   -1.265977
     70          6           0        1.471872    2.640670   -2.898386
     71          7           0        1.985855    3.857189   -3.089134
     72          1           0        2.590151    4.303564   -2.376144
     73          1           0        1.668132    4.397748   -3.883117
     74          8           0        0.628166    2.105678   -3.655232
     75          7           0        2.543612    3.311700    1.211332
     76          1           0        2.403082    3.532439    0.210196
     77          6           0        3.673438    4.182703    1.578506
     78          1           0        3.395915    4.845388    2.402809
     79          6           0        3.947078    5.029574    0.263063
     80          6           0        4.982594    3.402118    1.945226
     81          1           0        5.623368    4.078623    2.517091
     82          1           0        5.528435    3.140691    1.030366
     83          8           0        4.813994    5.891365    0.342005
     84          6           0        4.579672    2.142921    2.703531
     85          1           0        3.923444    2.460043    3.516802
     86          1           0        3.951470    1.610496    1.983256
     87          6           0        5.515621    1.062592    3.251849
     88          1           0        5.900339    1.311010    4.247671
     89          1           0        6.385257    0.886334    2.607218
     90          6           0        4.710196   -0.254436    3.275286
     91          1           0        4.571108   -0.617340    2.253617
     92          1           0        5.183984   -1.046041    3.860844
     93          7           0        3.291083   -0.094465    3.814922
     94          1           0        2.660835   -0.815361    3.419980
     95          1           0        2.806622    0.797841    3.514424
     96          1           0        3.261450   -0.126323    4.836813
     97          8           0        3.244709    4.647261   -0.746481
 ---------------------------------------------------------------------

 SCF Done:  E(RB3LYP) =  -2122.45925070     A.U. after    1 cycles

 Alpha  occ. eigenvalues --  -19.24809 -19.23103 -19.22794 -19.21147 -19.19702
 Alpha  occ. eigenvalues --  -19.13646 -19.11372 -14.58710 -14.53879 -14.47597
 Alpha  occ. eigenvalues --  -14.46571 -14.46020 -14.43082 -14.41786 -10.41563
 Alpha  occ. eigenvalues --  -10.39839 -10.39525 -10.37907 -10.37835 -10.36896
 Alpha  occ. eigenvalues --  -10.35420 -10.34944 -10.33264 -10.32843 -10.31959
 Alpha  occ. eigenvalues --  -10.30679 -10.30600 -10.29870 -10.29825 -10.29040
 Alpha  occ. eigenvalues --  -10.28803 -10.28595 -10.28588 -10.28453 -10.28441
 Alpha  occ. eigenvalues --  -10.28333 -10.28180 -10.28096 -10.27513 -10.27024
 Alpha  occ. eigenvalues --  -10.26598 -10.26157 -10.26088 -10.25703 -10.24974
 Alpha  occ. eigenvalues --   -1.17306  -1.14958  -1.13933  -1.12407  -1.11819
 Alpha  occ. eigenvalues --   -1.10962  -1.08604  -1.05886  -1.04644  -1.03456
 Alpha  occ. eigenvalues --   -1.02504  -0.99525  -0.98503  -0.96810  -0.95431
 Alpha  occ. eigenvalues --   -0.93398  -0.90739  -0.89702  -0.89018  -0.88770
 Alpha  occ. eigenvalues --   -0.86098  -0.84132  -0.83941  -0.83571  -0.82458
 Alpha  occ. eigenvalues --   -0.80926  -0.79493  -0.77571  -0.76922  -0.76489
 Alpha  occ. eigenvalues --   -0.75138  -0.73558  -0.72534  -0.72096  -0.71306
 Alpha  occ. eigenvalues --   -0.70639  -0.70114  -0.69907  -0.69149  -0.68525
 Alpha  occ. eigenvalues --   -0.67758  -0.67522  -0.67278  -0.66975  -0.66116
 Alpha  occ. eigenvalues --   -0.64563  -0.63976  -0.63301  -0.62243  -0.61660
 Alpha  occ. eigenvalues --   -0.61384  -0.60920  -0.60538  -0.59658  -0.59588
 Alpha  occ. eigenvalues --   -0.59096  -0.58403  -0.57335  -0.56916  -0.56883
 Alpha  occ. eigenvalues --   -0.56481  -0.55651  -0.54996  -0.54749  -0.54566
 Alpha  occ. eigenvalues --   -0.54315  -0.54161  -0.53346  -0.52992  -0.52667
 Alpha  occ. eigenvalues --   -0.52345  -0.52298  -0.51855  -0.51402  -0.51263
 Alpha  occ. eigenvalues --   -0.50908  -0.50661  -0.50450  -0.50380  -0.49804
 Alpha  occ. eigenvalues --   -0.49620  -0.49206  -0.48856  -0.48805  -0.48424
 Alpha  occ. eigenvalues --   -0.47980  -0.47345  -0.47198  -0.46813  -0.46699
 Alpha  occ. eigenvalues --   -0.46409  -0.46221  -0.46135  -0.45193  -0.44914
 Alpha  occ. eigenvalues --   -0.44588  -0.44377  -0.44104  -0.43806  -0.43697
 Alpha  occ. eigenvalues --   -0.43553  -0.43283  -0.43198  -0.42953  -0.42551
 Alpha  occ. eigenvalues --   -0.42498  -0.42085  -0.41890  -0.41057  -0.39833
 Alpha  occ. eigenvalues --   -0.39234  -0.39210  -0.38739  -0.37999  -0.37061
 Alpha  occ. eigenvalues --   -0.36245  -0.35373  -0.35091  -0.35019  -0.34362
 Alpha  occ. eigenvalues --   -0.33931  -0.33589  -0.32514  -0.28827  -0.28137
 Alpha  occ. eigenvalues --   -0.25412
 Alpha virt. eigenvalues --   -0.11216  -0.11001  -0.09829  -0.09736  -0.09251
 Alpha virt. eigenvalues --   -0.08044  -0.07650  -0.06181  -0.05333  -0.04888
 Alpha virt. eigenvalues --   -0.02502  -0.01366  -0.00970  -0.00623  -0.00237

 Mulliken charges:
               1
     1  N   -0.754134
     2  H    0.412266
     3  H    0.407250
     4  H    0.423676
     5  C   -0.126415
     6  H    0.238258
     7  C    0.626004
     8  C   -0.092495
     9  H    0.148377
    10  O   -0.550705
    11  C   -0.274423
    12  H    0.104940
    13  H    0.168776
    14  C   -0.516584
    15  H    0.174957
    16  H    0.171088
    17  H    0.214701
    18  C   -0.453150
    19  H    0.171697
    20  H    0.155816
    21  H    0.174283
    22  N   -0.611944
    23  H    0.412384
    24  C   -0.092676
    25  H    0.214865
    26  C    0.632697
    27  C   -0.381509
    28  H    0.168046
    29  H    0.183819
    30  O   -0.524906
    31  C    0.114759
    32  C   -0.169749
    33  H    0.140474
    34  C   -0.213970
    35  H    0.148114
    36  C   -0.126506
    37  H    0.157198
    38  C   -0.121408
    39  H    0.147249
    40  C   -0.126318
    41  H    0.156766
    42  N   -0.614335
    43  H    0.372033
    44  C   -0.041816
    45  H    0.181391
    46  C    0.615989
    47  C   -0.103167
    48  H    0.147327
    49  O   -0.592479
    50  C   -0.457056
    51  H    0.157290
    52  H    0.163892
    53  H    0.139798
    54  C   -0.450610
    55  H    0.154790
    56  H    0.152308
    57  H    0.161786
    58  N   -0.562439
    59  H    0.371768
    60  C   -0.051720
    61  H    0.174191
    62  C    0.597916
    63  C   -0.366728
    64  H    0.180205
    65  H    0.190598
    66  O   -0.576979
    67  C   -0.387299
    68  H    0.156823
    69  H    0.200594
    70  C    0.598710
    71  N   -0.735213
    72  H    0.425594
    73  H    0.337831
    74  O   -0.583698
    75  N   -0.626923
    76  H    0.405084
    77  C   -0.061307
    78  H    0.173585
    79  C    0.593710
    80  C   -0.270040
    81  H    0.176783
    82  H    0.152351
    83  O   -0.529634
    84  C   -0.304366
    85  H    0.171460
    86  H    0.125445
    87  C   -0.266631
    88  H    0.167751
    89  H    0.177771
    90  C   -0.195100
    91  H    0.201209
    92  H    0.192497
    93  N   -0.798523
    94  H    0.430330
    95  H    0.452036
    96  H    0.390084
    97  O   -0.646437
 Sum of Mulliken charges =   1.00000

 Dipole moment (field-independent basis, Debye):
    X=             -4.2640    Y=             -8.6068    Z=             -9.3480  Tot=             13.4031
 Quadrupole moment (field-independent basis, Debye-Ang):
   XX=           -237.3102   YY=           -279.2620   ZZ=           -113.0415
   XY=            -61.0084   XZ=             81.3381   YZ=            -33.5574

 Normal termination of Gaussian 16 at Sun Jun 19 06:03:06 2022.
