 Gaussian 16, Revision C.01,
 Gaussian 16:  ES64L-G16RevC.01  3-Jul-2019

 ----------------------------------------------------------------------
 # B3LYP/6-31G* empiricaldispersion=gd3 guess=read geom=check nosymm in
 tegral(ultrafinegrid)
 ----------------------------------------------------------------------

 ------------------------------------------------------
 Candidate Structure: Conf:950 Charge calc in gas phase
 ------------------------------------------------------
 Structure from the checkpoint file:  "conf-950.chk"
 Charge =  1 Multiplicity = 1

                          Input orientation:
 ---------------------------------------------------------------------
 Center     Atomic      Atomic             Coordinates (Angstroms)
 Number     Number       Type             X           Y           Z
 ---------------------------------------------------------------------
      1          7           0       -3.991086   -2.761241   -5.209363
      2          1           0       -3.782233   -1.998025   -5.884619
      3          1           0       -4.774744   -3.323482   -5.551607
      4          1           0       -3.124126   -3.331009   -5.128903
      5          6           0       -4.215927   -2.199762   -3.821556
      6          1           0       -4.749093   -1.257774   -3.956377
      7          6           0       -2.766326   -1.962198   -3.342072
      8          6           0       -5.023525   -3.177531   -2.938820
      9          1           0       -6.007357   -3.285321   -3.422588
     10          8           0       -1.897948   -2.741260   -3.737333
     11          6           0       -5.261568   -2.573217   -1.537166
     12          1           0       -4.295842   -2.440022   -1.032149
     13          1           0       -5.804634   -3.324858   -0.953338
     14          6           0       -4.366031   -4.563404   -2.835513
     15          1           0       -3.376925   -4.504104   -2.372227
     16          1           0       -4.991657   -5.220923   -2.225301
     17          1           0       -4.246849   -5.054034   -3.809334
     18          6           0       -6.057859   -1.263041   -1.512338
     19          1           0       -6.262332   -0.961970   -0.480780
     20          1           0       -5.529138   -0.425417   -1.985885
     21          1           0       -7.020890   -1.372307   -2.024590
     22          7           0       -2.551209   -0.897540   -2.547570
     23          1           0       -3.343697   -0.296039   -2.354683
     24          6           0       -1.230716   -0.246338   -2.507092
     25          1           0       -0.492762   -1.000063   -2.793704
     26          6           0       -0.907958    0.228019   -1.081916
     27          6           0       -1.165573    0.909630   -3.530253
     28          1           0       -0.116807    1.209056   -3.594114
     29          1           0       -1.726922    1.767481   -3.145592
     30          8           0       -0.573081    1.383823   -0.846903
     31          6           0       -1.695421    0.469552   -4.877783
     32          6           0       -0.928544   -0.360687   -5.712765
     33          1           0        0.076945   -0.630973   -5.402576
     34          6           0       -2.998927    0.800412   -5.274629
     35          1           0       -3.595838    1.462906   -4.650791
     36          6           0       -1.457563   -0.847665   -6.908130
     37          1           0       -0.847882   -1.480271   -7.547443
     38          6           0       -3.535305    0.317512   -6.475052
     39          1           0       -4.534594    0.616294   -6.782344
     40          6           0       -2.763863   -0.515858   -7.296725
     41          1           0       -3.158987   -0.865094   -8.247655
     42          7           0       -1.026549   -0.736592   -0.129246
     43          1           0       -1.130427   -1.697165   -0.433474
     44          6           0       -0.561286   -0.535868    1.251702
     45          1           0       -0.813945    0.495103    1.518750
     46          6           0        0.970873   -0.727295    1.201123
     47          6           0       -1.247385   -1.513816    2.215299
     48          1           0       -0.940401   -2.525669    1.916737
     49          8           0        1.482816   -1.839294    1.316221
     50          6           0       -0.748458   -1.276233    3.647720
     51          1           0       -0.982767   -0.257080    3.980818
     52          1           0       -1.232407   -1.972509    4.340559
     53          1           0        0.332150   -1.427566    3.719368
     54          6           0       -2.776023   -1.396872    2.136570
     55          1           0       -3.106017   -0.392399    2.430256
     56          1           0       -3.153851   -1.587233    1.124916
     57          1           0       -3.248892   -2.115037    2.814868
     58          7           0        1.655255    0.400310    0.895884
     59          1           0        1.157325    1.271967    0.745384
     60          6           0        3.048146    0.402851    0.498189
     61          1           0        3.543468   -0.438357    0.992565
     62          6           0        3.666605    1.743292    0.924308
     63          6           0        3.190323    0.281843   -1.040990
     64          1           0        2.573909    1.069893   -1.490790
     65          1           0        4.230625    0.481267   -1.328490
     66          8           0        2.976861    2.749651    1.065428
     67          6           0        2.751853   -1.090836   -1.587197
     68          1           0        1.768973   -1.358567   -1.198791
     69          1           0        3.453021   -1.867759   -1.261481
     70          6           0        2.635374   -1.040660   -3.101542
     71          7           0        3.774965   -1.277476   -3.797555
     72          1           0        4.657884   -1.457863   -3.342899
     73          1           0        3.766472   -1.168009   -4.802342
     74          8           0        1.573420   -0.759489   -3.663872
     75          7           0        5.015717    1.727311    1.057335
     76          1           0        5.536132    0.931429    0.702360
     77          6           0        5.779140    2.970695    1.070354
     78          1           0        5.345216    3.637663    0.309087
     79          6           0        7.193674    2.606571    0.560986
     80          6           0        5.716201    3.707434    2.420211
     81          1           0        6.499513    3.328348    3.085929
     82          1           0        4.761627    3.461412    2.891869
     83          8           0        8.215151    3.388110    0.877337
     84          6           0        5.805998    5.238522    2.242668
     85          1           0        6.421593    5.480236    1.365116
     86          1           0        4.800300    5.605077    2.008146
     87          6           0        6.382585    5.982937    3.460819
     88          1           0        6.136690    5.441299    4.385400
     89          1           0        5.924067    6.973952    3.560166
     90          6           0        7.897733    6.185357    3.358772
     91          1           0        8.113462    6.844133    2.509310
     92          1           0        8.276809    6.685067    4.262353
     93          7           0        8.596842    4.907783    3.093793
     94          1           0        9.590979    5.077699    2.941387
     95          1           0        8.125501    3.995435    1.683033
     96          1           0        8.539923    4.304785    3.915127
     97          8           0        7.337636    1.640009   -0.166956
 ---------------------------------------------------------------------

 SCF Done:  E(RB3LYP) =  -2122.48750838     A.U. after    3 cycles

 Alpha  occ. eigenvalues --  -19.25866 -19.21919 -19.20713 -19.19622 -19.17834
 Alpha  occ. eigenvalues --  -19.17778 -19.17772 -14.59028 -14.49356 -14.45043
 Alpha  occ. eigenvalues --  -14.43842 -14.42083 -14.41628 -14.40869 -10.42889
 Alpha  occ. eigenvalues --  -10.39559 -10.37826 -10.37053 -10.36512 -10.35062
 Alpha  occ. eigenvalues --  -10.34745 -10.33794 -10.33151 -10.30545 -10.30466
 Alpha  occ. eigenvalues --  -10.30261 -10.30009 -10.30001 -10.30000 -10.29909
 Alpha  occ. eigenvalues --  -10.29704 -10.29495 -10.29211 -10.29174 -10.28469
 Alpha  occ. eigenvalues --  -10.28093 -10.27882 -10.26882 -10.26652 -10.26447
 Alpha  occ. eigenvalues --  -10.24883 -10.24483 -10.24285 -10.24099 -10.23566
 Alpha  occ. eigenvalues --   -1.18475  -1.13506  -1.13219  -1.12638  -1.11090
 Alpha  occ. eigenvalues --   -1.10090  -1.09354  -1.05968  -1.05374  -1.01193
 Alpha  occ. eigenvalues --   -0.98898  -0.98431  -0.98364  -0.96522  -0.96146
 Alpha  occ. eigenvalues --   -0.95029  -0.89530  -0.87894  -0.86896  -0.86747
 Alpha  occ. eigenvalues --   -0.85690  -0.84957  -0.84748  -0.83029  -0.81823
 Alpha  occ. eigenvalues --   -0.79990  -0.77876  -0.76234  -0.75497  -0.74870
 Alpha  occ. eigenvalues --   -0.74594  -0.73802  -0.72465  -0.71608  -0.70692
 Alpha  occ. eigenvalues --   -0.70610  -0.68882  -0.68729  -0.68256  -0.67724
 Alpha  occ. eigenvalues --   -0.66410  -0.66342  -0.65915  -0.64885  -0.64323
 Alpha  occ. eigenvalues --   -0.63672  -0.63418  -0.62194  -0.61859  -0.61284
 Alpha  occ. eigenvalues --   -0.61240  -0.60185  -0.59528  -0.58122  -0.57737
 Alpha  occ. eigenvalues --   -0.56931  -0.56673  -0.56289  -0.55575  -0.55145
 Alpha  occ. eigenvalues --   -0.54980  -0.54859  -0.54768  -0.54158  -0.53487
 Alpha  occ. eigenvalues --   -0.53179  -0.53097  -0.52807  -0.52539  -0.52131
 Alpha  occ. eigenvalues --   -0.52012  -0.51662  -0.51073  -0.50805  -0.50129
 Alpha  occ. eigenvalues --   -0.49868  -0.49410  -0.49321  -0.49103  -0.48888
 Alpha  occ. eigenvalues --   -0.48616  -0.48318  -0.48138  -0.47977  -0.47746
 Alpha  occ. eigenvalues --   -0.47262  -0.46675  -0.46513  -0.46090  -0.46008
 Alpha  occ. eigenvalues --   -0.45823  -0.45588  -0.45506  -0.45072  -0.45052
 Alpha  occ. eigenvalues --   -0.44820  -0.44144  -0.43894  -0.43744  -0.43512
 Alpha  occ. eigenvalues --   -0.43229  -0.42339  -0.42079  -0.41575  -0.40980
 Alpha  occ. eigenvalues --   -0.40669  -0.40469  -0.40126  -0.39890  -0.39486
 Alpha  occ. eigenvalues --   -0.39254  -0.39061  -0.38853  -0.35805  -0.35705
 Alpha  occ. eigenvalues --   -0.35367  -0.35037  -0.34915  -0.33918  -0.33505
 Alpha  occ. eigenvalues --   -0.33428  -0.32676  -0.31753  -0.31184  -0.30855
 Alpha  occ. eigenvalues --   -0.30692
 Alpha virt. eigenvalues --   -0.13151  -0.11166  -0.10954  -0.09177  -0.07901
 Alpha virt. eigenvalues --   -0.06080  -0.05910  -0.03949  -0.03715  -0.03575
 Alpha virt. eigenvalues --   -0.03031  -0.02706  -0.01011  -0.00885  -0.00464

 Mulliken charges:
               1
     1  N   -0.765095
     2  H    0.415688
     3  H    0.403578
     4  H    0.425985
     5  C   -0.111109
     6  H    0.196791
     7  C    0.651068
     8  C   -0.104277
     9  H    0.151313
    10  O   -0.525251
    11  C   -0.283036
    12  H    0.166397
    13  H    0.176439
    14  C   -0.473115
    15  H    0.190414
    16  H    0.188600
    17  H    0.136151
    18  C   -0.468134
    19  H    0.189664
    20  H    0.127875
    21  H    0.167264
    22  N   -0.596605
    23  H    0.351250
    24  C   -0.119622
    25  H    0.250605
    26  C    0.629925
    27  C   -0.352396
    28  H    0.211193
    29  H    0.168157
    30  O   -0.517758
    31  C    0.131703
    32  C   -0.159562
    33  H    0.199986
    34  C   -0.201727
    35  H    0.142060
    36  C   -0.135551
    37  H    0.159892
    38  C   -0.171405
    39  H    0.155684
    40  C   -0.199573
    41  H    0.157955
    42  N   -0.607908
    43  H    0.339319
    44  C   -0.039947
    45  H    0.171700
    46  C    0.623315
    47  C   -0.094459
    48  H    0.148099
    49  O   -0.548044
    50  C   -0.462737
    51  H    0.146175
    52  H    0.155772
    53  H    0.178587
    54  C   -0.455617
    55  H    0.151290
    56  H    0.127887
    57  H    0.157933
    58  N   -0.591117
    59  H    0.369218
    60  C   -0.073365
    61  H    0.184417
    62  C    0.617815
    63  C   -0.282310
    64  H    0.177411
    65  H    0.159295
    66  O   -0.531399
    67  C   -0.354834
    68  H    0.178101
    69  H    0.164244
    70  C    0.584387
    71  N   -0.725288
    72  H    0.355946
    73  H    0.349943
    74  O   -0.520256
    75  N   -0.614201
    76  H    0.349973
    77  C   -0.042817
    78  H    0.188664
    79  C    0.574981
    80  C   -0.283286
    81  H    0.133890
    82  H    0.180900
    83  O   -0.617002
    84  C   -0.282096
    85  H    0.141553
    86  H    0.165184
    87  C   -0.272077
    88  H    0.143260
    89  H    0.154691
    90  C   -0.143927
    91  H    0.162238
    92  H    0.146623
    93  N   -0.770583
    94  H    0.338042
    95  H    0.488841
    96  H    0.326100
    97  O   -0.483948
 Sum of Mulliken charges =   1.00000

 Dipole moment (field-independent basis, Debye):
    X=             -9.9739    Y=             -4.9291    Z=            -14.1627  Tot=             18.0100
 Quadrupole moment (field-independent basis, Debye-Ang):
   XX=           -118.3837   YY=           -211.6313   ZZ=           -142.1651
   XY=             85.4387   XZ=            102.5420   YZ=             70.7584

 Normal termination of Gaussian 16 at Sun Jun 19 06:03:49 2022.
