 Gaussian 16, Revision C.01,
 Gaussian 16:  ES64L-G16RevC.01  3-Jul-2019

 ----------------------------------------------------------------------
 # B3LYP/6-31G* empiricaldispersion=gd3 guess=read geom=check nosymm in
 tegral(ultrafinegrid)
 ----------------------------------------------------------------------

 ------------------------------------------------------
 Candidate Structure: Conf:497 Charge calc in gas phase
 ------------------------------------------------------
 Structure from the checkpoint file:  "conf-497.chk"
 Charge =  1 Multiplicity = 1

                          Input orientation:
 ---------------------------------------------------------------------
 Center     Atomic      Atomic             Coordinates (Angstroms)
 Number     Number       Type             X           Y           Z
 ---------------------------------------------------------------------
      1          7           0       -6.117595    0.409235   -6.265471
      2          1           0       -7.081074    0.075207   -6.211150
      3          1           0       -6.007032    0.999416   -7.086564
      4          1           0       -5.928366    0.958906   -5.423247
      5          6           0       -5.143064   -0.703339   -6.257076
      6          1           0       -5.504069   -1.513831   -6.891587
      7          6           0       -5.036385   -1.178492   -4.814943
      8          6           0       -3.783231   -0.214539   -6.732793
      9          1           0       -3.034796   -1.007672   -6.747667
     10          1           0       -3.853471    0.207935   -7.737474
     11          1           0       -3.436246    0.568007   -6.052549
     12          8           0       -5.084519   -0.356023   -3.902189
     13          7           0       -4.867088   -2.497273   -4.602511
     14          1           0       -4.781294   -3.127417   -5.382172
     15          6           0       -4.733388   -3.058473   -3.259114
     16          1           0       -5.412183   -2.493191   -2.616492
     17          6           0       -3.286770   -2.853967   -2.799517
     18          6           0       -5.123224   -4.538387   -3.293821
     19          1           0       -6.037749   -4.624447   -3.881421
     20          1           0       -4.334357   -5.086637   -3.810117
     21          8           0       -2.442802   -3.743501   -2.850604
     22          6           0       -5.357093   -5.128595   -1.934660
     23          6           0       -4.433627   -5.755506   -1.150805
     24          1           0       -3.385721   -5.915988   -1.341351
     25          6           0       -6.595201   -5.134755   -1.191448
     26          6           0       -6.344962   -5.778470    0.032446
     27          6           0       -7.879828   -4.649634   -1.469980
     28          1           0       -8.098281   -4.148832   -2.408284
     29          7           0       -5.018337   -6.145868    0.036472
     30          1           0       -4.548726   -6.626531    0.779112
     31          6           0       -8.598704   -5.466450    0.704603
     32          1           0       -9.396252   -5.583691    1.428324
     33          6           0       -7.335792   -5.955115    1.000659
     34          1           0       -7.121211   -6.453384    1.939493
     35          6           0       -8.867686   -4.820769   -0.516950
     36          1           0       -9.868247   -4.453512   -0.711775
     37          7           0       -2.998254   -1.593957   -2.400150
     38          1           0       -3.694631   -0.860196   -2.481362
     39          6           0       -1.638530   -1.166316   -2.184282
     40          1           0       -1.039110   -2.057005   -1.986414
     41          6           0       -1.634455   -0.222637   -0.978382
     42          6           0       -1.076608   -0.434692   -3.410554
     43          1           0       -1.747400    0.398070   -3.639936
     44          1           0       -0.100219   -0.006423   -3.181262
     45          8           0       -2.539659    0.576966   -0.796828
     46          6           0       -0.929491   -1.358391   -4.614684
     47          1           0       -0.280319   -2.201054   -4.357707
     48          1           0       -1.876267   -1.771519   -4.948971
     49          6           0       -0.243877   -0.639155   -5.800656
     50          8           0       -0.578438   -1.039010   -6.936803
     51          8           0        0.626723    0.195066   -5.508505
     52          7           0       -0.555905   -0.325497   -0.162988
     53          1           0        0.225697   -0.905249   -0.429018
     54          6           0       -0.270296    0.668365    0.859368
     55          1           0       -0.889291    1.546082    0.662475
     56          6           0        1.207903    1.009583    0.715180
     57          6           0       -0.607797    0.154281    2.274620
     58          1           0       -0.035386   -0.770163    2.414135
     59          8           0        2.035319    0.142770    0.454356
     60          6           0       -0.230292    1.140946    3.379500
     61          1           0       -0.765737    2.085703    3.239644
     62          1           0       -0.529723    0.731165    4.347630
     63          1           0        0.841072    1.359219    3.450164
     64          6           0       -2.098639   -0.157830    2.375203
     65          1           0       -2.674366    0.763385    2.247113
     66          1           0       -2.423240   -0.865390    1.613808
     67          1           0       -2.331744   -0.576676    3.355590
     68          7           0        1.560446    2.318916    0.893618
     69          1           0        0.906481    2.882720    1.419558
     70          6           0        2.965671    2.628497    1.170245
     71          1           0        3.575401    2.020823    0.502059
     72          6           0        3.239878    2.241961    2.629637
     73          6           0        3.221075    4.111493    0.882181
     74          1           0        2.453146    4.692113    1.416411
     75          8           0        2.759878    2.921010    3.580180
     76          6           0        4.595426    4.560258    1.323737
     77          1           0        4.669820    4.467227    2.412220
     78          1           0        5.357784    3.932396    0.859809
     79          1           0        4.757254    5.598021    1.037210
     80          8           0        3.128965    4.343832   -0.518561
     81          1           0        2.272013    4.014057   -0.804031
     82          7           0        3.936450    1.092915    2.793561
     83          1           0        4.190726    0.549048    1.989024
     84          6           0        4.159375    0.536451    4.119813
     85          1           0        3.419965    0.998185    4.781470
     86          6           0        5.551777    0.978949    4.568807
     87          6           0        3.934587   -0.969913    4.151477
     88          1           0        4.686118   -1.428407    3.507334
     89          8           0        6.545369    0.271948    4.507734
     90          6           0        4.079427   -1.524414    5.570587
     91          1           0        3.313436   -1.090953    6.218044
     92          1           0        5.057896   -1.293274    5.991219
     93          1           0        3.951103   -2.608667    5.566480
     94          6           0        2.538998   -1.271697    3.609890
     95          1           0        1.788259   -0.718009    4.187145
     96          1           0        2.314484   -2.336874    3.694363
     97          1           0        2.448582   -0.989546    2.562240
     98          7           0        5.616560    2.265262    5.000696
     99          1           0        4.785213    2.840750    4.945010
    100          6           0        6.886961    2.844772    5.397607
    101          1           0        7.624175    2.652409    4.610752
    102          6           0        7.441627    2.191703    6.652571
    103          6           0        6.719392    4.353011    5.599477
    104          1           0        6.082269    4.524909    6.469286
    105          1           0        6.179083    4.730539    4.724218
    106          8           0        8.606877    1.929145    6.824913
    107          6           0        8.036708    5.095153    5.743843
    108          1           0        8.598200    4.705153    6.596621
    109          1           0        8.641489    4.888179    4.855800
    110          6           0        7.836068    6.592826    5.903356
    111          1           0        7.301155    6.989435    5.035191
    112          1           0        7.201693    6.775600    6.776914
    113          6           0        9.127878    7.365315    6.089714
    114          1           0        9.686758    6.925709    6.920276
    115          1           0        8.910656    8.399343    6.363450
    116          7           0        9.983611    7.350054    4.875143
    117          1           0       10.855041    7.862602    5.012478
    118          1           0       10.231862    6.396666    4.614329
    119          1           0        9.499854    7.763234    4.078185
    120          8           0        6.499131    1.982118    7.594646
    121          1           0        6.957348    1.589503    8.348274
 ---------------------------------------------------------------------

 SCF Done:  E(RB3LYP) =  -2843.66791589     A.U. after    3 cycles

 Alpha  occ. eigenvalues --  -19.27537 -19.22296 -19.21964 -19.19906 -19.19176
 Alpha  occ. eigenvalues --  -19.18754 -19.18613 -19.14498 -19.14450 -19.01958
 Alpha  occ. eigenvalues --  -19.01742 -14.65198 -14.59187 -14.45817 -14.44087
 Alpha  occ. eigenvalues --  -14.43630 -14.43316 -14.41242 -14.39413 -14.38217
 Alpha  occ. eigenvalues --  -10.41906 -10.40024 -10.39301 -10.36868 -10.36306
 Alpha  occ. eigenvalues --  -10.35426 -10.35277 -10.34906 -10.33020 -10.32623
 Alpha  occ. eigenvalues --  -10.31854 -10.31302 -10.30981 -10.30557 -10.29761
 Alpha  occ. eigenvalues --  -10.29351 -10.29080 -10.27835 -10.26640 -10.25042
 Alpha  occ. eigenvalues --  -10.24942 -10.24770 -10.24620 -10.24414 -10.24200
 Alpha  occ. eigenvalues --  -10.24012 -10.22410 -10.22370 -10.22214 -10.22040
 Alpha  occ. eigenvalues --  -10.22023 -10.21659 -10.21617 -10.21578 -10.21352
 Alpha  occ. eigenvalues --  -10.20893 -10.20264 -10.18192 -10.14846  -1.20265
 Alpha  occ. eigenvalues --   -1.18918  -1.16138  -1.12962  -1.11300  -1.10994
 Alpha  occ. eigenvalues --   -1.09711  -1.09547  -1.07928  -1.07137  -1.06443
 Alpha  occ. eigenvalues --   -1.02000  -1.01476  -1.00927  -1.00184  -0.99577
 Alpha  occ. eigenvalues --   -0.96830  -0.96433  -0.95785  -0.95185  -0.90817
 Alpha  occ. eigenvalues --   -0.89774  -0.87468  -0.87257  -0.86872  -0.85702
 Alpha  occ. eigenvalues --   -0.85217  -0.84761  -0.84324  -0.81341  -0.79952
 Alpha  occ. eigenvalues --   -0.79480  -0.78918  -0.78366  -0.77240  -0.77207
 Alpha  occ. eigenvalues --   -0.76919  -0.76459  -0.75327  -0.74769  -0.73705
 Alpha  occ. eigenvalues --   -0.73548  -0.72896  -0.72732  -0.72217  -0.71281
 Alpha  occ. eigenvalues --   -0.70194  -0.69682  -0.68574  -0.68362  -0.67992
 Alpha  occ. eigenvalues --   -0.66643  -0.65914  -0.65680  -0.65301  -0.64018
 Alpha  occ. eigenvalues --   -0.63473  -0.62975  -0.62573  -0.62168  -0.61948
 Alpha  occ. eigenvalues --   -0.61389  -0.61317  -0.60947  -0.60293  -0.59807
 Alpha  occ. eigenvalues --   -0.59400  -0.58868  -0.57986  -0.57735  -0.57502
 Alpha  occ. eigenvalues --   -0.57138  -0.56974  -0.56313  -0.56087  -0.55650
 Alpha  occ. eigenvalues --   -0.55409  -0.54938  -0.54060  -0.53547  -0.53519
 Alpha  occ. eigenvalues --   -0.52918  -0.51742  -0.51225  -0.51139  -0.50950
 Alpha  occ. eigenvalues --   -0.50503  -0.50423  -0.50305  -0.50044  -0.49825
 Alpha  occ. eigenvalues --   -0.49472  -0.49310  -0.48693  -0.48445  -0.48312
 Alpha  occ. eigenvalues --   -0.48027  -0.47636  -0.47554  -0.47129  -0.46777
 Alpha  occ. eigenvalues --   -0.46676  -0.46575  -0.46321  -0.46304  -0.46069
 Alpha  occ. eigenvalues --   -0.46040  -0.45841  -0.45726  -0.45446  -0.45127
 Alpha  occ. eigenvalues --   -0.44889  -0.44519  -0.44426  -0.44238  -0.43901
 Alpha  occ. eigenvalues --   -0.43745  -0.43443  -0.43266  -0.43074  -0.43011
 Alpha  occ. eigenvalues --   -0.42804  -0.42565  -0.42284  -0.41603  -0.40871
 Alpha  occ. eigenvalues --   -0.40592  -0.40077  -0.39794  -0.39341  -0.39230
 Alpha  occ. eigenvalues --   -0.38882  -0.38755  -0.38614  -0.38528  -0.38056
 Alpha  occ. eigenvalues --   -0.37217  -0.37157  -0.36770  -0.36644  -0.36444
 Alpha  occ. eigenvalues --   -0.36314  -0.35687  -0.35023  -0.34983  -0.34631
 Alpha  occ. eigenvalues --   -0.34460  -0.33766  -0.32934  -0.32460  -0.31714
 Alpha  occ. eigenvalues --   -0.31342  -0.30877  -0.30772  -0.29890  -0.29245
 Alpha  occ. eigenvalues --   -0.28887  -0.27907  -0.27079  -0.25635  -0.23761
 Alpha  occ. eigenvalues --   -0.17910  -0.16668  -0.15982
 Alpha virt. eigenvalues --   -0.15343  -0.09728  -0.09063  -0.08866  -0.07769
 Alpha virt. eigenvalues --   -0.07723  -0.06857  -0.05498  -0.05241  -0.04302
 Alpha virt. eigenvalues --   -0.04013  -0.03801  -0.03134  -0.02197  -0.02119

 Mulliken charges:
               1
     1  N   -0.708082
     2  H    0.417911
     3  H    0.420651
     4  H    0.424530
     5  C   -0.155156
     6  H    0.200082
     7  C    0.660228
     8  C   -0.474651
     9  H    0.272496
    10  H    0.172207
    11  H    0.201335
    12  O   -0.535015
    13  N   -0.596946
    14  H    0.353420
    15  C   -0.063880
    16  H    0.189275
    17  C    0.649816
    18  C   -0.380008
    19  H    0.137792
    20  H    0.184464
    21  O   -0.532455
    22  C    0.047325
    23  C    0.013680
    24  H    0.181939
    25  C    0.084046
    26  C    0.319083
    27  C   -0.206524
    28  H    0.103363
    29  N   -0.693392
    30  H    0.330038
    31  C   -0.151606
    32  H    0.127491
    33  C   -0.158488
    34  H    0.127234
    35  C   -0.139523
    36  H    0.118960
    37  N   -0.602993
    38  H    0.368672
    39  C   -0.087916
    40  H    0.170812
    41  C    0.634265
    42  C   -0.243018
    43  H    0.116850
    44  H    0.162335
    45  O   -0.547476
    46  C   -0.347645
    47  H    0.145865
    48  H    0.078147
    49  C    0.553518
    50  O   -0.624833
    51  O   -0.588187
    52  N   -0.615560
    53  H    0.353174
    54  C   -0.047265
    55  H    0.169252
    56  C    0.621679
    57  C   -0.075960
    58  H    0.146580
    59  O   -0.530085
    60  C   -0.492188
    61  H    0.137149
    62  H    0.155263
    63  H    0.168816
    64  C   -0.440701
    65  H    0.152429
    66  H    0.170405
    67  H    0.139958
    68  N   -0.613413
    69  H    0.346265
    70  C   -0.077644
    71  H    0.188053
    72  C    0.628786
    73  C    0.149969
    74  H    0.127488
    75  O   -0.586559
    76  C   -0.476055
    77  H    0.142750
    78  H    0.159357
    79  H    0.163138
    80  O   -0.619753
    81  H    0.409976
    82  N   -0.588829
    83  H    0.364127
    84  C   -0.061323
    85  H    0.181276
    86  C    0.641651
    87  C   -0.100253
    88  H    0.152372
    89  O   -0.517877
    90  C   -0.459511
    91  H    0.139237
    92  H    0.167805
    93  H    0.159191
    94  C   -0.479261
    95  H    0.145456
    96  H    0.154794
    97  H    0.179993
    98  N   -0.639020
    99  H    0.354155
   100  C    0.016688
   101  H    0.185157
   102  C    0.596738
   103  C   -0.329056
   104  H    0.182327
   105  H    0.170074
   106  O   -0.462218
   107  C   -0.289207
   108  H    0.185042
   109  H    0.126634
   110  C   -0.292045
   111  H    0.168483
   112  H    0.207797
   113  C   -0.226277
   114  H    0.231924
   115  H    0.231339
   116  N   -0.698458
   117  H    0.420040
   118  H    0.419784
   119  H    0.413163
   120  O   -0.559288
   121  H    0.422041
 Sum of Mulliken charges =   1.00000

 Dipole moment (field-independent basis, Debye):
    X=             17.7063    Y=             31.9958    Z=             21.3142  Tot=             42.3266
 Quadrupole moment (field-independent basis, Debye-Ang):
   XX=            154.4834   YY=            -93.3474   ZZ=           -187.8537
   XY=            313.5065   XZ=            355.2242   YZ=            147.5655

 Normal termination of Gaussian 16 at Sat Jun 25 09:16:17 2022.
