 Gaussian 16, Revision C.01,
 Gaussian 16:  ES64L-G16RevC.01  3-Jul-2019

 -------------------------------------------------------------------
 # B3LYP/6-31G* guess=read geom=check nosymm integral(ultrafinegrid)
 -------------------------------------------------------------------

 ------------------------------------------------------
 Candidate Structure: Conf:472 Charge calc in gas phase
 ------------------------------------------------------
 Structure from the checkpoint file:  "conf-472.chk"
 Charge =  1 Multiplicity = 1

                          Input orientation:
 ---------------------------------------------------------------------
 Center     Atomic      Atomic             Coordinates (Angstroms)
 Number     Number       Type             X           Y           Z
 ---------------------------------------------------------------------
      1          7           0       -0.263912   -0.960835   -4.800442
      2          1           0        0.307505   -0.705057   -5.608557
      3          1           0        0.391548   -1.232056   -4.006644
      4          1           0       -0.829200   -0.149802   -4.477147
      5          6           0       -1.282811   -2.029482   -5.123485
      6          1           0       -1.647219   -1.811079   -6.133491
      7          6           0       -2.437710   -1.717339   -4.130906
      8          6           0       -0.658304   -3.419716   -5.067046
      9          1           0       -1.380648   -4.173792   -5.393709
     10          1           0        0.196883   -3.488025   -5.747158
     11          1           0       -0.318718   -3.668812   -4.057752
     12          8           0       -2.538249   -0.550745   -3.731214
     13          7           0       -3.239225   -2.720538   -3.758313
     14          1           0       -3.097207   -3.653275   -4.124134
     15          6           0       -4.204034   -2.596436   -2.644473
     16          1           0       -4.663865   -1.609598   -2.729770
     17          6           0       -3.320195   -2.714373   -1.375074
     18          6           0       -5.254974   -3.719975   -2.709915
     19          1           0       -4.785249   -4.632658   -2.326706
     20          1           0       -6.043477   -3.456985   -1.992535
     21          8           0       -2.926121   -3.810847   -0.991789
     22          6           0       -5.824502   -3.965051   -4.076399
     23          6           0       -5.705598   -5.133428   -4.792379
     24          1           0       -5.235819   -6.066903   -4.510464
     25          6           0       -6.594125   -3.059307   -4.897831
     26          6           0       -6.905421   -3.749505   -6.101314
     27          6           0       -7.061597   -1.742299   -4.733915
     28          1           0       -6.858690   -1.189211   -3.820224
     29          7           0       -6.339479   -5.007200   -6.011845
     30          1           0       -6.475667   -5.754895   -6.674911
     31          6           0       -8.099805   -1.863700   -6.935449
     32          1           0       -8.689328   -1.382158   -7.710188
     33          6           0       -7.655059   -3.165881   -7.128143
     34          1           0       -7.887646   -3.710805   -8.039081
     35          6           0       -7.807146   -1.158732   -5.749604
     36          1           0       -8.178502   -0.145154   -5.629330
     37          7           0       -2.911022   -1.534802   -0.837049
     38          1           0       -3.158440   -0.665678   -1.301985
     39          6           0       -1.645156   -1.458514   -0.108216
     40          1           0       -1.617386   -2.263391    0.631314
     41          6           0       -1.583587   -0.069832    0.537462
     42          6           0       -0.501291   -1.613716   -1.144898
     43          1           0       -0.698825   -2.548638   -1.681320
     44          1           0       -0.624167   -0.785384   -1.849001
     45          8           0       -2.001705    0.913366   -0.069793
     46          6           0        0.935687   -1.624361   -0.632991
     47          1           0        1.171804   -0.713249   -0.064486
     48          1           0        1.129428   -2.468515    0.040093
     49          6           0        1.943261   -1.702531   -1.765034
     50          8           0        1.664435   -1.556356   -2.968276
     51          8           0        3.160216   -1.921868   -1.344979
     52          7           0       -1.014671    0.004909    1.766723
     53          1           0       -0.586179   -0.822563    2.157937
     54          6           0       -0.666129    1.295548    2.348859
     55          1           0       -1.576706    1.904127    2.355193
     56          6           0        0.376638    1.985878    1.442560
     57          6           0       -0.187980    1.110842    3.815940
     58          1           0       -0.983661    0.524809    4.297552
     59          8           0        1.253562    1.337240    0.856281
     60          6           0        1.130535    0.329632    3.943059
     61          1           0        1.964425    0.865412    3.478990
     62          1           0        1.369287    0.179126    5.000960
     63          1           0        1.088040   -0.663726    3.480181
     64          6           0       -0.099301    2.457894    4.548234
     65          1           0        0.698307    3.088792    4.140243
     66          1           0       -1.042176    3.014545    4.488764
     67          1           0        0.121176    2.295909    5.608128
     68          7           0        0.287946    3.326514    1.333033
     69          1           0       -0.416157    3.859008    1.832244
     70          6           0        1.078378    4.089116    0.369522
     71          1           0        1.278783    3.425806   -0.479749
     72          6           0        2.436421    4.528539    0.968934
     73          6           0        0.265512    5.320474   -0.080419
     74          1           0        0.923794    5.929688   -0.713680
     75          8           0        2.714346    5.718659    1.133669
     76          6           0       -0.990957    4.953677   -0.860326
     77          1           0       -0.728986    4.460792   -1.803209
     78          1           0       -1.639432    4.276840   -0.294895
     79          1           0       -1.554872    5.862838   -1.086768
     80          8           0       -0.123028    6.059634    1.074225
     81          1           0        0.710808    6.425262    1.426298
     82          7           0        3.273773    3.506652    1.267145
     83          1           0        2.951419    2.551575    1.113062
     84          6           0        4.647416    3.701924    1.735316
     85          1           0        4.943013    4.710631    1.426996
     86          6           0        5.465299    2.623015    1.010306
     87          6           0        4.816465    3.567969    3.270135
     88          1           0        4.522623    2.541107    3.525509
     89          8           0        5.248058    1.432159    1.222013
     90          6           0        6.289965    3.759137    3.663601
     91          1           0        6.645138    4.761715    3.391720
     92          1           0        6.944680    3.023507    3.183692
     93          1           0        6.412193    3.650519    4.746325
     94          6           0        3.917430    4.549759    4.031705
     95          1           0        4.165985    5.589135    3.789609
     96          1           0        4.042854    4.413613    5.111701
     97          1           0        2.859415    4.399424    3.795977
     98          7           0        6.378685    3.056898    0.096789
     99          1           0        6.581897    4.043963    0.021715
    100          6           0        7.216078    2.116378   -0.633259
    101          1           0        7.233616    1.198579   -0.034475
    102          6           0        8.661983    2.585109   -0.759107
    103          6           0        6.675525    1.756660   -2.040517
    104          1           0        7.382478    1.037472   -2.469800
    105          1           0        6.709953    2.647765   -2.682949
    106          8           0        9.524436    1.936360   -1.303753
    107          6           0        5.246439    1.196483   -2.013637
    108          1           0        5.159631    0.418514   -1.245805
    109          1           0        4.563344    1.989742   -1.688732
    110          6           0        4.751389    0.663463   -3.369345
    111          1           0        3.675401    0.460966   -3.296432
    112          1           0        4.874974    1.436929   -4.140095
    113          6           0        5.439119   -0.612024   -3.871513
    114          1           0        6.494698   -0.421358   -4.108810
    115          1           0        4.957948   -0.934770   -4.800761
    116          7           0        5.305538   -1.728402   -2.900749
    117          1           0        5.583121   -2.604982   -3.341882
    118          1           0        5.958326   -1.593039   -2.127868
    119          1           0        3.881514   -1.872610   -2.092092
    120          8           0        8.878261    3.809866   -0.225410
    121          1           0        9.822213    4.014852   -0.369984
 ---------------------------------------------------------------------

 SCF Done:  E(RB3LYP) =  -2843.69401601     A.U. after    2 cycles

 Alpha  occ. eigenvalues --  -19.27656 -19.25905 -19.24874 -19.23934 -19.21392
 Alpha  occ. eigenvalues --  -19.20225 -19.20180 -19.20151 -19.20088 -19.18857
 Alpha  occ. eigenvalues --  -19.18758 -14.56200 -14.48783 -14.45054 -14.44824
 Alpha  occ. eigenvalues --  -14.44310 -14.44229 -14.44029 -14.43904 -14.42673
 Alpha  occ. eigenvalues --  -10.42131 -10.41585 -10.39800 -10.39269 -10.37340
 Alpha  occ. eigenvalues --  -10.37279 -10.36971 -10.35969 -10.35755 -10.33251
 Alpha  occ. eigenvalues --  -10.32293 -10.32278 -10.31610 -10.31575 -10.30671
 Alpha  occ. eigenvalues --  -10.30379 -10.30334 -10.29854 -10.29349 -10.28702
 Alpha  occ. eigenvalues --  -10.28325 -10.28002 -10.27962 -10.27649 -10.26927
 Alpha  occ. eigenvalues --  -10.26863 -10.26048 -10.25843 -10.25392 -10.25388
 Alpha  occ. eigenvalues --  -10.25285 -10.25217 -10.24985 -10.24980 -10.24841
 Alpha  occ. eigenvalues --  -10.24450 -10.23698 -10.23347 -10.22850  -1.18383
 Alpha  occ. eigenvalues --   -1.18333  -1.17247  -1.12781  -1.12147  -1.11529
 Alpha  occ. eigenvalues --   -1.11003  -1.10979  -1.10350  -1.09345  -1.09250
 Alpha  occ. eigenvalues --   -1.07672  -1.05039  -1.04756  -1.01201  -1.00961
 Alpha  occ. eigenvalues --   -1.00448  -1.00226  -0.99470  -0.98933  -0.91650
 Alpha  occ. eigenvalues --   -0.90405  -0.89305  -0.88363  -0.88222  -0.88001
 Alpha  occ. eigenvalues --   -0.86646  -0.84429  -0.84177  -0.83903  -0.82054
 Alpha  occ. eigenvalues --   -0.80135  -0.79796  -0.79708  -0.78867  -0.78469
 Alpha  occ. eigenvalues --   -0.77798  -0.76032  -0.75639  -0.74858  -0.73983
 Alpha  occ. eigenvalues --   -0.73432  -0.72342  -0.71583  -0.71149  -0.69165
 Alpha  occ. eigenvalues --   -0.68925  -0.68796  -0.68356  -0.67205  -0.67186
 Alpha  occ. eigenvalues --   -0.66784  -0.66490  -0.66147  -0.66053  -0.65531
 Alpha  occ. eigenvalues --   -0.65322  -0.64977  -0.64535  -0.63400  -0.62883
 Alpha  occ. eigenvalues --   -0.62410  -0.61243  -0.60917  -0.60555  -0.60305
 Alpha  occ. eigenvalues --   -0.59648  -0.58822  -0.58694  -0.58194  -0.57630
 Alpha  occ. eigenvalues --   -0.57440  -0.57157  -0.56715  -0.56484  -0.56076
 Alpha  occ. eigenvalues --   -0.55661  -0.55565  -0.55292  -0.55007  -0.54524
 Alpha  occ. eigenvalues --   -0.54397  -0.53994  -0.53703  -0.53503  -0.53452
 Alpha  occ. eigenvalues --   -0.52998  -0.52582  -0.52462  -0.52266  -0.51957
 Alpha  occ. eigenvalues --   -0.51624  -0.51256  -0.51088  -0.50949  -0.50596
 Alpha  occ. eigenvalues --   -0.50485  -0.50085  -0.50057  -0.49556  -0.49519
 Alpha  occ. eigenvalues --   -0.49398  -0.48914  -0.48804  -0.48587  -0.48489
 Alpha  occ. eigenvalues --   -0.48005  -0.47842  -0.47580  -0.47367  -0.47215
 Alpha  occ. eigenvalues --   -0.47106  -0.46901  -0.46513  -0.46135  -0.45767
 Alpha  occ. eigenvalues --   -0.45605  -0.45498  -0.45329  -0.45208  -0.44986
 Alpha  occ. eigenvalues --   -0.44640  -0.44579  -0.44324  -0.43996  -0.43903
 Alpha  occ. eigenvalues --   -0.43611  -0.43333  -0.43185  -0.42810  -0.41800
 Alpha  occ. eigenvalues --   -0.41746  -0.41698  -0.41493  -0.41338  -0.41263
 Alpha  occ. eigenvalues --   -0.41092  -0.40492  -0.40128  -0.39996  -0.39928
 Alpha  occ. eigenvalues --   -0.39596  -0.39384  -0.39272  -0.39222  -0.38891
 Alpha  occ. eigenvalues --   -0.38593  -0.37938  -0.36248  -0.35819  -0.35790
 Alpha  occ. eigenvalues --   -0.35290  -0.34787  -0.34210  -0.33677  -0.33592
 Alpha  occ. eigenvalues --   -0.33346  -0.33148  -0.33034  -0.32581  -0.31325
 Alpha  occ. eigenvalues --   -0.31016  -0.28986  -0.27371
 Alpha virt. eigenvalues --   -0.11774  -0.08188  -0.07954  -0.07470  -0.07096
 Alpha virt. eigenvalues --   -0.06708  -0.06474  -0.06256  -0.05775  -0.04218
 Alpha virt. eigenvalues --   -0.03802  -0.03135  -0.02665  -0.01621  -0.01499

 Mulliken charges:
               1
     1  N   -0.783906
     2  H    0.396294
     3  H    0.464528
     4  H    0.419627
     5  C   -0.112766
     6  H    0.224387
     7  C    0.668849
     8  C   -0.484402
     9  H    0.191213
    10  H    0.187081
    11  H    0.206659
    12  O   -0.539649
    13  N   -0.589800
    14  H    0.350724
    15  C   -0.054520
    16  H    0.189221
    17  C    0.620432
    18  C   -0.400926
    19  H    0.185744
    20  H    0.182454
    21  O   -0.525212
    22  C    0.055533
    23  C   -0.020775
    24  H    0.158739
    25  C    0.086202
    26  C    0.307497
    27  C   -0.213182
    28  H    0.124908
    29  N   -0.685248
    30  H    0.337417
    31  C   -0.150038
    32  H    0.140426
    33  C   -0.161824
    34  H    0.135985
    35  C   -0.139100
    36  H    0.135806
    37  N   -0.592942
    38  H    0.365522
    39  C   -0.067041
    40  H    0.179877
    41  C    0.648003
    42  C   -0.286985
    43  H    0.157987
    44  H    0.148808
    45  O   -0.539795
    46  C   -0.408095
    47  H    0.251689
    48  H    0.182243
    49  C    0.630887
    50  O   -0.572311
    51  O   -0.583322
    52  N   -0.615772
    53  H    0.340881
    54  C   -0.029424
    55  H    0.174611
    56  C    0.657674
    57  C   -0.114183
    58  H    0.154697
    59  O   -0.564716
    60  C   -0.461539
    61  H    0.176112
    62  H    0.164350
    63  H    0.136360
    64  C   -0.473323
    65  H    0.165248
    66  H    0.153585
    67  H    0.168200
    68  N   -0.594774
    69  H    0.356245
    70  C   -0.072308
    71  H    0.171417
    72  C    0.628319
    73  C    0.109510
    74  H    0.147669
    75  O   -0.543613
    76  C   -0.451709
    77  H    0.136882
    78  H    0.163026
    79  H    0.173820
    80  O   -0.645879
    81  H    0.418875
    82  N   -0.643091
    83  H    0.382040
    84  C   -0.020240
    85  H    0.162226
    86  C    0.615307
    87  C   -0.075384
    88  H    0.149440
    89  O   -0.536368
    90  C   -0.464530
    91  H    0.145911
    92  H    0.155150
    93  H    0.160341
    94  C   -0.457648
    95  H    0.161182
    96  H    0.149592
    97  H    0.150550
    98  N   -0.611809
    99  H    0.350271
   100  C   -0.058767
   101  H    0.209811
   102  C    0.594976
   103  C   -0.268055
   104  H    0.165292
   105  H    0.144514
   106  O   -0.453126
   107  C   -0.283906
   108  H    0.166552
   109  H    0.149699
   110  C   -0.271486
   111  H    0.142211
   112  H    0.143127
   113  C   -0.142615
   114  H    0.159465
   115  H    0.151615
   116  N   -0.780103
   117  H    0.337881
   118  H    0.344532
   119  H    0.471517
   120  O   -0.575048
   121  H    0.425828
 Sum of Mulliken charges =   1.00000

 Dipole moment (field-independent basis, Debye):
    X=              3.9645    Y=             -6.2260    Z=            -17.5791  Tot=             19.0658
 Quadrupole moment (field-independent basis, Debye-Ang):
   XX=           -258.8522   YY=           -299.9619   ZZ=           -204.3320
   XY=             49.0445   XZ=             20.1302   YZ=             59.9457

 Normal termination of Gaussian 16 at Thu Jun 30 12:47:04 2022.
