 Gaussian 16, Revision C.01,
 Gaussian 16:  ES64L-G16RevC.01  3-Jul-2019

 ----------------------------------------------------------------------
 # B3LYP/6-31G* empiricaldispersion=gd3 guess=read geom=check nosymm in
 tegral(ultrafinegrid)
 ----------------------------------------------------------------------

 ------------------------------------------------------
 Candidate Structure: Conf:962 Charge calc in gas phase
 ------------------------------------------------------
 Structure from the checkpoint file:  "conf-962.chk"
 Charge =  1 Multiplicity = 1

                          Input orientation:
 ---------------------------------------------------------------------
 Center     Atomic      Atomic             Coordinates (Angstroms)
 Number     Number       Type             X           Y           Z
 ---------------------------------------------------------------------
      1          7           0       -6.772171   -3.920468   -7.717921
      2          1           0       -7.714723   -3.539448   -7.624745
      3          1           0       -6.784277   -4.689447   -8.384266
      4          1           0       -6.175119   -3.172193   -8.079037
      5          6           0       -6.218142   -4.336541   -6.412015
      6          1           0       -6.973002   -4.903919   -5.863330
      7          6           0       -5.875275   -3.081980   -5.611961
      8          6           0       -4.974412   -5.190194   -6.605785
      9          1           0       -4.562003   -5.502497   -5.645384
     10          1           0       -5.203419   -6.083451   -7.191838
     11          1           0       -4.210360   -4.614540   -7.134051
     12          8           0       -5.555128   -2.035286   -6.150458
     13          7           0       -5.955135   -3.218978   -4.256584
     14          1           0       -5.918822   -4.146912   -3.870526
     15          6           0       -5.467573   -2.158112   -3.390339
     16          1           0       -5.635101   -1.217620   -3.905307
     17          6           0       -3.979425   -2.354559   -3.147254
     18          6           0       -6.214655   -2.169134   -2.048923
     19          1           0       -7.270783   -1.988403   -2.251213
     20          1           0       -6.119467   -3.162767   -1.607617
     21          8           0       -3.543685   -3.346677   -2.585309
     22          6           0       -5.658930   -1.160373   -1.083353
     23          6           0       -5.074936   -1.446993    0.117733
     24          1           0       -4.957060   -2.396167    0.617630
     25          6           0       -5.512410    0.256239   -1.281796
     26          6           0       -4.842246    0.771879   -0.157957
     27          6           0       -5.875738    1.125514   -2.323960
     28          1           0       -6.395145    0.747199   -3.199323
     29          7           0       -4.609903   -0.280847    0.699456
     30          1           0       -4.008928   -0.243510    1.503004
     31          6           0       -4.887824    2.961258   -1.074063
     32          1           0       -4.654817    4.017138   -1.013216
     33          6           0       -4.515016    2.120930   -0.031566
     34          1           0       -3.994458    2.492234    0.844228
     35          6           0       -5.560001    2.469453   -2.205885
     36          1           0       -5.834925    3.154453   -2.998035
     37          7           0       -3.184776   -1.347367   -3.600366
     38          1           0       -3.620508   -0.471158   -3.834094
     39          6           0       -1.789429   -1.291621   -3.200035
     40          1           0       -1.443528   -2.318651   -3.079334
     41          6           0       -1.700982   -0.516492   -1.889949
     42          6           0       -0.946953   -0.594299   -4.271431
     43          1           0       -1.142430   -1.085501   -5.226688
     44          1           0       -1.277581    0.443354   -4.346572
     45          8           0       -1.946014    0.685807   -1.856065
     46          6           0        0.549911   -0.654383   -3.986272
     47          1           0        1.098880    0.118725   -4.530441
     48          1           0        0.777921   -0.500744   -2.934454
     49          6           0        1.193198   -2.017413   -4.395999
     50          8           0        2.413448   -2.060226   -4.171358
     51          8           0        0.468114   -2.896095   -4.887547
     52          7           0       -1.319307   -1.233674   -0.793344
     53          1           0       -1.003837   -2.167552   -1.006221
     54          6           0       -0.560555   -0.535315    0.246427
     55          1           0       -1.002922    0.459405    0.299192
     56          6           0        0.922943   -0.400052   -0.192860
     57          6           0       -0.699033   -1.217923    1.621214
     58          1           0       -1.781010   -1.287806    1.786140
     59          8           0        1.535349   -1.289931   -0.832706
     60          6           0       -0.111864   -2.623804    1.630967
     61          1           0        0.953073   -2.579516    1.396786
     62          1           0       -0.232206   -3.080208    2.614753
     63          1           0       -0.593971   -3.269106    0.893773
     64          6           0       -0.106083   -0.378767    2.753814
     65          1           0        0.986507   -0.402696    2.726830
     66          1           0       -0.423785    0.667369    2.705575
     67          1           0       -0.421440   -0.778701    3.720309
     68          7           0        1.493477    0.783386    0.175046
     69          1           0        1.007535    1.403338    0.799735
     70          6           0        2.924588    0.965253    0.134957
     71          1           0        3.386422   -0.016143    0.003467
     72          6           0        3.342324    1.583295    1.466041
     73          6           0        3.379388    1.821199   -1.062965
     74          1           0        4.480497    1.788056   -1.072817
     75          8           0        2.531285    2.106065    2.215166
     76          6           0        2.842619    1.283357   -2.375221
     77          1           0        2.868055    0.193066   -2.402046
     78          1           0        1.808035    1.613695   -2.496262
     79          1           0        3.425415    1.687456   -3.201409
     80          8           0        2.922686    3.161207   -0.961369
     81          1           0        3.404235    3.606973   -0.259597
     82          7           0        4.670659    1.514288    1.727122
     83          1           0        5.322216    1.267562    0.998682
     84          6           0        5.287201    2.219476    2.830051
     85          1           0        4.625707    3.041329    3.125480
     86          6           0        6.618409    2.772359    2.302028
     87          6           0        5.508905    1.332496    4.077171
     88          1           0        5.964556    1.995858    4.825004
     89          8           0        7.102381    2.391496    1.248317
     90          6           0        4.181800    0.828100    4.634509
     91          1           0        3.733931    0.108679    3.949012
     92          1           0        3.470828    1.642152    4.784301
     93          1           0        4.341953    0.322775    5.588422
     94          6           0        6.465368    0.174359    3.806504
     95          1           0        6.016711   -0.514893    3.087381
     96          1           0        6.662567   -0.378475    4.727543
     97          1           0        7.415981    0.525220    3.396936
     98          7           0        7.215124    3.685792    3.105183
     99          1           0        6.827206    3.892864    4.011789
    100          6           0        8.558513    4.161469    2.856117
    101          1           0        9.055824    3.449963    2.189215
    102          6           0        9.300410    4.198351    4.174896
    103          6           0        8.593156    5.547689    2.201865
    104          1           0        9.637699    5.849505    2.116902
    105          1           0        8.099715    6.269311    2.857193
    106          8           0        8.788432    4.136141    5.264836
    107          6           0        7.943494    5.551155    0.826665
    108          1           0        8.368428    4.736491    0.233899
    109          1           0        6.879562    5.338520    0.921317
    110          6           0        8.118639    6.868852    0.084782
    111          1           0        9.184318    7.099296   -0.025727
    112          1           0        7.708906    6.770477   -0.924630
    113          6           0        7.436579    8.036879    0.765896
    114          1           0        7.895645    8.216788    1.740414
    115          1           0        6.386722    7.789016    0.942481
    116          7           0        7.528590    9.281752   -0.038645
    117          1           0        7.075064   10.073065    0.418240
    118          1           0        8.501235    9.537589   -0.202066
    119          1           0        7.088623    9.158550   -0.949236
    120          8           0       10.628379    4.337419    3.995127
    121          1           0       11.012761    4.373004    4.880364
 ---------------------------------------------------------------------

 SCF Done:  E(RB3LYP) =  -2843.63689372     A.U. after    3 cycles

 Alpha  occ. eigenvalues --  -19.28704 -19.23518 -19.23432 -19.20166 -19.17769
 Alpha  occ. eigenvalues --  -19.16990 -19.14722 -19.13262 -19.12426 -19.00973
 Alpha  occ. eigenvalues --  -19.00790 -14.62755 -14.61781 -14.46048 -14.44719
 Alpha  occ. eigenvalues --  -14.41113 -14.40933 -14.38338 -14.38158 -14.36810
 Alpha  occ. eigenvalues --  -10.41282 -10.40570 -10.40024 -10.39528 -10.36865
 Alpha  occ. eigenvalues --  -10.33590 -10.33302 -10.33179 -10.31753 -10.31509
 Alpha  occ. eigenvalues --  -10.30560 -10.30051 -10.29922 -10.29483 -10.29041
 Alpha  occ. eigenvalues --  -10.29001 -10.26704 -10.25768 -10.25265 -10.25228
 Alpha  occ. eigenvalues --  -10.25103 -10.24719 -10.24611 -10.22595 -10.22424
 Alpha  occ. eigenvalues --  -10.22290 -10.21776 -10.21739 -10.21723 -10.21690
 Alpha  occ. eigenvalues --  -10.21335 -10.21206 -10.21010 -10.20767 -10.19661
 Alpha  occ. eigenvalues --  -10.18878 -10.17037 -10.15925 -10.12634  -1.20250
 Alpha  occ. eigenvalues --   -1.18061  -1.18010  -1.14716  -1.12757  -1.11202
 Alpha  occ. eigenvalues --   -1.09392  -1.07307  -1.05614  -1.04619  -1.03615
 Alpha  occ. eigenvalues --   -1.02410  -1.02032  -1.01131  -0.98496  -0.95135
 Alpha  occ. eigenvalues --   -0.94930  -0.94703  -0.94676  -0.93714  -0.92605
 Alpha  occ. eigenvalues --   -0.89633  -0.87111  -0.86456  -0.85906  -0.85660
 Alpha  occ. eigenvalues --   -0.84052  -0.83654  -0.81568  -0.80583  -0.79658
 Alpha  occ. eigenvalues --   -0.79029  -0.77747  -0.77243  -0.76620  -0.76251
 Alpha  occ. eigenvalues --   -0.75423  -0.75223  -0.75182  -0.74187  -0.74155
 Alpha  occ. eigenvalues --   -0.73518  -0.72111  -0.71762  -0.71446  -0.70457
 Alpha  occ. eigenvalues --   -0.70037  -0.69692  -0.68016  -0.67538  -0.66767
 Alpha  occ. eigenvalues --   -0.65607  -0.65466  -0.65099  -0.63162  -0.62496
 Alpha  occ. eigenvalues --   -0.62277  -0.62188  -0.61715  -0.61599  -0.61154
 Alpha  occ. eigenvalues --   -0.60713  -0.60101  -0.59870  -0.59271  -0.58835
 Alpha  occ. eigenvalues --   -0.58355  -0.57631  -0.57067  -0.56854  -0.56785
 Alpha  occ. eigenvalues --   -0.56037  -0.55670  -0.55555  -0.55040  -0.54875
 Alpha  occ. eigenvalues --   -0.54047  -0.53577  -0.53211  -0.52827  -0.52730
 Alpha  occ. eigenvalues --   -0.52106  -0.51898  -0.51509  -0.51446  -0.50870
 Alpha  occ. eigenvalues --   -0.50322  -0.50178  -0.50060  -0.49935  -0.49868
 Alpha  occ. eigenvalues --   -0.49775  -0.49171  -0.48613  -0.48341  -0.48130
 Alpha  occ. eigenvalues --   -0.47852  -0.47467  -0.47317  -0.46387  -0.46223
 Alpha  occ. eigenvalues --   -0.46114  -0.45934  -0.45712  -0.45417  -0.45130
 Alpha  occ. eigenvalues --   -0.44762  -0.44590  -0.44277  -0.44054  -0.43816
 Alpha  occ. eigenvalues --   -0.43531  -0.43474  -0.42895  -0.42663  -0.42528
 Alpha  occ. eigenvalues --   -0.42099  -0.41525  -0.41276  -0.41081  -0.40958
 Alpha  occ. eigenvalues --   -0.40916  -0.40501  -0.40002  -0.39771  -0.39225
 Alpha  occ. eigenvalues --   -0.38950  -0.38728  -0.38452  -0.38416  -0.38260
 Alpha  occ. eigenvalues --   -0.37843  -0.37778  -0.37190  -0.36887  -0.36720
 Alpha  occ. eigenvalues --   -0.36538  -0.36301  -0.36192  -0.36137  -0.35937
 Alpha  occ. eigenvalues --   -0.35184  -0.34818  -0.34648  -0.33888  -0.33529
 Alpha  occ. eigenvalues --   -0.31982  -0.31166  -0.31006  -0.30668  -0.30524
 Alpha  occ. eigenvalues --   -0.30443  -0.29229  -0.28427  -0.28144  -0.27918
 Alpha  occ. eigenvalues --   -0.26942  -0.26256  -0.25122  -0.24881  -0.23557
 Alpha  occ. eigenvalues --   -0.16644  -0.15409  -0.14514
 Alpha virt. eigenvalues --   -0.13730  -0.11613  -0.09642  -0.08402  -0.07091
 Alpha virt. eigenvalues --   -0.07040  -0.05851  -0.05743  -0.04653  -0.04211
 Alpha virt. eigenvalues --   -0.03985  -0.02820  -0.02432  -0.01214  -0.01050

 Mulliken charges:
               1
     1  N   -0.708127
     2  H    0.430244
     3  H    0.423230
     4  H    0.429136
     5  C   -0.155727
     6  H    0.215659
     7  C    0.635271
     8  C   -0.471957
     9  H    0.238503
    10  H    0.180271
    11  H    0.218377
    12  O   -0.494315
    13  N   -0.590460
    14  H    0.345070
    15  C   -0.078281
    16  H    0.181360
    17  C    0.632282
    18  C   -0.348244
    19  H    0.149332
    20  H    0.153598
    21  O   -0.540240
    22  C    0.043425
    23  C    0.023517
    24  H    0.156170
    25  C    0.089246
    26  C    0.333103
    27  C   -0.226353
    28  H    0.110053
    29  N   -0.695598
    30  H    0.334928
    31  C   -0.141668
    32  H    0.123167
    33  C   -0.138426
    34  H    0.122904
    35  C   -0.131377
    36  H    0.118849
    37  N   -0.585371
    38  H    0.340199
    39  C   -0.066187
    40  H    0.197899
    41  C    0.625881
    42  C   -0.248976
    43  H    0.146259
    44  H    0.113450
    45  O   -0.539179
    46  C   -0.401326
    47  H    0.124667
    48  H    0.159006
    49  C    0.561205
    50  O   -0.569102
    51  O   -0.603496
    52  N   -0.594970
    53  H    0.354476
    54  C   -0.072758
    55  H    0.168237
    56  C    0.619197
    57  C   -0.080704
    58  H    0.115270
    59  O   -0.521294
    60  C   -0.459071
    61  H    0.173713
    62  H    0.138654
    63  H    0.154494
    64  C   -0.461025
    65  H    0.159080
    66  H    0.139129
    67  H    0.145321
    68  N   -0.574260
    69  H    0.350444
    70  C   -0.079989
    71  H    0.194965
    72  C    0.591320
    73  C    0.121276
    74  H    0.104330
    75  O   -0.538237
    76  C   -0.472093
    77  H    0.227672
    78  H    0.175297
    79  H    0.140660
    80  O   -0.618496
    81  H    0.375682
    82  N   -0.611659
    83  H    0.362917
    84  C   -0.060576
    85  H    0.165864
    86  C    0.615705
    87  C   -0.078996
    88  H    0.121713
    89  O   -0.534135
    90  C   -0.445416
    91  H    0.164924
    92  H    0.160993
    93  H    0.149440
    94  C   -0.459677
    95  H    0.166891
    96  H    0.159561
    97  H    0.146289
    98  N   -0.611717
    99  H    0.354434
   100  C   -0.048989
   101  H    0.216409
   102  C    0.580618
   103  C   -0.282169
   104  H    0.170494
   105  H    0.138960
   106  O   -0.451928
   107  C   -0.269814
   108  H    0.201371
   109  H    0.164371
   110  C   -0.291729
   111  H    0.164969
   112  H    0.171892
   113  C   -0.220093
   114  H    0.219102
   115  H    0.222053
   116  N   -0.658669
   117  H    0.382313
   118  H    0.377832
   119  H    0.381531
   120  O   -0.560716
   121  H    0.427469
 Sum of Mulliken charges =   1.00000

 Dipole moment (field-independent basis, Debye):
    X=              4.4972    Y=             26.6733    Z=             -7.5189  Tot=             28.0753
 Quadrupole moment (field-independent basis, Debye-Ang):
   XX=            108.5806   YY=             35.3653   ZZ=           -176.8625
   XY=            427.0436   XZ=            252.4289   YZ=            100.9427

 Normal termination of Gaussian 16 at Sat Jun 25 09:31:44 2022.
