 Gaussian 16, Revision C.01,
 Gaussian 16:  ES64L-G16RevC.01  3-Jul-2019

 ----------------------------------------------------------------------
 # B3LYP/6-31G* empiricaldispersion=gd3 guess=read geom=check nosymm in
 tegral(ultrafinegrid)
 ----------------------------------------------------------------------

 ------------------------------------------------------
 Candidate Structure: Conf:731 Charge calc in gas phase
 ------------------------------------------------------
 Structure from the checkpoint file:  "conf-731.chk"
 Charge =  1 Multiplicity = 1

                          Input orientation:
 ---------------------------------------------------------------------
 Center     Atomic      Atomic             Coordinates (Angstroms)
 Number     Number       Type             X           Y           Z
 ---------------------------------------------------------------------
      1          7           0       -6.912195   -0.272193   -7.592856
      2          1           0       -7.886353   -0.582645   -7.556674
      3          1           0       -6.676932   -0.047808   -8.563708
      4          1           0       -6.776745    0.587213   -6.963649
      5          6           0       -5.937503   -1.248026   -6.957620
      6          1           0       -6.507192   -2.118892   -6.623922
      7          6           0       -5.413575   -0.443707   -5.731904
      8          6           0       -4.836148   -1.650613   -7.936230
      9          1           0       -4.135098   -2.330761   -7.444964
     10          1           0       -5.249718   -2.172015   -8.805337
     11          1           0       -4.269341   -0.774739   -8.270810
     12          8           0       -5.808371    0.730898   -5.603715
     13          7           0       -4.578138   -1.080613   -4.936065
     14          1           0       -4.249779   -2.042244   -5.097586
     15          6           0       -3.909267   -0.505775   -3.770829
     16          1           0       -3.492833    0.470133   -4.040064
     17          6           0       -2.791224   -1.533505   -3.472215
     18          6           0       -4.897039   -0.334820   -2.580508
     19          1           0       -5.844823    0.006869   -3.010015
     20          1           0       -5.085788   -1.319239   -2.137872
     21          8           0       -2.819737   -2.630450   -4.047932
     22          6           0       -4.472719    0.645156   -1.521263
     23          6           0       -4.646160    2.007412   -1.602102
     24          1           0       -5.041931    2.599583   -2.416493
     25          6           0       -3.954805    0.377876   -0.198380
     26          6           0       -3.867066    1.628954    0.474902
     27          6           0       -3.580454   -0.787732    0.493904
     28          1           0       -3.602795   -1.755828    0.002195
     29          7           0       -4.260499    2.605784   -0.420188
     30          1           0       -4.399776    3.579158   -0.194277
     31          6           0       -3.129740    0.562022    2.476978
     32          1           0       -2.846186    0.600709    3.525718
     33          6           0       -3.468972    1.738806    1.812739
     34          1           0       -3.453640    2.701031    2.318851
     35          6           0       -3.171741   -0.685595    1.817149
     36          1           0       -2.889666   -1.580518    2.360825
     37          7           0       -1.879733   -1.178264   -2.569134
     38          1           0       -1.894775   -0.274496   -2.103980
     39          6           0       -0.859249   -2.103875   -2.074896
     40          1           0       -1.316001   -3.090910   -1.983229
     41          6           0       -0.422317   -1.594132   -0.701164
     42          6           0        0.341661   -2.185038   -3.046040
     43          1           0       -0.042502   -2.499366   -4.022193
     44          1           0        0.768458   -1.179875   -3.159059
     45          8           0       -0.459922   -0.302948   -0.567358
     46          6           0        1.450400   -3.161823   -2.599925
     47          1           0        2.217386   -3.202606   -3.376846
     48          1           0        1.913833   -2.811282   -1.670982
     49          6           0        0.924920   -4.589700   -2.406456
     50          8           0        1.005520   -5.427964   -3.276353
     51          8           0        0.331833   -4.844325   -1.228844
     52          7           0        0.017573   -2.496174    0.120879
     53          1           0        0.297427   -4.025333   -0.641966
     54          6           0        0.484676   -2.110710    1.447219
     55          1           0       -0.120386   -1.260463    1.814032
     56          6           0        1.944729   -1.591522    1.406987
     57          6           0        0.338452   -3.269103    2.464430
     58          1           0        1.200950   -3.932994    2.327082
     59          8           0        2.817628   -1.910507    2.201073
     60          6           0        0.376892   -2.723527    3.900475
     61          1           0       -0.490496   -2.073465    4.088459
     62          1           0        0.334493   -3.543708    4.625530
     63          1           0        1.289182   -2.152252    4.086257
     64          6           0       -0.940584   -4.085552    2.235514
     65          1           0       -1.834650   -3.452717    2.307232
     66          1           0       -0.952886   -4.568026    1.255845
     67          1           0       -1.025991   -4.864364    3.001664
     68          7           0        2.199553   -0.697031    0.390539
     69          1           0        1.392994   -0.310360   -0.098155
     70          6           0        3.426644    0.070126    0.389476
     71          1           0        4.274187   -0.621333    0.443304
     72          6           0        3.467738    1.010676    1.601955
     73          6           0        3.496861    0.833592   -0.960314
     74          1           0        2.627194    1.519063   -0.989462
     75          8           0        2.432210    1.449152    2.130798
     76          6           0        4.770074    1.644149   -1.152113
     77          1           0        4.829074    2.480222   -0.450579
     78          1           0        5.648772    0.996871   -1.040771
     79          1           0        4.782929    2.039503   -2.171802
     80          8           0        3.423946   -0.098556   -2.029360
     81          1           0        2.830911   -0.820181   -1.761789
     82          7           0        4.680954    1.368561    2.057362
     83          1           0        5.494796    1.080825    1.531057
     84          6           0        4.842617    2.433244    3.043201
     85          1           0        4.276014    2.147004    3.937682
     86          6           0        4.263800    3.734100    2.448527
     87          6           0        6.333842    2.606397    3.414181
     88          1           0        6.860858    2.870853    2.485597
     89          8           0        4.463842    4.041791    1.277449
     90          6           0        6.522189    3.754892    4.417263
     91          1           0        5.981315    3.548720    5.350301
     92          1           0        6.170931    4.715908    4.031169
     93          1           0        7.582145    3.859488    4.669246
     94          6           0        6.919273    1.302988    3.979927
     95          1           0        6.404035    1.019222    4.905638
     96          1           0        7.980482    1.436958    4.213724
     97          1           0        6.835997    0.459953    3.286572
     98          7           0        3.536566    4.504094    3.301030
     99          1           0        3.406221    4.201969    4.256018
    100          6           0        2.888272    5.728574    2.861581
    101          1           0        3.411086    6.028705    1.945596
    102          6           0        3.056158    6.874737    3.852810
    103          6           0        1.392667    5.523056    2.524584
    104          1           0        0.996158    6.474826    2.156014
    105          1           0        0.846287    5.290830    3.450137
    106          8           0        2.430568    7.907131    3.789372
    107          6           0        1.200612    4.390570    1.513538
    108          1           0        1.756123    4.613722    0.593669
    109          1           0        1.660141    3.490927    1.926354
    110          6           0       -0.262916    4.094403    1.165568
    111          1           0       -0.873387    4.035112    2.079623
    112          1           0       -0.687791    4.912094    0.569477
    113          6           0       -0.426396    2.793717    0.375642
    114          1           0        0.291431    2.734735   -0.448355
    115          1           0       -1.429921    2.693411   -0.042155
    116          7           0       -0.199883    1.576163    1.218209
    117          1           0       -0.368382    0.703209    0.616795
    118          1           0        0.777757    1.511521    1.584729
    119          1           0       -0.868266    1.541136    1.992530
    120          8           0        3.981670    6.619543    4.807593
    121          1           0        4.025498    7.416467    5.370586
 ---------------------------------------------------------------------

 SCF Done:  E(RB3LYP) =  -2843.82577882     A.U. after    1 cycles

 Alpha  occ. eigenvalues --  -19.27456 -19.27262 -19.21167 -19.21126 -19.21008
 Alpha  occ. eigenvalues --  -19.20380 -19.19071 -19.18973 -19.18355 -19.17523
 Alpha  occ. eigenvalues --  -19.14358 -14.60452 -14.49328 -14.48760 -14.47365
 Alpha  occ. eigenvalues --  -14.44577 -14.44201 -14.43973 -14.41473 -14.36249
 Alpha  occ. eigenvalues --  -10.43910 -10.41617 -10.39461 -10.37968 -10.37352
 Alpha  occ. eigenvalues --  -10.36229 -10.34451 -10.34196 -10.34036 -10.33194
 Alpha  occ. eigenvalues --  -10.32803 -10.32441 -10.31443 -10.31233 -10.31216
 Alpha  occ. eigenvalues --  -10.31082 -10.31013 -10.30293 -10.29641 -10.28960
 Alpha  occ. eigenvalues --  -10.28116 -10.28084 -10.27715 -10.27507 -10.27405
 Alpha  occ. eigenvalues --  -10.27334 -10.27153 -10.27078 -10.26567 -10.26409
 Alpha  occ. eigenvalues --  -10.25703 -10.25033 -10.24178 -10.24157 -10.23725
 Alpha  occ. eigenvalues --  -10.23134 -10.23012 -10.21162 -10.21017  -1.19728
 Alpha  occ. eigenvalues --   -1.17944  -1.14288  -1.13027  -1.12862  -1.10994
 Alpha  occ. eigenvalues --   -1.10175  -1.09507  -1.08929  -1.08204  -1.08003
 Alpha  occ. eigenvalues --   -1.07150  -1.06166  -1.04745  -1.02154  -1.01049
 Alpha  occ. eigenvalues --   -1.00646  -1.00503  -0.98278  -0.94595  -0.93831
 Alpha  occ. eigenvalues --   -0.92674  -0.90223  -0.89029  -0.88032  -0.86676
 Alpha  occ. eigenvalues --   -0.85296  -0.84800  -0.84127  -0.83451  -0.82330
 Alpha  occ. eigenvalues --   -0.81998  -0.80848  -0.79929  -0.78648  -0.78279
 Alpha  occ. eigenvalues --   -0.77287  -0.76561  -0.75185  -0.74693  -0.73682
 Alpha  occ. eigenvalues --   -0.73012  -0.72899  -0.71992  -0.71292  -0.70925
 Alpha  occ. eigenvalues --   -0.69282  -0.69112  -0.68437  -0.68049  -0.67245
 Alpha  occ. eigenvalues --   -0.67140  -0.66944  -0.65997  -0.65928  -0.65402
 Alpha  occ. eigenvalues --   -0.64807  -0.64459  -0.64251  -0.63625  -0.63322
 Alpha  occ. eigenvalues --   -0.62852  -0.62068  -0.61349  -0.60990  -0.60256
 Alpha  occ. eigenvalues --   -0.59812  -0.59095  -0.58486  -0.58048  -0.58011
 Alpha  occ. eigenvalues --   -0.57493  -0.57113  -0.56838  -0.56777  -0.56373
 Alpha  occ. eigenvalues --   -0.55796  -0.55610  -0.55232  -0.55127  -0.54610
 Alpha  occ. eigenvalues --   -0.54530  -0.54219  -0.53755  -0.53401  -0.53052
 Alpha  occ. eigenvalues --   -0.52728  -0.52533  -0.52377  -0.51965  -0.51784
 Alpha  occ. eigenvalues --   -0.51662  -0.51326  -0.51211  -0.51179  -0.50906
 Alpha  occ. eigenvalues --   -0.50521  -0.50059  -0.49808  -0.49474  -0.49028
 Alpha  occ. eigenvalues --   -0.48904  -0.48680  -0.48286  -0.47888  -0.47629
 Alpha  occ. eigenvalues --   -0.47467  -0.47121  -0.46975  -0.46903  -0.46706
 Alpha  occ. eigenvalues --   -0.46458  -0.46008  -0.45699  -0.45516  -0.45350
 Alpha  occ. eigenvalues --   -0.45296  -0.44998  -0.44702  -0.44224  -0.43953
 Alpha  occ. eigenvalues --   -0.43871  -0.43671  -0.42960  -0.42839  -0.42646
 Alpha  occ. eigenvalues --   -0.42566  -0.42283  -0.41954  -0.41940  -0.41880
 Alpha  occ. eigenvalues --   -0.41781  -0.41708  -0.41366  -0.41097  -0.40886
 Alpha  occ. eigenvalues --   -0.40746  -0.40640  -0.40189  -0.39692  -0.39393
 Alpha  occ. eigenvalues --   -0.39008  -0.38157  -0.37713  -0.37372  -0.36852
 Alpha  occ. eigenvalues --   -0.36407  -0.35711  -0.35512  -0.35353  -0.34804
 Alpha  occ. eigenvalues --   -0.34328  -0.33267  -0.32829  -0.32779  -0.32345
 Alpha  occ. eigenvalues --   -0.32209  -0.32052  -0.31828  -0.31336  -0.30806
 Alpha  occ. eigenvalues --   -0.29400  -0.28507  -0.27884
 Alpha virt. eigenvalues --   -0.12680  -0.11614  -0.10319  -0.07054  -0.07049
 Alpha virt. eigenvalues --   -0.06734  -0.06418  -0.06415  -0.05232  -0.04826
 Alpha virt. eigenvalues --   -0.04637  -0.03668  -0.02148  -0.02064  -0.01637

 Mulliken charges:
               1
     1  N   -0.759494
     2  H    0.417469
     3  H    0.414851
     4  H    0.434610
     5  C   -0.105274
     6  H    0.229343
     7  C    0.652851
     8  C   -0.485103
     9  H    0.229214
    10  H    0.196956
    11  H    0.193475
    12  O   -0.554726
    13  N   -0.612387
    14  H    0.382738
    15  C   -0.050643
    16  H    0.186891
    17  C    0.627535
    18  C   -0.356912
    19  H    0.175903
    20  H    0.177616
    21  O   -0.549625
    22  C    0.039705
    23  C    0.005480
    24  H    0.168095
    25  C    0.084193
    26  C    0.312474
    27  C   -0.202942
    28  H    0.151938
    29  N   -0.683257
    30  H    0.340675
    31  C   -0.191660
    32  H    0.148764
    33  C   -0.202656
    34  H    0.141560
    35  C   -0.138968
    36  H    0.165658
    37  N   -0.622197
    38  H    0.361120
    39  C   -0.038925
    40  H    0.198356
    41  C    0.571974
    42  C   -0.282548
    43  H    0.177414
    44  H    0.144694
    45  O   -0.703983
    46  C   -0.385050
    47  H    0.178699
    48  H    0.154877
    49  C    0.581565
    50  O   -0.461819
    51  O   -0.618858
    52  N   -0.546754
    53  H    0.458809
    54  C   -0.075000
    55  H    0.115796
    56  C    0.629657
    57  C   -0.071196
    58  H    0.155194
    59  O   -0.512414
    60  C   -0.461182
    61  H    0.111621
    62  H    0.150095
    63  H    0.172235
    64  C   -0.460495
    65  H    0.126109
    66  H    0.174832
    67  H    0.146709
    68  N   -0.685589
    69  H    0.362909
    70  C   -0.080359
    71  H    0.185101
    72  C    0.682730
    73  C    0.146053
    74  H    0.107040
    75  O   -0.579681
    76  C   -0.501213
    77  H    0.197391
    78  H    0.146127
    79  H    0.173522
    80  O   -0.645209
    81  H    0.427489
    82  N   -0.594765
    83  H    0.351742
    84  C   -0.016881
    85  H    0.160421
    86  C    0.636404
    87  C   -0.121662
    88  H    0.153593
    89  O   -0.531205
    90  C   -0.467626
    91  H    0.142474
    92  H    0.173182
    93  H    0.165509
    94  C   -0.448399
    95  H    0.156736
    96  H    0.165268
    97  H    0.151958
    98  N   -0.595845
    99  H    0.340418
   100  C   -0.066625
   101  H    0.221706
   102  C    0.591058
   103  C   -0.259578
   104  H    0.175383
   105  H    0.134396
   106  O   -0.450923
   107  C   -0.305413
   108  H    0.160875
   109  H    0.186436
   110  C   -0.274997
   111  H    0.137238
   112  H    0.158060
   113  C   -0.184152
   114  H    0.191842
   115  H    0.187817
   116  N   -0.830934
   117  H    0.455210
   118  H    0.435463
   119  H    0.371277
   120  O   -0.568831
   121  H    0.423375
 Sum of Mulliken charges =   1.00000

 Dipole moment (field-independent basis, Debye):
    X=            -22.8099    Y=             13.7462    Z=            -17.2696  Tot=             31.7410
 Quadrupole moment (field-independent basis, Debye-Ang):
   XX=           -137.3523   YY=           -373.5603   ZZ=           -112.2403
   XY=             31.1731   XZ=            215.6219   YZ=             26.3179

 Normal termination of Gaussian 16 at Sat Jun 25 09:15:48 2022.
