 Gaussian 16, Revision C.01,
 Gaussian 16:  ES64L-G16RevC.01  3-Jul-2019

 ----------------------------------------------------------------------
 # B3LYP/6-31G* empiricaldispersion=gd3 guess=read geom=check nosymm in
 tegral(ultrafinegrid)
 ----------------------------------------------------------------------

 ------------------------------------------------------
 Candidate Structure: Conf:102 Charge calc in gas phase
 ------------------------------------------------------
 Structure from the checkpoint file:  "conf-102.chk"
 Charge =  1 Multiplicity = 1

                          Input orientation:
 ---------------------------------------------------------------------
 Center     Atomic      Atomic             Coordinates (Angstroms)
 Number     Number       Type             X           Y           Z
 ---------------------------------------------------------------------
      1          7           0       -1.521470    2.661890   -6.955203
      2          1           0       -1.578613    3.641636   -6.667854
      3          1           0       -1.410769    2.652739   -7.968943
      4          1           0       -0.026525    2.072267   -6.369005
      5          6           0       -2.809426    2.016943   -6.601635
      6          1           0       -3.600323    2.337735   -7.298352
      7          6           0       -3.232566    2.560168   -5.219274
      8          6           0       -2.671671    0.492695   -6.682905
      9          1           0       -3.631476   -0.020538   -6.564871
     10          1           0       -2.276386    0.209093   -7.663745
     11          1           0       -1.984367    0.117054   -5.918125
     12          8           0       -2.811450    3.655030   -4.819113
     13          7           0       -4.075030    1.789827   -4.510117
     14          1           0       -4.364397    0.890372   -4.874778
     15          6           0       -4.585691    2.127679   -3.176034
     16          1           0       -4.659057    3.218588   -3.134471
     17          6           0       -3.514053    1.672391   -2.153755
     18          6           0       -5.981820    1.478117   -2.904341
     19          1           0       -5.923919    0.985696   -1.928930
     20          1           0       -6.720456    2.280360   -2.819692
     21          8           0       -3.642658    0.666383   -1.451172
     22          6           0       -6.443210    0.501324   -3.947718
     23          6           0       -7.495172    0.677057   -4.812776
     24          1           0       -8.204569    1.491450   -4.871221
     25          6           0       -5.825976   -0.756840   -4.308660
     26          6           0       -6.556647   -1.279407   -5.413319
     27          6           0       -4.714478   -1.474549   -3.822400
     28          1           0       -4.160871   -1.103872   -2.965117
     29          7           0       -7.570061   -0.385289   -5.691172
     30          1           0       -8.296535   -0.522193   -6.377252
     31          6           0       -5.101097   -3.162719   -5.542442
     32          1           0       -4.804861   -4.100525   -6.003408
     33          6           0       -6.207036   -2.481246   -6.038266
     34          1           0       -6.778562   -2.868318   -6.877256
     35          6           0       -4.364124   -2.665371   -4.446586
     36          1           0       -3.516109   -3.234919   -4.076650
     37          7           0       -2.379265    2.415101   -2.157674
     38          1           0       -2.339797    3.210595   -2.789118
     39          6           0       -1.122537    1.854180   -1.648196
     40          1           0       -1.212803    0.765022   -1.756386
     41          6           0       -0.915341    2.141506   -0.148859
     42          6           0        0.077741    2.333250   -2.462849
     43          1           0        0.279233    3.386474   -2.245635
     44          1           0        0.957952    1.781167   -2.123179
     45          8           0       -0.020571    2.904787    0.238477
     46          6           0       -0.153651    2.116464   -3.958273
     47          1           0       -0.791495    1.235897   -4.128112
     48          1           0       -0.703642    2.950479   -4.397948
     49          6           0        1.089794    1.885032   -4.781608
     50          8           0        0.932960    1.832064   -6.086412
     51          8           0        2.191593    1.710092   -4.258245
     52          7           0       -1.742442    1.458818    0.664420
     53          1           0       -2.433640    0.853949    0.224763
     54          6           0       -1.644326    1.470143    2.131609
     55          1           0       -1.460013    2.505866    2.440872
     56          6           0       -0.417032    0.586219    2.473032
     57          6           0       -2.938064    0.953620    2.776511
     58          1           0       -3.037697   -0.101830    2.490452
     59          8           0       -0.507302   -0.614518    2.704097
     60          6           0       -2.818232    1.020275    4.305935
     61          1           0       -2.678097    2.055296    4.643748
     62          1           0       -3.731211    0.638786    4.774710
     63          1           0       -1.979419    0.417706    4.665225
     64          6           0       -4.166223    1.735138    2.285841
     65          1           0       -4.067228    2.803516    2.516353
     66          1           0       -4.324707    1.635588    1.206641
     67          1           0       -5.068334    1.368276    2.786770
     68          7           0        0.758942    1.258208    2.374876
     69          1           0        0.748655    2.248687    2.155406
     70          6           0        2.056173    0.623970    2.318620
     71          1           0        2.039827   -0.267149    2.954443
     72          6           0        3.078604    1.657192    2.812554
     73          6           0        2.438944    0.186623    0.869010
     74          1           0        3.447676   -0.244697    0.918452
     75          8           0        2.856092    2.859261    2.712404
     76          6           0        1.475440   -0.845147    0.283547
     77          1           0        1.366038   -1.715958    0.935544
     78          1           0        0.480589   -0.411199    0.148631
     79          1           0        1.845436   -1.169702   -0.695783
     80          8           0        2.569917    1.309663   -0.008312
     81          1           0        1.804473    1.907726    0.112887
     82          7           0        4.229276    1.146820    3.334489
     83          1           0        4.427436    0.162832    3.207024
     84          6           0        5.377835    2.014731    3.577404
     85          1           0        4.958567    3.010380    3.740249
     86          6           0        6.241652    2.018150    2.309009
     87          6           0        6.174118    1.607305    4.842836
     88          1           0        7.065040    2.251828    4.850767
     89          8           0        6.663957    0.974409    1.811529
     90          6           0        5.345252    1.911382    6.099183
     91          1           0        4.416280    1.329883    6.098735
     92          1           0        5.078487    2.972797    6.160581
     93          1           0        5.906283    1.650304    7.002762
     94          6           0        6.644418    0.144726    4.832039
     95          1           0        5.792038   -0.542901    4.910734
     96          1           0        7.285491   -0.045892    5.699139
     97          1           0        7.200806   -0.097091    3.923751
     98          7           0        6.475790    3.246637    1.774386
     99          1           0        6.056266    4.060740    2.201012
    100          6           0        7.308544    3.435837    0.599375
    101          1           0        8.017547    2.600214    0.581690
    102          6           0        8.143460    4.711282    0.668316
    103          6           0        6.521431    3.420805   -0.731650
    104          1           0        7.250427    3.589348   -1.532749
    105          1           0        5.820745    4.266238   -0.751408
    106          8           0        8.907192    5.046632   -0.206542
    107          6           0        5.768445    2.102998   -0.946935
    108          1           0        6.427261    1.267134   -0.684673
    109          1           0        4.907751    2.044351   -0.272845
    110          6           0        5.285139    1.934590   -2.394000
    111          1           0        4.567322    2.718812   -2.664362
    112          1           0        6.144056    2.024414   -3.077303
    113          6           0        4.631589    0.569065   -2.568768
    114          1           0        3.670339    0.526857   -2.050844
    115          1           0        5.280196   -0.232645   -2.204454
    116          7           0        4.362193    0.285899   -4.036129
    117          1           0        4.064170   -0.681933   -4.186413
    118          1           0        3.574021    0.910313   -4.376486
    119          1           0        5.200092    0.446632   -4.602779
    120          8           0        7.923784    5.438631    1.787766
    121          1           0        8.491356    6.230658    1.723913
 ---------------------------------------------------------------------

 SCF Done:  E(RB3LYP) =  -2843.87200310     A.U. after    1 cycles

 Alpha  occ. eigenvalues --  -19.27675 -19.27385 -19.24712 -19.22387 -19.22306
 Alpha  occ. eigenvalues --  -19.21922 -19.21133 -19.20188 -19.18743 -19.18529
 Alpha  occ. eigenvalues --  -19.17513 -14.56288 -14.46373 -14.45529 -14.45332
 Alpha  occ. eigenvalues --  -14.45052 -14.43902 -14.43590 -14.43242 -14.41745
 Alpha  occ. eigenvalues --  -10.42666 -10.39547 -10.39350 -10.38336 -10.36983
 Alpha  occ. eigenvalues --  -10.35895 -10.35652 -10.35226 -10.34727 -10.33896
 Alpha  occ. eigenvalues --  -10.33082 -10.32427 -10.31966 -10.31444 -10.30371
 Alpha  occ. eigenvalues --  -10.29784 -10.29643 -10.29532 -10.29426 -10.29416
 Alpha  occ. eigenvalues --  -10.29305 -10.28489 -10.27909 -10.27506 -10.26716
 Alpha  occ. eigenvalues --  -10.26257 -10.26182 -10.26030 -10.25929 -10.25888
 Alpha  occ. eigenvalues --  -10.25653 -10.25555 -10.25291 -10.25233 -10.24926
 Alpha  occ. eigenvalues --  -10.23231 -10.22973 -10.22881 -10.22585  -1.19658
 Alpha  occ. eigenvalues --   -1.18063  -1.14332  -1.13339  -1.11861  -1.11841
 Alpha  occ. eigenvalues --   -1.11212  -1.10561  -1.10352  -1.09337  -1.09059
 Alpha  occ. eigenvalues --   -1.09013  -1.05447  -1.03096  -1.01885  -1.00904
 Alpha  occ. eigenvalues --   -1.00298  -1.00078  -0.99669  -0.98598  -0.91115
 Alpha  occ. eigenvalues --   -0.90244  -0.89800  -0.88618  -0.87344  -0.86837
 Alpha  occ. eigenvalues --   -0.85962  -0.85518  -0.84317  -0.83784  -0.82203
 Alpha  occ. eigenvalues --   -0.80720  -0.80593  -0.79672  -0.79330  -0.77545
 Alpha  occ. eigenvalues --   -0.75767  -0.75570  -0.74248  -0.74089  -0.73983
 Alpha  occ. eigenvalues --   -0.73957  -0.72457  -0.70756  -0.70491  -0.69562
 Alpha  occ. eigenvalues --   -0.69421  -0.68894  -0.68658  -0.68112  -0.67989
 Alpha  occ. eigenvalues --   -0.67216  -0.66616  -0.66303  -0.66104  -0.65494
 Alpha  occ. eigenvalues --   -0.64395  -0.64123  -0.63934  -0.63701  -0.62957
 Alpha  occ. eigenvalues --   -0.61715  -0.61483  -0.61293  -0.60788  -0.59960
 Alpha  occ. eigenvalues --   -0.59617  -0.59581  -0.59011  -0.58467  -0.58255
 Alpha  occ. eigenvalues --   -0.57306  -0.57125  -0.56722  -0.56415  -0.56165
 Alpha  occ. eigenvalues --   -0.55754  -0.55579  -0.55347  -0.55192  -0.54623
 Alpha  occ. eigenvalues --   -0.54259  -0.54193  -0.53592  -0.53298  -0.53031
 Alpha  occ. eigenvalues --   -0.52929  -0.51930  -0.51689  -0.51394  -0.51224
 Alpha  occ. eigenvalues --   -0.50876  -0.50806  -0.50423  -0.50362  -0.50245
 Alpha  occ. eigenvalues --   -0.49899  -0.49617  -0.49532  -0.49339  -0.49275
 Alpha  occ. eigenvalues --   -0.49172  -0.49025  -0.48661  -0.48600  -0.47907
 Alpha  occ. eigenvalues --   -0.47889  -0.47725  -0.47546  -0.47396  -0.47072
 Alpha  occ. eigenvalues --   -0.47048  -0.46941  -0.46669  -0.46187  -0.46040
 Alpha  occ. eigenvalues --   -0.45683  -0.45388  -0.45289  -0.45138  -0.44739
 Alpha  occ. eigenvalues --   -0.44541  -0.44385  -0.44173  -0.44084  -0.43824
 Alpha  occ. eigenvalues --   -0.43618  -0.43413  -0.43264  -0.42934  -0.42877
 Alpha  occ. eigenvalues --   -0.42474  -0.42208  -0.41711  -0.41521  -0.40634
 Alpha  occ. eigenvalues --   -0.40533  -0.40266  -0.40106  -0.39787  -0.39377
 Alpha  occ. eigenvalues --   -0.39347  -0.39239  -0.39031  -0.38935  -0.38717
 Alpha  occ. eigenvalues --   -0.38329  -0.37797  -0.36860  -0.36145  -0.35672
 Alpha  occ. eigenvalues --   -0.35525  -0.34925  -0.34813  -0.34122  -0.33958
 Alpha  occ. eigenvalues --   -0.33226  -0.32763  -0.32513  -0.31057  -0.30773
 Alpha  occ. eigenvalues --   -0.30178  -0.29729  -0.27794
 Alpha virt. eigenvalues --   -0.10039  -0.09258  -0.08401  -0.08157  -0.07333
 Alpha virt. eigenvalues --   -0.06805  -0.06457  -0.05487  -0.04943  -0.04483
 Alpha virt. eigenvalues --   -0.03619  -0.03060  -0.02626  -0.01531  -0.01232

 Mulliken charges:
               1
     1  N   -0.787936
     2  H    0.356457
     3  H    0.340717
     4  H    0.479455
     5  C   -0.064532
     6  H    0.183652
     7  C    0.634215
     8  C   -0.476540
     9  H    0.189529
    10  H    0.170237
    11  H    0.164614
    12  O   -0.559809
    13  N   -0.615669
    14  H    0.379346
    15  C   -0.055030
    16  H    0.194356
    17  C    0.620318
    18  C   -0.375270
    19  H    0.202137
    20  H    0.162838
    21  O   -0.528924
    22  C    0.041508
    23  C    0.010264
    24  H    0.165155
    25  C    0.005804
    26  C    0.324701
    27  C   -0.231271
    28  H    0.169584
    29  N   -0.684055
    30  H    0.340368
    31  C   -0.151087
    32  H    0.139729
    33  C   -0.165352
    34  H    0.139818
    35  C   -0.144970
    36  H    0.130039
    37  N   -0.601901
    38  H    0.372198
    39  C   -0.077750
    40  H    0.175609
    41  C    0.641950
    42  C   -0.300461
    43  H    0.186854
    44  H    0.181290
    45  O   -0.554081
    46  C   -0.441962
    47  H    0.178620
    48  H    0.211655
    49  C    0.629446
    50  O   -0.594718
    51  O   -0.533858
    52  N   -0.624020
    53  H    0.383283
    54  C   -0.031604
    55  H    0.167316
    56  C    0.625231
    57  C   -0.103482
    58  H    0.158079
    59  O   -0.536604
    60  C   -0.462550
    61  H    0.142960
    62  H    0.156402
    63  H    0.174058
    64  C   -0.458272
    65  H    0.145941
    66  H    0.144891
    67  H    0.158146
    68  N   -0.613887
    69  H    0.374464
    70  C   -0.100868
    71  H    0.181470
    72  C    0.649502
    73  C    0.137245
    74  H    0.137605
    75  O   -0.528263
    76  C   -0.450838
    77  H    0.177751
    78  H    0.155075
    79  H    0.122404
    80  O   -0.662459
    81  H    0.432604
    82  N   -0.606405
    83  H    0.344272
    84  C   -0.076583
    85  H    0.174254
    86  C    0.644062
    87  C   -0.084485
    88  H    0.142037
    89  O   -0.548027
    90  C   -0.447839
    91  H    0.155904
    92  H    0.149062
    93  H    0.157112
    94  C   -0.471874
    95  H    0.133978
    96  H    0.157523
    97  H    0.182826
    98  N   -0.604165
    99  H    0.354613
   100  C   -0.062465
   101  H    0.210338
   102  C    0.594540
   103  C   -0.266230
   104  H    0.168643
   105  H    0.150796
   106  O   -0.452116
   107  C   -0.297844
   108  H    0.165773
   109  H    0.200916
   110  C   -0.281055
   111  H    0.179688
   112  H    0.138854
   113  C   -0.206170
   114  H    0.247643
   115  H    0.192681
   116  N   -0.753557
   117  H    0.397989
   118  H    0.439297
   119  H    0.395059
   120  O   -0.573072
   121  H    0.425162
 Sum of Mulliken charges =   1.00000

 Dipole moment (field-independent basis, Debye):
    X=              2.4227    Y=              5.3538    Z=            -20.7621  Tot=             21.5777
 Quadrupole moment (field-independent basis, Debye-Ang):
   XX=           -205.6601   YY=           -324.5874   ZZ=           -188.1871
   XY=              0.2910   XZ=             52.6782   YZ=             -0.1452

 Normal termination of Gaussian 16 at Sat Jun 25 09:15:50 2022.
