 Gaussian 16, Revision C.01,
 Gaussian 16:  ES64L-G16RevC.01  3-Jul-2019

 -------------------------------------------------------------------
 # B3LYP/6-31G* guess=read geom=check nosymm integral(ultrafinegrid)
 -------------------------------------------------------------------

 ------------------------------------------------------
 Candidate Structure: Conf:731 Charge calc in gas phase
 ------------------------------------------------------
 Structure from the checkpoint file:  "conf-731.chk"
 Charge =  1 Multiplicity = 1

                          Input orientation:
 ---------------------------------------------------------------------
 Center     Atomic      Atomic             Coordinates (Angstroms)
 Number     Number       Type             X           Y           Z
 ---------------------------------------------------------------------
      1          7           0       -7.428419   -1.243998   -6.430396
      2          1           0       -8.154356   -1.516610   -5.735577
      3          1           0       -7.768169   -1.436176   -7.376316
      4          1           0       -7.228711   -0.226619   -6.297009
      5          6           0       -6.102177   -1.905879   -6.118477
      6          1           0       -6.319228   -2.901588   -5.726947
      7          6           0       -5.524827   -0.959027   -5.034374
      8          6           0       -5.227308   -1.962075   -7.368254
      9          1           0       -4.269062   -2.426939   -7.119025
     10          1           0       -5.692678   -2.563554   -8.157063
     11          1           0       -5.025569   -0.955058   -7.747543
     12          8           0       -5.769692    0.247088   -5.161314
     13          7           0       -4.854173   -1.546376   -4.048973
     14          1           0       -4.590695   -2.536399   -4.070688
     15          6           0       -4.313867   -0.893815   -2.861138
     16          1           0       -3.976903    0.112942   -3.122975
     17          6           0       -3.146155   -1.813586   -2.426008
     18          6           0       -5.375694   -0.826089   -1.716763
     19          1           0       -5.564653   -1.852126   -1.378035
     20          1           0       -4.915621   -0.301941   -0.871406
     21          8           0       -3.145519   -2.985560   -2.822572
     22          6           0       -6.662933   -0.159254   -2.108689
     23          6           0       -6.970122    1.171441   -1.970361
     24          1           0       -6.399504    1.963119   -1.503892
     25          6           0       -7.781894   -0.756430   -2.797800
     26          6           0       -8.716723    0.286369   -3.072670
     27          6           0       -8.090083   -2.062203   -3.220721
     28          1           0       -7.425024   -2.889302   -2.986422
     29          7           0       -8.193667    1.444179   -2.548082
     30          1           0       -8.650418    2.343752   -2.542218
     31          6           0      -10.169660   -1.232543   -4.208969
     32          1           0      -11.093902   -1.441592   -4.740060
     33          6           0       -9.905251    0.064337   -3.777226
     34          1           0      -10.604229    0.872347   -3.975105
     35          6           0       -9.272701   -2.291445   -3.927216
     36          1           0       -9.536048   -3.304434   -4.221147
     37          7           0       -2.242023   -1.280817   -1.600962
     38          1           0       -2.291850   -0.317759   -1.274965
     39          6           0       -1.173001   -2.048475   -0.957613
     40          1           0       -1.579501   -3.021305   -0.673036
     41          6           0       -0.767946   -1.266050    0.307101
     42          6           0        0.014574   -2.259939   -1.930622
     43          1           0       -0.381826   -2.763213   -2.819368
     44          1           0        0.392879   -1.278098   -2.240775
     45          8           0       -0.991483    0.007767    0.299514
     46          6           0        1.191823   -3.086276   -1.368304
     47          1           0        1.925063   -3.225917   -2.166953
     48          1           0        1.675897   -2.542539   -0.550569
     49          6           0        0.783837   -4.483901   -0.890938
     50          8           0        0.939340   -5.474373   -1.572183
     51          8           0        0.215893   -4.545833    0.324296
     52          7           0       -0.211124   -1.996596    1.235822
     53          1           0        0.136696   -3.631161    0.741864
     54          6           0        0.241265   -1.354264    2.474813
     55          1           0       -0.480884   -0.581216    2.784224
     56          6           0        1.564358   -0.649910    2.135723
     57          6           0        0.392360   -2.381265    3.612004
     58          1           0        1.190177   -3.073613    3.315151
     59          8           0        2.682323   -1.159585    2.272214
     60          6           0        0.806577   -1.693571    4.921770
     61          1           0        0.037062   -0.983634    5.254625
     62          1           0        0.936021   -2.433781    5.719149
     63          1           0        1.751452   -1.150140    4.818392
     64          6           0       -0.903871   -3.179462    3.807891
     65          1           0       -1.734698   -2.518057    4.089714
     66          1           0       -1.188393   -3.712665    2.897376
     67          1           0       -0.779558   -3.916010    4.609828
     68          7           0        1.392771    0.589357    1.574560
     69          1           0        0.425007    0.755299    1.278005
     70          6           0        2.454560    1.157785    0.743272
     71          1           0        3.029846    0.332964    0.303675
     72          6           0        3.410710    1.953788    1.653778
     73          6           0        1.858309    1.980663   -0.422703
     74          1           0        1.309082    2.835491    0.022777
     75          8           0        3.394323    3.206047    1.768674
     76          6           0        2.951883    2.492151   -1.361953
     77          1           0        3.723063    3.065534   -0.838755
     78          1           0        3.437106    1.638620   -1.845577
     79          1           0        2.505214    3.104591   -2.152573
     80          8           0        0.991705    1.211207   -1.222491
     81          1           0        0.235932    0.848199   -0.698186
     82          7           0        4.253672    1.196491    2.354508
     83          1           0        4.085336    0.187589    2.298079
     84          6           0        5.275014    1.711897    3.262939
     85          1           0        4.784063    2.262157    4.078646
     86          6           0        6.187424    2.679923    2.476867
     87          6           0        6.081676    0.527648    3.864342
     88          1           0        6.502705   -0.022774    3.011680
     89          8           0        6.525754    2.460159    1.321962
     90          6           0        7.245513    1.018167    4.739502
     91          1           0        6.880661    1.603430    5.594351
     92          1           0        7.962833    1.633946    4.190205
     93          1           0        7.786989    0.157569    5.144865
     94          6           0        5.177948   -0.416593    4.676203
     95          1           0        4.723032    0.115106    5.522100
     96          1           0        5.776692   -1.236897    5.086013
     97          1           0        4.374418   -0.866324    4.085929
     98          7           0        6.575842    3.796682    3.164731
     99          1           0        6.328602    3.890991    4.139766
    100          6           0        7.429181    4.807573    2.563356
    101          1           0        7.889185    4.328066    1.690554
    102          6           0        8.572526    5.253132    3.471149
    103          6           0        6.628399    6.041955    2.081451
    104          1           0        7.332651    6.765253    1.658290
    105          1           0        6.164316    6.523116    2.954733
    106          8           0        9.292953    6.191421    3.223019
    107          6           0        5.547586    5.641352    1.073002
    108          1           0        6.018165    5.272337    0.152482
    109          1           0        4.993055    4.797962    1.490525
    110          6           0        4.567034    6.768563    0.725605
    111          1           0        4.187543    7.250870    1.639416
    112          1           0        5.068537    7.561657    0.157247
    113          6           0        3.384787    6.294352   -0.119364
    114          1           0        3.713346    5.702316   -0.977415
    115          1           0        2.784892    7.133141   -0.482867
    116          7           0        2.444733    5.402687    0.668303
    117          1           0        1.622012    5.159804    0.108622
    118          1           0        2.864718    4.461730    1.007683
    119          1           0        2.108459    5.886568    1.507009
    120          8           0        8.698801    4.493658    4.584039
    121          1           0        9.462655    4.852643    5.076125
 ---------------------------------------------------------------------

 SCF Done:  E(RB3LYP) =  -2843.63838980     A.U. after    2 cycles

 Alpha  occ. eigenvalues --  -19.27292 -19.23657 -19.22169 -19.21110 -19.19413
 Alpha  occ. eigenvalues --  -19.18778 -19.18516 -19.17820 -19.17149 -19.15750
 Alpha  occ. eigenvalues --  -19.12552 -14.57468 -14.55616 -14.47259 -14.46844
 Alpha  occ. eigenvalues --  -14.43711 -14.43632 -14.42222 -14.40956 -14.34320
 Alpha  occ. eigenvalues --  -10.40884 -10.39489 -10.38522 -10.37766 -10.36351
 Alpha  occ. eigenvalues --  -10.35924 -10.35898 -10.33848 -10.32587 -10.31917
 Alpha  occ. eigenvalues --  -10.31652 -10.31530 -10.31519 -10.31338 -10.30976
 Alpha  occ. eigenvalues --  -10.30803 -10.30690 -10.30163 -10.30120 -10.28870
 Alpha  occ. eigenvalues --  -10.28777 -10.28604 -10.28471 -10.28416 -10.28128
 Alpha  occ. eigenvalues --  -10.27293 -10.27110 -10.26997 -10.26995 -10.26414
 Alpha  occ. eigenvalues --  -10.25648 -10.25179 -10.23649 -10.23008 -10.22886
 Alpha  occ. eigenvalues --  -10.21849 -10.21629 -10.20684 -10.19744  -1.17996
 Alpha  occ. eigenvalues --   -1.16243  -1.12985  -1.11495  -1.10678  -1.10635
 Alpha  occ. eigenvalues --   -1.10214  -1.09216  -1.08922  -1.08310  -1.07575
 Alpha  occ. eigenvalues --   -1.07242  -1.05152  -1.03437  -1.00720  -1.00271
 Alpha  occ. eigenvalues --   -1.00153  -0.98540  -0.97670  -0.93786  -0.92407
 Alpha  occ. eigenvalues --   -0.91084  -0.90744  -0.89339  -0.87825  -0.85838
 Alpha  occ. eigenvalues --   -0.85691  -0.84676  -0.83539  -0.83234  -0.82041
 Alpha  occ. eigenvalues --   -0.81343  -0.81200  -0.79370  -0.79005  -0.76874
 Alpha  occ. eigenvalues --   -0.76282  -0.74937  -0.74669  -0.74308  -0.72345
 Alpha  occ. eigenvalues --   -0.71928  -0.71541  -0.71083  -0.70445  -0.70066
 Alpha  occ. eigenvalues --   -0.69693  -0.69209  -0.68727  -0.68478  -0.67712
 Alpha  occ. eigenvalues --   -0.67195  -0.67008  -0.66687  -0.65725  -0.64977
 Alpha  occ. eigenvalues --   -0.64633  -0.63840  -0.63580  -0.63063  -0.62890
 Alpha  occ. eigenvalues --   -0.61129  -0.60887  -0.60619  -0.60224  -0.59948
 Alpha  occ. eigenvalues --   -0.59670  -0.59055  -0.58301  -0.57798  -0.57354
 Alpha  occ. eigenvalues --   -0.57052  -0.56867  -0.56525  -0.56186  -0.55727
 Alpha  occ. eigenvalues --   -0.55663  -0.55176  -0.54994  -0.54027  -0.53807
 Alpha  occ. eigenvalues --   -0.53482  -0.53312  -0.53156  -0.52975  -0.52705
 Alpha  occ. eigenvalues --   -0.52612  -0.52235  -0.51449  -0.51375  -0.51144
 Alpha  occ. eigenvalues --   -0.50906  -0.50275  -0.50243  -0.50177  -0.50102
 Alpha  occ. eigenvalues --   -0.49942  -0.49614  -0.49438  -0.49217  -0.48929
 Alpha  occ. eigenvalues --   -0.48554  -0.48319  -0.48023  -0.47631  -0.47371
 Alpha  occ. eigenvalues --   -0.47202  -0.47099  -0.46971  -0.46161  -0.45965
 Alpha  occ. eigenvalues --   -0.45761  -0.45548  -0.45500  -0.45074  -0.44990
 Alpha  occ. eigenvalues --   -0.44760  -0.44364  -0.44284  -0.43960  -0.43803
 Alpha  occ. eigenvalues --   -0.43667  -0.43429  -0.43363  -0.43008  -0.42813
 Alpha  occ. eigenvalues --   -0.42770  -0.42456  -0.42195  -0.42083  -0.41686
 Alpha  occ. eigenvalues --   -0.40809  -0.40461  -0.40015  -0.39760  -0.39684
 Alpha  occ. eigenvalues --   -0.39368  -0.38964  -0.38660  -0.38342  -0.38131
 Alpha  occ. eigenvalues --   -0.37358  -0.36991  -0.36613  -0.36462  -0.36439
 Alpha  occ. eigenvalues --   -0.35988  -0.35601  -0.35565  -0.34705  -0.33166
 Alpha  occ. eigenvalues --   -0.33080  -0.32578  -0.32386  -0.32295  -0.32064
 Alpha  occ. eigenvalues --   -0.31682  -0.31481  -0.30329  -0.29813  -0.29476
 Alpha  occ. eigenvalues --   -0.28940  -0.26978  -0.26092
 Alpha virt. eigenvalues --   -0.11105  -0.10255  -0.08268  -0.08244  -0.07260
 Alpha virt. eigenvalues --   -0.07145  -0.06410  -0.05127  -0.04863  -0.03955
 Alpha virt. eigenvalues --   -0.03042  -0.02769  -0.01773  -0.01482  -0.00898

 Mulliken charges:
               1
     1  N   -0.755836
     2  H    0.418933
     3  H    0.400157
     4  H    0.418088
     5  C   -0.108074
     6  H    0.205949
     7  C    0.664674
     8  C   -0.473515
     9  H    0.217218
    10  H    0.181923
    11  H    0.195114
    12  O   -0.545921
    13  N   -0.606831
    14  H    0.369997
    15  C   -0.057784
    16  H    0.181212
    17  C    0.638237
    18  C   -0.364055
    19  H    0.177393
    20  H    0.174648
    21  O   -0.547860
    22  C    0.091094
    23  C    0.025041
    24  H    0.168685
    25  C    0.071967
    26  C    0.325785
    27  C   -0.236965
    28  H    0.151465
    29  N   -0.684291
    30  H    0.343503
    31  C   -0.173851
    32  H    0.152940
    33  C   -0.165053
    34  H    0.151164
    35  C   -0.217506
    36  H    0.151354
    37  N   -0.617714
    38  H    0.346160
    39  C   -0.049246
    40  H    0.194767
    41  C    0.571706
    42  C   -0.280405
    43  H    0.170672
    44  H    0.153445
    45  O   -0.677020
    46  C   -0.371316
    47  H    0.163316
    48  H    0.162021
    49  C    0.577361
    50  O   -0.469274
    51  O   -0.621106
    52  N   -0.563403
    53  H    0.459911
    54  C   -0.039615
    55  H    0.129383
    56  C    0.619566
    57  C   -0.076457
    58  H    0.154989
    59  O   -0.555278
    60  C   -0.463451
    61  H    0.130263
    62  H    0.149983
    63  H    0.146903
    64  C   -0.450281
    65  H    0.125097
    66  H    0.172311
    67  H    0.143053
    68  N   -0.633537
    69  H    0.364298
    70  C   -0.073874
    71  H    0.190167
    72  C    0.683367
    73  C    0.137626
    74  H    0.059569
    75  O   -0.626696
    76  C   -0.478952
    77  H    0.144372
    78  H    0.189299
    79  H    0.149368
    80  O   -0.669219
    81  H    0.432545
    82  N   -0.612474
    83  H    0.399587
    84  C   -0.008001
    85  H    0.145135
    86  C    0.630663
    87  C   -0.115795
    88  H    0.164517
    89  O   -0.527279
    90  C   -0.467819
    91  H    0.137339
    92  H    0.168980
    93  H    0.166227
    94  C   -0.481367
    95  H    0.142954
    96  H    0.164068
    97  H    0.195061
    98  N   -0.607569
    99  H    0.338557
   100  C   -0.064356
   101  H    0.222909
   102  C    0.591660
   103  C   -0.261320
   104  H    0.183056
   105  H    0.134318
   106  O   -0.449328
   107  C   -0.304231
   108  H    0.165275
   109  H    0.187445
   110  C   -0.283664
   111  H    0.148046
   112  H    0.185071
   113  C   -0.190030
   114  H    0.214905
   115  H    0.194677
   116  N   -0.781853
   117  H    0.402116
   118  H    0.481132
   119  H    0.392589
   120  O   -0.569418
   121  H    0.424541
 Sum of Mulliken charges =   1.00000

 Dipole moment (field-independent basis, Debye):
    X=            -18.1041    Y=             22.5453    Z=            -13.3946  Tot=             31.8663
 Quadrupole moment (field-independent basis, Debye-Ang):
   XX=            -90.1643   YY=           -286.1680   ZZ=           -181.4445
   XY=             69.0699   XZ=            199.2693   YZ=             44.8223

 Normal termination of Gaussian 16 at Thu Jun 30 12:47:01 2022.
