 Gaussian 16, Revision C.01,
 Gaussian 16:  ES64L-G16RevC.01  3-Jul-2019

 ----------------------------------------------------------------------
 # B3LYP/6-31G* empiricaldispersion=gd3 guess=read geom=check nosymm in
 tegral(ultrafinegrid)
 ----------------------------------------------------------------------

 ------------------------------------------------------
 Candidate Structure: Conf:234 Charge calc in gas phase
 ------------------------------------------------------
 Structure from the checkpoint file:  "conf-234.chk"
 Charge =  1 Multiplicity = 1

                          Input orientation:
 ---------------------------------------------------------------------
 Center     Atomic      Atomic             Coordinates (Angstroms)
 Number     Number       Type             X           Y           Z
 ---------------------------------------------------------------------
      1          7           0       -7.146477   -3.062646   -4.935815
      2          1           0       -7.472814   -3.100000   -3.944284
      3          1           0       -7.700481   -3.695734   -5.518063
      4          1           0       -7.255470   -2.069019   -5.232262
      5          6           0       -5.660051   -3.314446   -5.011691
      6          1           0       -5.421113   -4.067677   -4.257298
      7          6           0       -5.058533   -1.937675   -4.636857
      8          6           0       -5.257633   -3.759623   -6.415785
      9          1           0       -4.174255   -3.902855   -6.453217
     10          1           0       -5.732002   -4.709086   -6.686534
     11          1           0       -5.522178   -2.997179   -7.156108
     12          8           0       -5.749523   -0.928728   -4.814137
     13          7           0       -3.819393   -1.965562   -4.151935
     14          1           0       -3.354245   -2.848500   -3.942602
     15          6           0       -3.191809   -0.846032   -3.460484
     16          1           0       -3.170053    0.030733   -4.114283
     17          6           0       -1.777527   -1.328909   -3.121892
     18          6           0       -3.951773   -0.494688   -2.126627
     19          1           0       -3.287224    0.111624   -1.502507
     20          1           0       -4.815136    0.120786   -2.393769
     21          8           0       -1.535224   -2.533945   -3.048281
     22          6           0       -4.400948   -1.724016   -1.391147
     23          6           0       -3.618597   -2.581754   -0.654038
     24          1           0       -2.582247   -2.490450   -0.370829
     25          6           0       -5.710836   -2.324576   -1.450452
     26          6           0       -5.642460   -3.565447   -0.748806
     27          6           0       -6.946768   -1.924847   -1.990588
     28          1           0       -7.041967   -0.963116   -2.486307
     29          7           0       -4.355510   -3.686358   -0.277740
     30          1           0       -4.006232   -4.439124    0.296874
     31          6           0       -7.940686   -4.022699   -1.210373
     32          1           0       -8.816572   -4.658147   -1.120918
     33          6           0       -6.741142   -4.425306   -0.634582
     34          1           0       -6.664364   -5.369179   -0.102409
     35          6           0       -8.049388   -2.775799   -1.871456
     36          1           0       -9.024108   -2.446422   -2.226466
     37          7           0       -0.861126   -0.368167   -2.840428
     38          1           0       -1.208768    0.575513   -2.713520
     39          6           0        0.282867   -0.724065   -1.999433
     40          1           0        0.779902   -1.581443   -2.462296
     41          6           0       -0.266484   -1.090320   -0.605414
     42          6           0        1.246683    0.470544   -1.883594
     43          1           0        1.452196    0.861714   -2.884461
     44          1           0        0.741060    1.264759   -1.320568
     45          8           0       -1.181775   -0.428137   -0.114393
     46          6           0        2.572325    0.101834   -1.196838
     47          1           0        2.426662   -0.437368   -0.259445
     48          1           0        3.153388   -0.554571   -1.858847
     49          6           0        3.437595    1.312105   -0.873569
     50          8           0        3.973029    1.460749    0.217594
     51          8           0        3.543147    2.160944   -1.882725
     52          7           0        0.303878   -2.149315    0.024460
     53          1           0        1.143650   -2.547485   -0.381746
     54          6           0        0.187736   -2.316636    1.481896
     55          1           0       -0.775252   -1.885410    1.767929
     56          6           0        1.355203   -1.481700    2.029362
     57          6           0        0.248826   -3.792557    1.896531
     58          1           0        1.209952   -4.190328    1.543658
     59          8           0        2.518752   -1.844717    1.808653
     60          6           0        0.212358   -3.909795    3.426816
     61          1           0       -0.716348   -3.486159    3.830762
     62          1           0        0.260351   -4.959834    3.732577
     63          1           0        1.055232   -3.389875    3.893722
     64          6           0       -0.896592   -4.584125    1.249287
     65          1           0       -1.864813   -4.216604    1.619952
     66          1           0       -0.887764   -4.491486    0.157783
     67          1           0       -0.824068   -5.646369    1.505115
     68          7           0        1.032009   -0.300942    2.583280
     69          1           0        0.070349   -0.069341    2.805922
     70          6           0        1.998655    0.778099    2.773394
     71          1           0        2.703256    0.754324    1.934375
     72          6           0        2.810245    0.606397    4.069745
     73          6           0        1.241911    2.120080    2.782182
     74          1           0        1.973194    2.897378    3.040081
     75          8           0        2.663697    1.370166    5.036806
     76          6           0        0.613209    2.450936    1.434932
     77          1           0        1.395623    2.569735    0.678516
     78          1           0       -0.080384    1.668315    1.107824
     79          1           0        0.056418    3.388632    1.516786
     80          8           0        0.202573    2.068549    3.756141
     81          1           0        0.667569    2.011627    4.612667
     82          7           0        3.717741   -0.387667    4.028248
     83          1           0        3.775494   -0.928892    3.167102
     84          6           0        4.772146   -0.555918    5.036242
     85          1           0        4.352397   -0.238875    5.996870
     86          6           0        5.887684    0.418385    4.580965
     87          6           0        5.251812   -2.010910    5.117817
     88          1           0        5.755226   -2.236145    4.168710
     89          8           0        6.843750    0.048491    3.914349
     90          6           0        6.283441   -2.154235    6.245467
     91          1           0        5.836101   -1.915461    7.219172
     92          1           0        7.139837   -1.493596    6.083237
     93          1           0        6.655929   -3.183040    6.293591
     94          6           0        4.075874   -2.979438    5.307341
     95          1           0        3.507393   -2.736568    6.214306
     96          1           0        4.444165   -4.006235    5.408465
     97          1           0        3.386428   -2.952873    4.456715
     98          7           0        5.621079    1.731346    4.875237
     99          1           0        4.711842    1.918177    5.290877
    100          6           0        6.147590    2.786563    4.011303
    101          1           0        6.994707    2.337444    3.480647
    102          6           0        6.695106    3.940866    4.848587
    103          6           0        5.071747    3.257141    3.019810
    104          1           0        4.324514    3.844503    3.568433
    105          1           0        4.573571    2.364628    2.626742
    106          8           0        6.332370    5.095048    4.763909
    107          6           0        5.598552    4.063430    1.829256
    108          1           0        6.227915    4.890132    2.177636
    109          1           0        6.234060    3.396970    1.229318
    110          6           0        4.442490    4.619092    0.982945
    111          1           0        3.702839    3.828561    0.815886
    112          1           0        3.944654    5.418370    1.546691
    113          6           0        4.870148    5.180797   -0.374367
    114          1           0        5.668392    5.925952   -0.238348
    115          1           0        4.025401    5.690982   -0.850319
    116          7           0        5.294702    4.097112   -1.297598
    117          1           0        5.647147    4.498160   -2.166849
    118          1           0        6.073682    3.582504   -0.886683
    119          1           0        4.181875    2.939743   -1.622885
    120          8           0        7.655566    3.528768    5.701194
    121          1           0        7.949478    4.319397    6.192074
 ---------------------------------------------------------------------

 SCF Done:  E(RB3LYP) =  -2843.86477302     A.U. after    1 cycles

 Alpha  occ. eigenvalues --  -19.25746 -19.23716 -19.23070 -19.22425 -19.21251
 Alpha  occ. eigenvalues --  -19.19691 -19.19569 -19.18853 -19.18427 -19.18389
 Alpha  occ. eigenvalues --  -19.16149 -14.58714 -14.48711 -14.47961 -14.46415
 Alpha  occ. eigenvalues --  -14.45726 -14.44070 -14.41834 -14.40974 -14.39943
 Alpha  occ. eigenvalues --  -10.42736 -10.40105 -10.39643 -10.38117 -10.37321
 Alpha  occ. eigenvalues --  -10.36640 -10.36245 -10.35004 -10.34899 -10.33132
 Alpha  occ. eigenvalues --  -10.33010 -10.32957 -10.32353 -10.31551 -10.31317
 Alpha  occ. eigenvalues --  -10.29712 -10.29583 -10.29513 -10.29422 -10.29241
 Alpha  occ. eigenvalues --  -10.29110 -10.28978 -10.28908 -10.28035 -10.28007
 Alpha  occ. eigenvalues --  -10.27953 -10.27881 -10.27596 -10.27566 -10.26764
 Alpha  occ. eigenvalues --  -10.26052 -10.24905 -10.23745 -10.23375 -10.23329
 Alpha  occ. eigenvalues --  -10.23068 -10.23042 -10.22037 -10.21239  -1.18214
 Alpha  occ. eigenvalues --   -1.15107  -1.14769  -1.14329  -1.13173  -1.12941
 Alpha  occ. eigenvalues --   -1.11535  -1.10011  -1.07938  -1.07928  -1.07051
 Alpha  occ. eigenvalues --   -1.05776  -1.05680  -1.05518  -1.03063  -1.01921
 Alpha  occ. eigenvalues --   -1.00157  -0.98456  -0.96783  -0.96442  -0.94500
 Alpha  occ. eigenvalues --   -0.92852  -0.90505  -0.89531  -0.88235  -0.86461
 Alpha  occ. eigenvalues --   -0.85722  -0.84738  -0.84144  -0.83686  -0.82421
 Alpha  occ. eigenvalues --   -0.81467  -0.80666  -0.80365  -0.79277  -0.77582
 Alpha  occ. eigenvalues --   -0.77005  -0.76368  -0.75578  -0.73823  -0.73139
 Alpha  occ. eigenvalues --   -0.72594  -0.72577  -0.71689  -0.71447  -0.71362
 Alpha  occ. eigenvalues --   -0.69383  -0.69200  -0.68850  -0.68461  -0.67149
 Alpha  occ. eigenvalues --   -0.66508  -0.66058  -0.65632  -0.65377  -0.65000
 Alpha  occ. eigenvalues --   -0.64616  -0.63911  -0.63693  -0.62853  -0.62627
 Alpha  occ. eigenvalues --   -0.62345  -0.62034  -0.61613  -0.59908  -0.59485
 Alpha  occ. eigenvalues --   -0.59116  -0.58437  -0.58285  -0.57795  -0.57513
 Alpha  occ. eigenvalues --   -0.57326  -0.57221  -0.56713  -0.56371  -0.56054
 Alpha  occ. eigenvalues --   -0.55709  -0.55143  -0.54605  -0.54426  -0.54340
 Alpha  occ. eigenvalues --   -0.53842  -0.53741  -0.53360  -0.53261  -0.52916
 Alpha  occ. eigenvalues --   -0.52649  -0.52418  -0.52187  -0.52088  -0.51960
 Alpha  occ. eigenvalues --   -0.51902  -0.51494  -0.51214  -0.51060  -0.50977
 Alpha  occ. eigenvalues --   -0.50432  -0.50391  -0.49875  -0.49426  -0.48896
 Alpha  occ. eigenvalues --   -0.48712  -0.48512  -0.48330  -0.48207  -0.47950
 Alpha  occ. eigenvalues --   -0.47788  -0.47478  -0.47138  -0.47018  -0.46611
 Alpha  occ. eigenvalues --   -0.46514  -0.46415  -0.46156  -0.45708  -0.45479
 Alpha  occ. eigenvalues --   -0.45467  -0.45188  -0.44727  -0.44434  -0.44077
 Alpha  occ. eigenvalues --   -0.43952  -0.43914  -0.43643  -0.43607  -0.43327
 Alpha  occ. eigenvalues --   -0.42875  -0.42638  -0.42543  -0.42307  -0.42018
 Alpha  occ. eigenvalues --   -0.41886  -0.41681  -0.41153  -0.41035  -0.40818
 Alpha  occ. eigenvalues --   -0.40211  -0.39115  -0.38817  -0.38658  -0.38521
 Alpha  occ. eigenvalues --   -0.38223  -0.38107  -0.38032  -0.37839  -0.37309
 Alpha  occ. eigenvalues --   -0.37135  -0.36846  -0.36279  -0.36033  -0.35802
 Alpha  occ. eigenvalues --   -0.35045  -0.34659  -0.33704  -0.33043  -0.32963
 Alpha  occ. eigenvalues --   -0.32855  -0.32834  -0.32405  -0.31860  -0.30651
 Alpha  occ. eigenvalues --   -0.30355  -0.29594  -0.28618
 Alpha virt. eigenvalues --   -0.12096  -0.11618  -0.09628  -0.09322  -0.08221
 Alpha virt. eigenvalues --   -0.08181  -0.05764  -0.05125  -0.04615  -0.04291
 Alpha virt. eigenvalues --   -0.03822  -0.03348  -0.02844  -0.02297  -0.01679

 Mulliken charges:
               1
     1  N   -0.750846
     2  H    0.408333
     3  H    0.403110
     4  H    0.416388
     5  C   -0.120256
     6  H    0.217640
     7  C    0.671848
     8  C   -0.470668
     9  H    0.212468
    10  H    0.187209
    11  H    0.196665
    12  O   -0.542108
    13  N   -0.609575
    14  H    0.368660
    15  C   -0.045005
    16  H    0.191213
    17  C    0.634738
    18  C   -0.397164
    19  H    0.205581
    20  H    0.184016
    21  O   -0.540136
    22  C    0.045424
    23  C    0.034643
    24  H    0.201221
    25  C    0.074687
    26  C    0.314964
    27  C   -0.257257
    28  H    0.165700
    29  N   -0.694129
    30  H    0.348343
    31  C   -0.148543
    32  H    0.153758
    33  C   -0.161197
    34  H    0.153621
    35  C   -0.225222
    36  H    0.152360
    37  N   -0.592868
    38  H    0.346161
    39  C   -0.053525
    40  H    0.178314
    41  C    0.639684
    42  C   -0.304405
    43  H    0.186990
    44  H    0.170442
    45  O   -0.551494
    46  C   -0.385538
    47  H    0.191238
    48  H    0.176118
    49  C    0.596394
    50  O   -0.496924
    51  O   -0.610498
    52  N   -0.596795
    53  H    0.348660
    54  C   -0.045483
    55  H    0.169592
    56  C    0.640012
    57  C   -0.088864
    58  H    0.156587
    59  O   -0.569775
    60  C   -0.474047
    61  H    0.145019
    62  H    0.163504
    63  H    0.181615
    64  C   -0.468121
    65  H    0.127871
    66  H    0.160858
    67  H    0.163239
    68  N   -0.592164
    69  H    0.357930
    70  C   -0.112415
    71  H    0.227593
    72  C    0.637353
    73  C    0.104728
    74  H    0.153928
    75  O   -0.569064
    76  C   -0.490141
    77  H    0.153956
    78  H    0.163080
    79  H    0.168831
    80  O   -0.649451
    81  H    0.418628
    82  N   -0.616070
    83  H    0.383293
    84  C   -0.051338
    85  H    0.171756
    86  C    0.618659
    87  C   -0.092770
    88  H    0.156223
    89  O   -0.513029
    90  C   -0.460812
    91  H    0.140092
    92  H    0.176934
    93  H    0.150445
    94  C   -0.463167
    95  H    0.142604
    96  H    0.150446
    97  H    0.152999
    98  N   -0.608097
    99  H    0.360784
   100  C   -0.059738
   101  H    0.203603
   102  C    0.586903
   103  C   -0.287792
   104  H    0.154816
   105  H    0.167257
   106  O   -0.466524
   107  C   -0.266940
   108  H    0.161571
   109  H    0.128768
   110  C   -0.277087
   111  H    0.163675
   112  H    0.150158
   113  C   -0.144634
   114  H    0.148216
   115  H    0.154252
   116  N   -0.780893
   117  H    0.331192
   118  H    0.340108
   119  H    0.474510
   120  O   -0.551703
   121  H    0.414091
 Sum of Mulliken charges =   1.00000

 Dipole moment (field-independent basis, Debye):
    X=            -19.8947    Y=            -12.7759    Z=            -17.3566  Tot=             29.3304
 Quadrupole moment (field-independent basis, Debye-Ang):
   XX=           -175.2073   YY=           -264.3455   ZZ=           -249.0000
   XY=            116.3031   XZ=            100.1640   YZ=             37.5414

 Normal termination of Gaussian 16 at Sat Jun 25 09:15:46 2022.
