 Gaussian 16, Revision C.01,
 Gaussian 16:  ES64L-G16RevC.01  3-Jul-2019

 -------------------------------------------------------------------
 # B3LYP/6-31G* guess=read geom=check nosymm integral(ultrafinegrid)
 -------------------------------------------------------------------

 ------------------------------------------------------
 Candidate Structure: Conf:234 Charge calc in gas phase
 ------------------------------------------------------
 Structure from the checkpoint file:  "conf-234.chk"
 Charge =  1 Multiplicity = 1

                          Input orientation:
 ---------------------------------------------------------------------
 Center     Atomic      Atomic             Coordinates (Angstroms)
 Number     Number       Type             X           Y           Z
 ---------------------------------------------------------------------
      1          7           0       -5.985717   -7.496636   -5.163927
      2          1           0       -6.575618   -7.769811   -4.374362
      3          1           0       -5.907001   -8.274966   -5.817831
      4          1           0       -6.445276   -6.690036   -5.613492
      5          6           0       -4.662258   -6.991151   -4.712764
      6          1           0       -4.298686   -7.608778   -3.887490
      7          6           0       -4.918874   -5.559543   -4.227832
      8          6           0       -3.653807   -7.001712   -5.855164
      9          1           0       -2.689286   -6.617120   -5.518504
     10          1           0       -3.505036   -8.015542   -6.238618
     11          1           0       -4.004577   -6.367948   -6.675169
     12          8           0       -5.877902   -4.938588   -4.676957
     13          7           0       -4.029326   -5.066937   -3.343497
     14          1           0       -3.177627   -5.568754   -3.129830
     15          6           0       -4.086125   -3.712415   -2.830560
     16          1           0       -4.770780   -3.146733   -3.465918
     17          6           0       -2.675320   -3.140281   -2.880428
     18          6           0       -4.578873   -3.681592   -1.361612
     19          1           0       -4.008273   -4.432045   -0.805204
     20          1           0       -4.332548   -2.704163   -0.931813
     21          8           0       -1.701488   -3.854670   -2.676780
     22          6           0       -6.047045   -3.957700   -1.239335
     23          6           0       -6.640726   -5.185461   -1.121512
     24          1           0       -6.174709   -6.159319   -1.085644
     25          6           0       -7.117863   -2.991451   -1.274570
     26          6           0       -8.330393   -3.702843   -1.179509
     27          6           0       -7.143149   -1.592809   -1.374136
     28          1           0       -6.219977   -1.022531   -1.440871
     29          7           0       -8.012536   -5.042711   -1.093620
     30          1           0       -8.673031   -5.792275   -0.995126
     31          6           0       -9.573400   -1.680828   -1.287564
     32          1           0      -10.518147   -1.148721   -1.294247
     33          6           0       -9.573707   -3.064611   -1.185566
     34          1           0      -10.497716   -3.628954   -1.111678
     35          6           0       -8.371759   -0.951664   -1.380155
     36          1           0       -8.412699    0.129413   -1.454806
     37          7           0       -2.589787   -1.799528   -3.109276
     38          1           0       -3.446650   -1.283133   -2.982268
     39          6           0       -1.400817   -1.074978   -2.659416
     40          1           0       -0.527773   -1.594406   -3.058261
     41          6           0       -1.369944   -1.087570   -1.131426
     42          6           0       -1.429934    0.376245   -3.158076
     43          1           0       -1.543223    0.372822   -4.245569
     44          1           0       -2.301872    0.881102   -2.732418
     45          8           0       -2.379790   -0.836367   -0.475647
     46          6           0       -0.170687    1.171349   -2.798575
     47          1           0       -0.053560    1.231474   -1.712783
     48          1           0        0.715022    0.708828   -3.245056
     49          6           0       -0.359533    2.610514   -3.359199
     50          8           0        0.053288    2.794234   -4.520481
     51          8           0       -0.931342    3.401157   -2.582442
     52          7           0       -0.165637   -1.352636   -0.575417
     53          1           0        0.637014   -1.523073   -1.163567
     54          6           0        0.068444   -1.170153    0.849485
     55          1           0       -0.795445   -0.625735    1.236189
     56          6           0        1.332344   -0.328326    0.937014
     57          6           0        0.215463   -2.496059    1.617614
     58          1           0        1.156649   -2.948940    1.280690
     59          8           0        2.391128   -0.737964    0.438954
     60          6           0        0.294312   -2.239150    3.122977
     61          1           0       -0.663710   -1.849612    3.481325
     62          1           0        0.506672   -3.168112    3.661369
     63          1           0        1.075142   -1.520470    3.386098
     64          6           0       -0.940402   -3.446405    1.293442
     65          1           0       -1.897536   -2.945682    1.470623
     66          1           0       -0.916721   -3.771850    0.251666
     67          1           0       -0.891684   -4.332545    1.930981
     68          7           0        1.237580    0.874836    1.530820
     69          1           0        0.398178    1.173904    2.007392
     70          6           0        2.373497    1.779946    1.594157
     71          1           0        2.929963    1.649601    0.663685
     72          6           0        3.277219    1.401969    2.772735
     73          6           0        1.868402    3.222824    1.721878
     74          1           0        2.734228    3.859450    1.937670
     75          8           0        3.308463    2.074517    3.812327
     76          6           0        1.173094    3.717141    0.468292
     77          1           0        1.859990    3.715729   -0.382953
     78          1           0        0.313822    3.095461    0.207631
     79          1           0        0.814421    4.736555    0.624646
     80          8           0        0.943696    3.295483    2.803993
     81          1           0        1.474781    3.159375    3.601455
     82          7           0        4.013836    0.286163    2.613558
     83          1           0        3.885222   -0.259152    1.766407
     84          6           0        4.855895   -0.229599    3.692692
     85          1           0        4.323351   -0.019730    4.627652
     86          6           0        6.175908    0.564355    3.677266
     87          6           0        5.091020   -1.743401    3.586732
     88          1           0        5.683445   -1.916464    2.684662
     89          8           0        7.209460    0.163575    3.160217
     90          6           0        5.872713   -2.248814    4.805378
     91          1           0        5.294928   -2.070005    5.717181
     92          1           0        6.838054   -1.749666    4.902514
     93          1           0        6.050528   -3.323836    4.721608
     94          6           0        3.773412   -2.510074    3.479159
     95          1           0        3.170154   -2.360316    4.383242
     96          1           0        3.970375   -3.579570    3.377953
     97          1           0        3.169150   -2.201096    2.622359
     98          7           0        6.101821    1.788274    4.267684
     99          1           0        5.181546    2.154202    4.486804
    100          6           0        7.218076    2.705889    4.148278
    101          1           0        7.522120    2.781771    3.097311
    102          6           0        8.449706    2.207023    4.890898
    103          6           0        6.798385    4.087823    4.663549
    104          1           0        6.587384    4.018697    5.734279
    105          1           0        5.859432    4.350310    4.163593
    106          8           0        9.578767    2.287089    4.466706
    107          6           0        7.837354    5.168438    4.386152
    108          1           0        8.792812    4.905652    4.851581
    109          1           0        8.017664    5.190184    3.304272
    110          6           0        7.385112    6.540600    4.873635
    111          1           0        6.436800    6.811385    4.395342
    112          1           0        7.191100    6.496220    5.950709
    113          6           0        8.402791    7.643503    4.632105
    114          1           0        9.370758    7.350457    5.047630
    115          1           0        8.100104    8.566826    5.130055
    116          7           0        8.590837    7.929625    3.174355
    117          1           0        9.281303    8.667820    3.011952
    118          1           0        8.912323    7.095882    2.675860
    119          1           0        7.711844    8.221357    2.738482
    120          8           0        8.157036    1.722232    6.115173
    121          1           0        9.002193    1.458396    6.508722
 ---------------------------------------------------------------------

 SCF Done:  E(RB3LYP) =  -2843.51197360     A.U. after    1 cycles

 Alpha  occ. eigenvalues --  -19.26126 -19.24303 -19.20415 -19.18687 -19.18217
 Alpha  occ. eigenvalues --  -19.17904 -19.17140 -19.16970 -19.14631 -19.00617
 Alpha  occ. eigenvalues --  -19.00566 -14.62984 -14.61784 -14.47223 -14.43729
 Alpha  occ. eigenvalues --  -14.41887 -14.41686 -14.41376 -14.40812 -14.39595
 Alpha  occ. eigenvalues --  -10.41568 -10.40460 -10.40241 -10.38523 -10.34900
 Alpha  occ. eigenvalues --  -10.34748 -10.33894 -10.33795 -10.33267 -10.32977
 Alpha  occ. eigenvalues --  -10.31530 -10.31187 -10.30971 -10.30922 -10.29211
 Alpha  occ. eigenvalues --  -10.28383 -10.27937 -10.27854 -10.27791 -10.26989
 Alpha  occ. eigenvalues --  -10.26943 -10.25875 -10.25554 -10.24031 -10.23971
 Alpha  occ. eigenvalues --  -10.23701 -10.23297 -10.23267 -10.23144 -10.23056
 Alpha  occ. eigenvalues --  -10.22443 -10.21785 -10.21752 -10.21646 -10.20857
 Alpha  occ. eigenvalues --  -10.19140 -10.19082 -10.18590 -10.14305  -1.18470
 Alpha  occ. eigenvalues --   -1.17788  -1.17327  -1.14807  -1.10722  -1.10334
 Alpha  occ. eigenvalues --   -1.09249  -1.08858  -1.08125  -1.06591  -1.05780
 Alpha  occ. eigenvalues --   -1.03814  -1.03609  -0.98993  -0.98669  -0.97641
 Alpha  occ. eigenvalues --   -0.97523  -0.96255  -0.94838  -0.94259  -0.93324
 Alpha  occ. eigenvalues --   -0.88917  -0.88860  -0.87156  -0.85891  -0.85573
 Alpha  occ. eigenvalues --   -0.84915  -0.83418  -0.82897  -0.81960  -0.81060
 Alpha  occ. eigenvalues --   -0.79799  -0.78507  -0.77921  -0.77289  -0.76672
 Alpha  occ. eigenvalues --   -0.76068  -0.75557  -0.75301  -0.74610  -0.74488
 Alpha  occ. eigenvalues --   -0.73857  -0.73497  -0.72556  -0.72356  -0.71872
 Alpha  occ. eigenvalues --   -0.71068  -0.68994  -0.67863  -0.67508  -0.66755
 Alpha  occ. eigenvalues --   -0.66219  -0.65831  -0.65137  -0.64502  -0.64073
 Alpha  occ. eigenvalues --   -0.63691  -0.63320  -0.62947  -0.62284  -0.62050
 Alpha  occ. eigenvalues --   -0.61520  -0.61297  -0.60307  -0.60153  -0.59303
 Alpha  occ. eigenvalues --   -0.59212  -0.58736  -0.58188  -0.57375  -0.57078
 Alpha  occ. eigenvalues --   -0.56222  -0.55870  -0.55812  -0.55232  -0.54981
 Alpha  occ. eigenvalues --   -0.54706  -0.54026  -0.53962  -0.53797  -0.53507
 Alpha  occ. eigenvalues --   -0.53306  -0.52926  -0.52440  -0.52188  -0.51880
 Alpha  occ. eigenvalues --   -0.51650  -0.51352  -0.50878  -0.50337  -0.49826
 Alpha  occ. eigenvalues --   -0.49638  -0.49326  -0.49170  -0.48869  -0.48617
 Alpha  occ. eigenvalues --   -0.48120  -0.47945  -0.47705  -0.47518  -0.47486
 Alpha  occ. eigenvalues --   -0.47153  -0.46896  -0.46706  -0.46609  -0.46196
 Alpha  occ. eigenvalues --   -0.46112  -0.45282  -0.45141  -0.45054  -0.44486
 Alpha  occ. eigenvalues --   -0.44276  -0.44231  -0.43947  -0.43551  -0.43367
 Alpha  occ. eigenvalues --   -0.43169  -0.42914  -0.42732  -0.42456  -0.42340
 Alpha  occ. eigenvalues --   -0.41873  -0.41511  -0.41165  -0.40585  -0.40287
 Alpha  occ. eigenvalues --   -0.39968  -0.39347  -0.38907  -0.38794  -0.38678
 Alpha  occ. eigenvalues --   -0.38391  -0.38287  -0.38250  -0.38142  -0.38042
 Alpha  occ. eigenvalues --   -0.37824  -0.37380  -0.36931  -0.36777  -0.36676
 Alpha  occ. eigenvalues --   -0.35969  -0.34611  -0.34267  -0.33999  -0.33755
 Alpha  occ. eigenvalues --   -0.33291  -0.32933  -0.32092  -0.31939  -0.31482
 Alpha  occ. eigenvalues --   -0.31382  -0.31076  -0.30479  -0.29628  -0.29597
 Alpha  occ. eigenvalues --   -0.28968  -0.28291  -0.28046  -0.27336  -0.25594
 Alpha  occ. eigenvalues --   -0.16462  -0.15236  -0.14497
 Alpha virt. eigenvalues --   -0.13630  -0.12003  -0.10264  -0.07214  -0.07052
 Alpha virt. eigenvalues --   -0.06707  -0.06060  -0.06019  -0.05120  -0.04447
 Alpha virt. eigenvalues --   -0.03952  -0.03901  -0.03525  -0.02864  -0.02462

 Mulliken charges:
               1
     1  N   -0.714848
     2  H    0.425384
     3  H    0.418838
     4  H    0.426289
     5  C   -0.144135
     6  H    0.214513
     7  C    0.650637
     8  C   -0.472710
     9  H    0.229808
    10  H    0.184328
    11  H    0.204154
    12  O   -0.512655
    13  N   -0.594089
    14  H    0.351427
    15  C   -0.084676
    16  H    0.204139
    17  C    0.629745
    18  C   -0.380603
    19  H    0.159475
    20  H    0.213148
    21  O   -0.544625
    22  C    0.086778
    23  C   -0.012717
    24  H    0.114309
    25  C    0.083609
    26  C    0.316034
    27  C   -0.211354
    28  H    0.143333
    29  N   -0.696453
    30  H    0.322092
    31  C   -0.147450
    32  H    0.136663
    33  C   -0.162111
    34  H    0.125851
    35  C   -0.140384
    36  H    0.141541
    37  N   -0.580680
    38  H    0.341676
    39  C   -0.064711
    40  H    0.159242
    41  C    0.642988
    42  C   -0.285906
    43  H    0.162559
    44  H    0.159421
    45  O   -0.557742
    46  C   -0.334976
    47  H    0.106131
    48  H    0.102878
    49  C    0.535327
    50  O   -0.589393
    51  O   -0.601036
    52  N   -0.598666
    53  H    0.351307
    54  C   -0.028378
    55  H    0.176760
    56  C    0.640059
    57  C   -0.082742
    58  H    0.145449
    59  O   -0.575627
    60  C   -0.460604
    61  H    0.147702
    62  H    0.152377
    63  H    0.144661
    64  C   -0.464301
    65  H    0.159413
    66  H    0.163924
    67  H    0.135356
    68  N   -0.593855
    69  H    0.359282
    70  C   -0.068472
    71  H    0.191379
    72  C    0.629958
    73  C    0.105811
    74  H    0.107817
    75  O   -0.581289
    76  C   -0.446888
    77  H    0.158050
    78  H    0.199369
    79  H    0.164148
    80  O   -0.642079
    81  H    0.407781
    82  N   -0.621676
    83  H    0.386054
    84  C   -0.041082
    85  H    0.166178
    86  C    0.627703
    87  C   -0.103228
    88  H    0.159672
    89  O   -0.521049
    90  C   -0.458946
    91  H    0.138743
    92  H    0.169863
    93  H    0.153209
    94  C   -0.469352
    95  H    0.142468
    96  H    0.152078
    97  H    0.166218
    98  N   -0.639418
    99  H    0.373064
   100  C    0.013818
   101  H    0.177806
   102  C    0.599590
   103  C   -0.322624
   104  H    0.180340
   105  H    0.168504
   106  O   -0.469093
   107  C   -0.289188
   108  H    0.181354
   109  H    0.126012
   110  C   -0.290000
   111  H    0.169214
   112  H    0.203926
   113  C   -0.219513
   114  H    0.226504
   115  H    0.226251
   116  N   -0.687604
   117  H    0.402242
   118  H    0.405972
   119  H    0.399044
   120  O   -0.557885
   121  H    0.418068
 Sum of Mulliken charges =   1.00000

 Dipole moment (field-independent basis, Debye):
    X=             10.7196    Y=             -9.6606    Z=              8.4219  Tot=             16.7082
 Quadrupole moment (field-independent basis, Debye-Ang):
   XX=             47.5623   YY=            120.2630   ZZ=           -229.8352
   XY=            460.6700   XZ=            228.2228   YZ=            297.7287

 Normal termination of Gaussian 16 at Thu Jun 30 12:46:29 2022.
