 Gaussian 16, Revision C.01,
 Gaussian 16:  ES64L-G16RevC.01  3-Jul-2019

 ----------------------------------------------------------------------
 # B3LYP/6-31G* empiricaldispersion=gd3 guess=read geom=check nosymm in
 tegral(ultrafinegrid)
 ----------------------------------------------------------------------

 ------------------------------------------------------
 Candidate Structure: Conf:772 Charge calc in gas phase
 ------------------------------------------------------
 Structure from the checkpoint file:  "conf-772.chk"
 Charge =  1 Multiplicity = 1

                          Input orientation:
 ---------------------------------------------------------------------
 Center     Atomic      Atomic             Coordinates (Angstroms)
 Number     Number       Type             X           Y           Z
 ---------------------------------------------------------------------
      1          7           0       -0.553797   -1.381285   -7.857599
      2          1           0       -0.361308   -1.769948   -8.780333
      3          1           0        0.702853   -0.381608   -7.249331
      4          1           0       -1.406420   -0.825545   -7.928751
      5          6           0       -0.789918   -2.475332   -6.884317
      6          1           0       -1.642188   -3.100989   -7.190826
      7          6           0       -1.230169   -1.759257   -5.594963
      8          6           0        0.462125   -3.345383   -6.776219
      9          1           0        0.307288   -4.186922   -6.092706
     10          1           0        0.708694   -3.773883   -7.753239
     11          1           0        1.322525   -2.754376   -6.443260
     12          8           0       -2.038213   -0.829461   -5.663227
     13          7           0       -0.692618   -2.162581   -4.418984
     14          1           0        0.074058   -2.820619   -4.423758
     15          6           0       -0.863285   -1.361788   -3.203647
     16          1           0       -1.928308   -1.147251   -3.083181
     17          6           0       -0.067630   -0.061570   -3.394399
     18          6           0       -0.326570   -2.119443   -1.979048
     19          1           0       -0.909206   -3.042789   -1.869524
     20          1           0        0.710895   -2.406650   -2.189746
     21          8           0        1.167545   -0.073670   -3.324541
     22          6           0       -0.366056   -1.305356   -0.720908
     23          6           0        0.713248   -0.725054   -0.092674
     24          1           0        1.751586   -0.715806   -0.391256
     25          6           0       -1.515546   -1.010053    0.096123
     26          6           0       -1.043434   -0.273166    1.221275
     27          6           0       -2.888060   -1.301354   -0.004305
     28          1           0       -3.272598   -1.867425   -0.849947
     29          7           0        0.318018   -0.109781    1.067458
     30          1           0        0.959768    0.375626    1.688459
     31          6           0       -3.253787   -0.152526    2.114299
     32          1           0       -3.945585    0.161581    2.890632
     33          6           0       -1.903102    0.149766    2.243027
     34          1           0       -1.526666    0.694337    3.103056
     35          6           0       -3.743689   -0.867540    1.000032
     36          1           0       -4.805400   -1.087162    0.935330
     37          7           0       -0.794493    1.045600   -3.662464
     38          1           0       -1.772298    0.904592   -3.890120
     39          6           0       -0.198911    2.346375   -3.953418
     40          1           0        0.878000    2.201596   -3.864945
     41          6           0       -0.519620    3.416369   -2.904269
     42          6           0       -0.502888    2.851720   -5.373891
     43          1           0       -1.565862    3.107356   -5.459168
     44          1           0        0.059698    3.778518   -5.500800
     45          8           0       -0.178828    4.577755   -3.094718
     46          6           0       -0.155868    1.837753   -6.473682
     47          1           0       -0.866226    1.007771   -6.463299
     48          1           0       -0.239845    2.319863   -7.456819
     49          6           0        1.253942    1.289164   -6.346608
     50          8           0        1.500942    0.073469   -6.800838
     51          8           0        2.149284    1.948214   -5.816268
     52          7           0       -1.134656    2.990909   -1.762969
     53          1           0       -1.114991    1.992534   -1.587048
     54          6           0       -0.993113    3.840449   -0.584403
     55          1           0       -1.367567    4.834780   -0.847247
     56          6           0        0.512164    3.915206   -0.276413
     57          6           0       -1.785550    3.275312    0.612920
     58          1           0       -1.320509    2.319441    0.879551
     59          8           0        1.236017    2.909199   -0.380854
     60          6           0       -1.699335    4.212974    1.826249
     61          1           0       -2.170832    5.179981    1.608355
     62          1           0       -2.227631    3.771830    2.677408
     63          1           0       -0.668059    4.402441    2.139829
     64          6           0       -3.250563    3.014557    0.238138
     65          1           0       -3.743566    3.942228   -0.077936
     66          1           0       -3.345062    2.285617   -0.571504
     67          1           0       -3.789033    2.614168    1.102023
     68          7           0        0.982450    5.106448    0.126445
     69          1           0        0.366566    5.904467    0.235099
     70          6           0        2.395798    5.366099    0.367962
     71          1           0        2.967344    4.733417   -0.321897
     72          6           0        2.785952    4.971606    1.810315
     73          6           0        2.683887    6.855319    0.103841
     74          1           0        3.725419    7.044348    0.394028
     75          8           0        3.306617    5.767823    2.589050
     76          6           0        2.474242    7.235489   -1.356116
     77          1           0        3.193410    6.711485   -1.995489
     78          1           0        1.467077    6.979012   -1.700062
     79          1           0        2.618615    8.312439   -1.475305
     80          8           0        1.798118    7.641014    0.899517
     81          1           0        2.107276    7.538676    1.817470
     82          7           0        2.518513    3.673629    2.110565
     83          1           0        2.114878    3.092610    1.375774
     84          6           0        2.977581    3.020238    3.336005
     85          1           0        3.811139    3.622054    3.712740
     86          6           0        3.484990    1.666996    2.828661
     87          6           0        1.911702    2.941781    4.458627
     88          1           0        2.409730    2.451954    5.308388
     89          8           0        2.719495    0.806263    2.378821
     90          6           0        1.513177    4.362243    4.889315
     91          1           0        0.961904    4.868365    4.088813
     92          1           0        2.384841    4.978585    5.128152
     93          1           0        0.863055    4.319681    5.769438
     94          6           0        0.667623    2.121626    4.088122
     95          1           0        0.241424    2.471793    3.141281
     96          1           0       -0.100623    2.242275    4.859983
     97          1           0        0.891998    1.057734    3.992268
     98          7           0        4.828615    1.530238    2.767505
     99          1           0        5.442396    2.193734    3.225208
    100          6           0        5.453908    0.368985    2.159325
    101          1           0        4.769717   -0.477229    2.270524
    102          6           0        6.743200    0.078733    2.916179
    103          6           0        5.769104    0.562577    0.653344
    104          1           0        6.137469   -0.399613    0.276950
    105          1           0        6.592879    1.280435    0.543309
    106          8           0        7.274163    0.850236    3.683510
    107          6           0        4.563065    1.035760   -0.176680
    108          1           0        3.657203    0.512955    0.143015
    109          1           0        4.374776    2.098874    0.017388
    110          6           0        4.781429    0.796076   -1.676470
    111          1           0        5.784390    1.129309   -1.977318
    112          1           0        4.748581   -0.288803   -1.856603
    113          6           0        3.730950    1.485782   -2.556416
    114          1           0        3.990300    2.527468   -2.759260
    115          1           0        2.731604    1.461241   -2.115819
    116          7           0        3.623438    0.777245   -3.885020
    117          1           0        3.134984    1.330862   -4.642409
    118          1           0        4.540168    0.493845   -4.239803
    119          1           0        3.013913   -0.043900   -3.767152
    120          8           0        7.243468   -1.126047    2.584677
    121          1           0        8.081305   -1.237770    3.074302
 ---------------------------------------------------------------------

 SCF Done:  E(RB3LYP) =  -2843.90804741     A.U. after    1 cycles

 Alpha  occ. eigenvalues --  -19.28889 -19.27811 -19.23950 -19.23498 -19.23350
 Alpha  occ. eigenvalues --  -19.22987 -19.21459 -19.20979 -19.20684 -19.19897
 Alpha  occ. eigenvalues --  -19.19815 -14.54265 -14.47691 -14.47366 -14.45786
 Alpha  occ. eigenvalues --  -14.45605 -14.44885 -14.43786 -14.43748 -14.43669
 Alpha  occ. eigenvalues --  -10.42305 -10.41366 -10.40231 -10.40055 -10.38417
 Alpha  occ. eigenvalues --  -10.37276 -10.36917 -10.36712 -10.35002 -10.34438
 Alpha  occ. eigenvalues --  -10.33886 -10.33290 -10.32534 -10.31402 -10.31094
 Alpha  occ. eigenvalues --  -10.30944 -10.30922 -10.30714 -10.29481 -10.29296
 Alpha  occ. eigenvalues --  -10.29044 -10.28913 -10.28860 -10.28629 -10.28404
 Alpha  occ. eigenvalues --  -10.28388 -10.26847 -10.26780 -10.25524 -10.25345
 Alpha  occ. eigenvalues --  -10.25329 -10.25269 -10.24877 -10.24709 -10.24593
 Alpha  occ. eigenvalues --  -10.24167 -10.23938 -10.23926 -10.23561  -1.19858
 Alpha  occ. eigenvalues --   -1.19416  -1.15537  -1.14591  -1.13457  -1.12820
 Alpha  occ. eigenvalues --   -1.11778  -1.11223  -1.11157  -1.11027  -1.09287
 Alpha  occ. eigenvalues --   -1.08470  -1.04345  -1.04009  -1.03739  -1.02294
 Alpha  occ. eigenvalues --   -1.01554  -1.01393  -1.00444  -1.00101  -0.91385
 Alpha  occ. eigenvalues --   -0.90663  -0.90074  -0.89049  -0.88470  -0.87879
 Alpha  occ. eigenvalues --   -0.86878  -0.86326  -0.84852  -0.84051  -0.82580
 Alpha  occ. eigenvalues --   -0.81938  -0.80124  -0.79996  -0.78895  -0.78531
 Alpha  occ. eigenvalues --   -0.76539  -0.76131  -0.75329  -0.75072  -0.74949
 Alpha  occ. eigenvalues --   -0.74929  -0.72725  -0.71153  -0.70710  -0.70397
 Alpha  occ. eigenvalues --   -0.69908  -0.69523  -0.68811  -0.68746  -0.68312
 Alpha  occ. eigenvalues --   -0.68200  -0.67790  -0.66772  -0.66649  -0.65941
 Alpha  occ. eigenvalues --   -0.65679  -0.65583  -0.64180  -0.63821  -0.62901
 Alpha  occ. eigenvalues --   -0.62416  -0.62074  -0.61209  -0.60960  -0.60525
 Alpha  occ. eigenvalues --   -0.60307  -0.60108  -0.59598  -0.59185  -0.58837
 Alpha  occ. eigenvalues --   -0.58750  -0.58249  -0.57791  -0.57216  -0.56648
 Alpha  occ. eigenvalues --   -0.56442  -0.56360  -0.55905  -0.55620  -0.55325
 Alpha  occ. eigenvalues --   -0.55177  -0.54888  -0.54455  -0.54333  -0.53818
 Alpha  occ. eigenvalues --   -0.53686  -0.53488  -0.53211  -0.52674  -0.52273
 Alpha  occ. eigenvalues --   -0.52038  -0.51702  -0.51372  -0.51239  -0.50914
 Alpha  occ. eigenvalues --   -0.50781  -0.50424  -0.50008  -0.49918  -0.49729
 Alpha  occ. eigenvalues --   -0.49550  -0.49356  -0.49247  -0.48820  -0.48708
 Alpha  occ. eigenvalues --   -0.48697  -0.48632  -0.48534  -0.48389  -0.48002
 Alpha  occ. eigenvalues --   -0.47952  -0.47546  -0.47306  -0.47172  -0.46624
 Alpha  occ. eigenvalues --   -0.46485  -0.46396  -0.45946  -0.45903  -0.45354
 Alpha  occ. eigenvalues --   -0.45336  -0.45090  -0.45008  -0.44920  -0.44770
 Alpha  occ. eigenvalues --   -0.44641  -0.44622  -0.44061  -0.43954  -0.43473
 Alpha  occ. eigenvalues --   -0.43365  -0.43219  -0.41927  -0.41519  -0.41305
 Alpha  occ. eigenvalues --   -0.41114  -0.41038  -0.40950  -0.40784  -0.40327
 Alpha  occ. eigenvalues --   -0.40211  -0.39855  -0.39764  -0.39637  -0.39305
 Alpha  occ. eigenvalues --   -0.39047  -0.38303  -0.37536  -0.37146  -0.36583
 Alpha  occ. eigenvalues --   -0.36516  -0.35777  -0.35627  -0.35229  -0.34980
 Alpha  occ. eigenvalues --   -0.34170  -0.34081  -0.33869  -0.32900  -0.32681
 Alpha  occ. eigenvalues --   -0.31821  -0.28787  -0.27116
 Alpha virt. eigenvalues --   -0.10260  -0.09731  -0.08979  -0.08601  -0.08043
 Alpha virt. eigenvalues --   -0.07848  -0.07349  -0.06204  -0.05392  -0.04701
 Alpha virt. eigenvalues --   -0.04118  -0.03571  -0.02964  -0.01511  -0.01366

 Mulliken charges:
               1
     1  N   -0.783409
     2  H    0.341675
     3  H    0.481033
     4  H    0.355742
     5  C   -0.059982
     6  H    0.188948
     7  C    0.636028
     8  C   -0.489709
     9  H    0.171899
    10  H    0.180221
    11  H    0.171634
    12  O   -0.538555
    13  N   -0.604551
    14  H    0.347780
    15  C   -0.045270
    16  H    0.182260
    17  C    0.654339
    18  C   -0.373227
    19  H    0.174771
    20  H    0.145755
    21  O   -0.594212
    22  C    0.033096
    23  C    0.021076
    24  H    0.138979
    25  C    0.072591
    26  C    0.300220
    27  C   -0.218120
    28  H    0.120152
    29  N   -0.715647
    30  H    0.394493
    31  C   -0.152202
    32  H    0.137485
    33  C   -0.180234
    34  H    0.154890
    35  C   -0.139075
    36  H    0.134976
    37  N   -0.611397
    38  H    0.365752
    39  C   -0.077364
    40  H    0.202451
    41  C    0.628254
    42  C   -0.271775
    43  H    0.161591
    44  H    0.205940
    45  O   -0.524751
    46  C   -0.419860
    47  H    0.193808
    48  H    0.199106
    49  C    0.633174
    50  O   -0.613693
    51  O   -0.526419
    52  N   -0.607145
    53  H    0.350298
    54  C   -0.027536
    55  H    0.172501
    56  C    0.639701
    57  C   -0.130655
    58  H    0.164166
    59  O   -0.597436
    60  C   -0.477134
    61  H    0.151165
    62  H    0.163427
    63  H    0.157993
    64  C   -0.435868
    65  H    0.146903
    66  H    0.147254
    67  H    0.161212
    68  N   -0.580031
    69  H    0.360755
    70  C   -0.076744
    71  H    0.168576
    72  C    0.625306
    73  C    0.105713
    74  H    0.152890
    75  O   -0.533375
    76  C   -0.454405
    77  H    0.138319
    78  H    0.171517
    79  H    0.176712
    80  O   -0.640671
    81  H    0.416672
    82  N   -0.653808
    83  H    0.389460
    84  C   -0.032833
    85  H    0.172946
    86  C    0.625710
    87  C   -0.078629
    88  H    0.141916
    89  O   -0.554067
    90  C   -0.456542
    91  H    0.153411
    92  H    0.167766
    93  H    0.154050
    94  C   -0.475762
    95  H    0.151345
    96  H    0.153681
    97  H    0.166704
    98  N   -0.603284
    99  H    0.362054
   100  C   -0.047734
   101  H    0.207185
   102  C    0.587064
   103  C   -0.274312
   104  H    0.167170
   105  H    0.156918
   106  O   -0.453296
   107  C   -0.294019
   108  H    0.193537
   109  H    0.159540
   110  C   -0.298090
   111  H    0.161148
   112  H    0.148299
   113  C   -0.195820
   114  H    0.200211
   115  H    0.249057
   116  N   -0.774861
   117  H    0.454391
   118  H    0.384381
   119  H    0.417307
   120  O   -0.561903
   121  H    0.428966
 Sum of Mulliken charges =   1.00000

 Dipole moment (field-independent basis, Debye):
    X=              9.9632    Y=             -2.3606    Z=            -15.8953  Tot=             18.9077
 Quadrupole moment (field-independent basis, Debye-Ang):
   XX=           -266.4066   YY=           -334.8775   ZZ=           -211.8790
   XY=             -4.5560   XZ=             -5.8797   YZ=             32.9516

 Normal termination of Gaussian 16 at Sat Jun 25 09:30:57 2022.
