 Gaussian 16, Revision C.01,
 Gaussian 16:  ES64L-G16RevC.01  3-Jul-2019

 ----------------------------------------------------------------------
 # B3LYP/6-31G* empiricaldispersion=gd3 guess=read geom=check nosymm in
 tegral(ultrafinegrid)
 ----------------------------------------------------------------------

 ------------------------------------------------------
 Candidate Structure: Conf:879 Charge calc in gas phase
 ------------------------------------------------------
 Structure from the checkpoint file:  "conf-879.chk"
 Charge =  1 Multiplicity = 1

                          Input orientation:
 ---------------------------------------------------------------------
 Center     Atomic      Atomic             Coordinates (Angstroms)
 Number     Number       Type             X           Y           Z
 ---------------------------------------------------------------------
      1          7           0       -8.295093   -1.217659   -4.457789
      2          1           0       -8.918790   -1.036193   -3.666921
      3          1           0       -8.790085   -1.802595   -5.136824
      4          1           0       -7.998833   -0.286458   -4.900940
      5          6           0       -6.947528   -1.785675   -4.050256
      6          1           0       -6.979149   -1.990207   -2.977290
      7          6           0       -5.983656   -0.603100   -4.356501
      8          6           0       -6.617745   -3.047256   -4.846319
      9          1           0       -5.629502   -3.416567   -4.559495
     10          1           0       -7.341348   -3.843769   -4.645437
     11          1           0       -6.594166   -2.836901   -5.921184
     12          8           0       -6.460468    0.387485   -4.937363
     13          7           0       -4.722291   -0.756180   -3.991866
     14          1           0       -4.368086   -1.602078   -3.541657
     15          6           0       -3.671664    0.225629   -4.248924
     16          1           0       -3.782248    0.601709   -5.270138
     17          6           0       -2.351976   -0.555145   -4.096059
     18          6           0       -3.766190    1.440854   -3.258396
     19          1           0       -4.767197    1.867232   -3.395315
     20          1           0       -3.703295    1.055462   -2.234130
     21          8           0       -2.351476   -1.649993   -3.508892
     22          6           0       -2.678077    2.432913   -3.522913
     23          6           0       -1.528031    2.588323   -2.781988
     24          1           0       -1.275996    2.172676   -1.817570
     25          6           0       -2.449372    3.117970   -4.774358
     26          6           0       -1.126879    3.644068   -4.716041
     27          6           0       -3.202632    3.288790   -5.952512
     28          1           0       -4.222870    2.916006   -6.016141
     29          7           0       -0.603142    3.332360   -3.476185
     30          1           0        0.399603    3.296675   -3.301330
     31          6           0       -1.302656    4.450071   -6.951000
     32          1           0       -0.876478    4.954719   -7.813148
     33          6           0       -0.537102    4.303773   -5.800241
     34          1           0        0.485710    4.660829   -5.738122
     35          6           0       -2.623187    3.954838   -7.025204
     36          1           0       -3.191962    4.098129   -7.939510
     37          7           0       -1.268643    0.057298   -4.593892
     38          1           0       -1.419557    0.983013   -4.983693
     39          6           0        0.138310   -0.240546   -4.256510
     40          1           0        0.310091   -1.310174   -4.420010
     41          6           0        0.384780    0.073791   -2.759755
     42          6           0        1.001966    0.617475   -5.196997
     43          1           0        0.827985    0.245355   -6.212192
     44          1           0        0.613985    1.638962   -5.163324
     45          8           0        1.042274    1.054061   -2.390115
     46          6           0        2.511450    0.688177   -4.908439
     47          1           0        2.820178    0.065567   -4.061618
     48          1           0        3.097052    0.333359   -5.761533
     49          6           0        2.996179    2.099191   -4.581251
     50          8           0        2.266515    3.032007   -4.245585
     51          8           0        4.305249    2.202399   -4.703491
     52          7           0       -0.196199   -0.766289   -1.885545
     53          1           0       -0.715682   -1.560888   -2.238949
     54          6           0       -0.030234   -0.588903   -0.445835
     55          1           0       -0.230058    0.467750   -0.228436
     56          6           0        1.444759   -0.895668   -0.094308
     57          6           0       -1.048916   -1.441306    0.343923
     58          1           0       -0.801340   -1.279222    1.401804
     59          8           0        1.965862   -1.963534   -0.389423
     60          6           0       -2.477467   -0.923885    0.101549
     61          1           0       -2.767350   -1.064595   -0.947039
     62          1           0       -3.192757   -1.471621    0.725258
     63          1           0       -2.568015    0.142576    0.342801
     64          6           0       -0.954546   -2.949009    0.058585
     65          1           0       -1.297341   -3.188137   -0.956838
     66          1           0        0.069258   -3.311887    0.163323
     67          1           0       -1.602144   -3.497409    0.751576
     68          7           0        2.087206    0.125501    0.529528
     69          1           0        1.607713    0.995572    0.724328
     70          6           0        3.524023    0.165415    0.713939
     71          1           0        3.887922   -0.864848    0.738704
     72          6           0        3.804908    0.947140    1.995767
     73          6           0        4.204373    0.939436   -0.470597
     74          1           0        3.953404    2.000325   -0.312766
     75          8           0        3.105219    1.918359    2.289481
     76          6           0        5.717931    0.765318   -0.485101
     77          1           0        6.195720    1.202701    0.396367
     78          1           0        5.971595   -0.299265   -0.551183
     79          1           0        6.123605    1.256594   -1.373602
     80          8           0        3.712902    0.512581   -1.723373
     81          1           0        2.778127    0.782057   -1.801421
     82          7           0        4.883488    0.568520    2.727525
     83          1           0        5.516878   -0.114086    2.330876
     84          6           0        5.424373    1.461201    3.754060
     85          1           0        4.578084    1.790872    4.365044
     86          6           0        6.081868    2.661969    3.044482
     87          6           0        6.448494    0.730712    4.642252
     88          1           0        7.260935    0.398979    3.980237
     89          8           0        7.075493    2.510521    2.335228
     90          6           0        7.044729    1.698814    5.674604
     91          1           0        6.260902    2.119034    6.317535
     92          1           0        7.575561    2.527049    5.194693
     93          1           0        7.758280    1.174356    6.318395
     94          6           0        5.818100   -0.487034    5.331091
     95          1           0        5.012329   -0.175197    6.007504
     96          1           0        6.568199   -1.017959    5.926953
     97          1           0        5.393148   -1.195824    4.613088
     98          7           0        5.483063    3.857500    3.259382
     99          1           0        4.641342    3.903583    3.818986
    100          6           0        6.013206    5.115956    2.771642
    101          1           0        7.089497    4.984918    2.622445
    102          6           0        5.776545    6.171475    3.842672
    103          6           0        5.381217    5.585217    1.437229
    104          1           0        5.845509    6.541597    1.167273
    105          1           0        4.312487    5.780527    1.601431
    106          8           0        4.988209    6.064950    4.756609
    107          6           0        5.553794    4.569545    0.304013
    108          1           0        6.610620    4.288370    0.218991
    109          1           0        5.017011    3.652744    0.570547
    110          6           0        5.041028    5.097380   -1.043133
    111          1           0        3.979794    5.374927   -0.958348
    112          1           0        5.582616    6.017211   -1.309484
    113          6           0        5.205540    4.072076   -2.170495
    114          1           0        4.619637    3.172779   -1.959415
    115          1           0        6.252344    3.752661   -2.236401
    116          7           0        4.798072    4.527526   -3.513421
    117          1           0        4.596479    3.137274   -4.384841
    118          1           0        3.819613    4.817063   -3.509910
    119          1           0        5.358033    5.321914   -3.819719
    120          8           0        6.520075    7.274379    3.619374
    121          1           0        6.287578    7.920237    4.313593
 ---------------------------------------------------------------------

 SCF Done:  E(RB3LYP) =  -2843.85138978     A.U. after    1 cycles

 Alpha  occ. eigenvalues --  -19.28030 -19.25569 -19.23251 -19.21278 -19.20120
 Alpha  occ. eigenvalues --  -19.19965 -19.18332 -19.18300 -19.17829 -19.16889
 Alpha  occ. eigenvalues --  -19.16509 -14.61034 -14.50484 -14.46313 -14.43901
 Alpha  occ. eigenvalues --  -14.43496 -14.42295 -14.41790 -14.41398 -14.39636
 Alpha  occ. eigenvalues --  -10.44620 -10.42366 -10.39841 -10.37897 -10.37100
 Alpha  occ. eigenvalues --  -10.36481 -10.34988 -10.34849 -10.34736 -10.34419
 Alpha  occ. eigenvalues --  -10.33703 -10.32424 -10.30418 -10.29397 -10.29319
 Alpha  occ. eigenvalues --  -10.29028 -10.28803 -10.28503 -10.28491 -10.28335
 Alpha  occ. eigenvalues --  -10.27131 -10.26692 -10.26192 -10.25657 -10.25595
 Alpha  occ. eigenvalues --  -10.25477 -10.25320 -10.25164 -10.25125 -10.24880
 Alpha  occ. eigenvalues --  -10.24805 -10.24731 -10.24521 -10.23862 -10.23664
 Alpha  occ. eigenvalues --  -10.23306 -10.22365 -10.22203 -10.21788  -1.20429
 Alpha  occ. eigenvalues --   -1.16486  -1.15080  -1.14571  -1.13503  -1.12143
 Alpha  occ. eigenvalues --   -1.10054  -1.08904  -1.08376  -1.07531  -1.07144
 Alpha  occ. eigenvalues --   -1.06239  -1.04621  -1.04247  -1.03032  -1.00430
 Alpha  occ. eigenvalues --   -0.98625  -0.98057  -0.97998  -0.95448  -0.94533
 Alpha  occ. eigenvalues --   -0.90720  -0.89850  -0.87997  -0.86752  -0.86447
 Alpha  occ. eigenvalues --   -0.85370  -0.84868  -0.82998  -0.82231  -0.81622
 Alpha  occ. eigenvalues --   -0.80740  -0.79967  -0.79214  -0.78363  -0.76804
 Alpha  occ. eigenvalues --   -0.76371  -0.75456  -0.75274  -0.75141  -0.74111
 Alpha  occ. eigenvalues --   -0.73701  -0.73196  -0.71940  -0.71298  -0.69605
 Alpha  occ. eigenvalues --   -0.68628  -0.68488  -0.67668  -0.67092  -0.66678
 Alpha  occ. eigenvalues --   -0.65741  -0.65457  -0.64980  -0.64589  -0.64388
 Alpha  occ. eigenvalues --   -0.64200  -0.64140  -0.63651  -0.63400  -0.62766
 Alpha  occ. eigenvalues --   -0.62331  -0.61522  -0.60336  -0.60122  -0.59788
 Alpha  occ. eigenvalues --   -0.59083  -0.58195  -0.57868  -0.57366  -0.57271
 Alpha  occ. eigenvalues --   -0.56669  -0.56258  -0.56010  -0.55358  -0.55228
 Alpha  occ. eigenvalues --   -0.54999  -0.54873  -0.54613  -0.54212  -0.53813
 Alpha  occ. eigenvalues --   -0.53728  -0.53535  -0.52946  -0.52799  -0.52576
 Alpha  occ. eigenvalues --   -0.52517  -0.52312  -0.52065  -0.51801  -0.51147
 Alpha  occ. eigenvalues --   -0.50827  -0.50548  -0.50430  -0.50032  -0.49986
 Alpha  occ. eigenvalues --   -0.49552  -0.49494  -0.49242  -0.48692  -0.48495
 Alpha  occ. eigenvalues --   -0.48216  -0.47836  -0.47698  -0.47517  -0.47154
 Alpha  occ. eigenvalues --   -0.47095  -0.47032  -0.46483  -0.46245  -0.45901
 Alpha  occ. eigenvalues --   -0.45786  -0.45488  -0.45236  -0.45185  -0.44845
 Alpha  occ. eigenvalues --   -0.44502  -0.44225  -0.43916  -0.43786  -0.43664
 Alpha  occ. eigenvalues --   -0.43323  -0.43095  -0.42890  -0.42659  -0.42563
 Alpha  occ. eigenvalues --   -0.42023  -0.41841  -0.41473  -0.41388  -0.41075
 Alpha  occ. eigenvalues --   -0.40849  -0.40655  -0.40562  -0.40392  -0.40144
 Alpha  occ. eigenvalues --   -0.40006  -0.39939  -0.39459  -0.39361  -0.38875
 Alpha  occ. eigenvalues --   -0.38760  -0.38346  -0.38056  -0.37888  -0.37542
 Alpha  occ. eigenvalues --   -0.37191  -0.36963  -0.35171  -0.34539  -0.34061
 Alpha  occ. eigenvalues --   -0.33792  -0.33367  -0.33131  -0.32653  -0.32335
 Alpha  occ. eigenvalues --   -0.32277  -0.31478  -0.30662  -0.30212  -0.29405
 Alpha  occ. eigenvalues --   -0.29163  -0.29004  -0.27191
 Alpha virt. eigenvalues --   -0.13304  -0.12188  -0.09493  -0.08151  -0.07270
 Alpha virt. eigenvalues --   -0.06642  -0.05647  -0.04865  -0.04402  -0.04367
 Alpha virt. eigenvalues --   -0.03619  -0.03122  -0.02789  -0.02586  -0.01965

 Mulliken charges:
               1
     1  N   -0.758304
     2  H    0.419133
     3  H    0.416316
     4  H    0.438121
     5  C   -0.106417
     6  H    0.226054
     7  C    0.654566
     8  C   -0.482983
     9  H    0.220147
    10  H    0.198149
    11  H    0.198341
    12  O   -0.541158
    13  N   -0.606552
    14  H    0.374111
    15  C   -0.071388
    16  H    0.203202
    17  C    0.638608
    18  C   -0.351011
    19  H    0.176580
    20  H    0.163014
    21  O   -0.573260
    22  C    0.022838
    23  C    0.003504
    24  H    0.162998
    25  C    0.041223
    26  C    0.268570
    27  C   -0.225370
    28  H    0.127659
    29  N   -0.655086
    30  H    0.395315
    31  C   -0.151932
    32  H    0.141110
    33  C   -0.164550
    34  H    0.159139
    35  C   -0.137503
    36  H    0.133053
    37  N   -0.606845
    38  H    0.378084
    39  C   -0.063289
    40  H    0.190340
    41  C    0.655153
    42  C   -0.310696
    43  H    0.159640
    44  H    0.189734
    45  O   -0.578187
    46  C   -0.365964
    47  H    0.211963
    48  H    0.180912
    49  C    0.608728
    50  O   -0.535193
    51  O   -0.593124
    52  N   -0.608108
    53  H    0.381755
    54  C   -0.039873
    55  H    0.145973
    56  C    0.624789
    57  C   -0.110899
    58  H    0.154376
    59  O   -0.519927
    60  C   -0.464244
    61  H    0.140211
    62  H    0.151369
    63  H    0.144600
    64  C   -0.470071
    65  H    0.137186
    66  H    0.203652
    67  H    0.146646
    68  N   -0.610291
    69  H    0.344262
    70  C   -0.067282
    71  H    0.178341
    72  C    0.632708
    73  C    0.138532
    74  H    0.121537
    75  O   -0.553772
    76  C   -0.497657
    77  H    0.182100
    78  H    0.153851
    79  H    0.169494
    80  O   -0.671610
    81  H    0.453962
    82  N   -0.603732
    83  H    0.343369
    84  C   -0.028405
    85  H    0.160090
    86  C    0.635263
    87  C   -0.107511
    88  H    0.151474
    89  O   -0.548677
    90  C   -0.462041
    91  H    0.147385
    92  H    0.165423
    93  H    0.158210
    94  C   -0.446633
    95  H    0.148090
    96  H    0.156869
    97  H    0.146765
    98  N   -0.586768
    99  H    0.355326
   100  C   -0.047650
   101  H    0.200007
   102  C    0.583418
   103  C   -0.266509
   104  H    0.160643
   105  H    0.145809
   106  O   -0.463682
   107  C   -0.280214
   108  H    0.161896
   109  H    0.164483
   110  C   -0.262765
   111  H    0.131191
   112  H    0.131831
   113  C   -0.163177
   114  H    0.183561
   115  H    0.162522
   116  N   -0.779900
   117  H    0.467574
   118  H    0.336070
   119  H    0.323051
   120  O   -0.562148
   121  H    0.420383
 Sum of Mulliken charges =   1.00000

 Dipole moment (field-independent basis, Debye):
    X=            -25.1621    Y=             -1.2301    Z=            -15.3680  Tot=             29.5097
 Quadrupole moment (field-independent basis, Debye-Ang):
   XX=            -79.1384   YY=           -296.2569   ZZ=           -247.0225
   XY=             94.2349   XZ=            140.5071   YZ=             26.3640

 Normal termination of Gaussian 16 at Sat Jun 25 09:30:38 2022.
