 Gaussian 16, Revision C.01,
 Gaussian 16:  ES64L-G16RevC.01  3-Jul-2019

 ----------------------------------------------------------------------
 # B3LYP/6-31G* empiricaldispersion=gd3 guess=read geom=check nosymm in
 tegral(ultrafinegrid)
 ----------------------------------------------------------------------

 ------------------------------------------------------
 Candidate Structure: Conf:472 Charge calc in gas phase
 ------------------------------------------------------
 Structure from the checkpoint file:  "conf-472.chk"
 Charge =  1 Multiplicity = 1

                          Input orientation:
 ---------------------------------------------------------------------
 Center     Atomic      Atomic             Coordinates (Angstroms)
 Number     Number       Type             X           Y           Z
 ---------------------------------------------------------------------
      1          7           0       -0.461226   -0.455054   -4.258930
      2          1           0        0.094729   -0.117060   -5.047028
      3          1           0        0.207267   -0.778966   -3.500326
      4          1           0       -1.036900    0.313213   -3.862155
      5          6           0       -1.437299   -1.537116   -4.650058
      6          1           0       -1.822420   -1.273795   -5.641161
      7          6           0       -2.592476   -1.353458   -3.632295
      8          6           0       -0.747621   -2.897204   -4.673927
      9          1           0       -1.431164   -3.664628   -5.048267
     10          1           0        0.115023   -2.881790   -5.347491
     11          1           0       -0.404097   -3.182273   -3.675550
     12          8           0       -2.745158   -0.229901   -3.136055
     13          7           0       -3.334157   -2.422805   -3.337073
     14          1           0       -3.195338   -3.304116   -3.815857
     15          6           0       -4.356804   -2.420005   -2.273481
     16          1           0       -4.871253   -1.457680   -2.323823
     17          6           0       -3.522413   -2.557550   -0.975266
     18          6           0       -5.330937   -3.598505   -2.469233
     19          1           0       -4.882615   -4.482305   -2.003512
     20          1           0       -6.238547   -3.366133   -1.898593
     21          8           0       -3.125462   -3.651768   -0.593645
     22          6           0       -5.642914   -3.878741   -3.909157
     23          6           0       -5.407746   -5.063906   -4.566515
     24          1           0       -5.026827   -5.998951   -4.177521
     25          6           0       -6.186919   -2.967507   -4.887445
     26          6           0       -6.261340   -3.673264   -6.119244
     27          6           0       -6.609563   -1.626898   -4.845967
     28          1           0       -6.577939   -1.063704   -3.917057
     29          7           0       -5.771006   -4.945882   -5.893620
     30          1           0       -5.792884   -5.703421   -6.559069
     31          6           0       -7.156334   -1.757876   -7.217987
     32          1           0       -7.542848   -1.270367   -8.108205
     33          6           0       -6.744791   -3.083527   -7.291774
     34          1           0       -6.801523   -3.640898   -8.222690
     35          6           0       -7.088805   -1.035728   -6.007751
     36          1           0       -7.426241   -0.003589   -5.986171
     37          7           0       -3.137559   -1.377454   -0.415544
     38          1           0       -3.362203   -0.516277   -0.906551
     39          6           0       -1.870972   -1.310965    0.308154
     40          1           0       -1.838798   -2.120507    1.041875
     41          6           0       -1.778049    0.075408    0.948303
     42          6           0       -0.724872   -1.446342   -0.730748
     43          1           0       -0.913126   -2.365742   -1.295544
     44          1           0       -0.848938   -0.601810   -1.412725
     45          8           0       -2.149757    1.065608    0.319637
     46          6           0        0.703342   -1.465774   -0.196835
     47          1           0        0.906613   -0.661611    0.519332
     48          1           0        0.921683   -2.393484    0.346624
     49          6           0        1.744094   -1.329734   -1.294642
     50          8           0        1.472693   -1.189279   -2.502637
     51          8           0        2.962386   -1.353090   -0.840337
     52          7           0       -1.198130    0.146958    2.175664
     53          1           0       -0.784001   -0.691040    2.563325
     54          6           0       -0.679255    1.428895    2.669460
     55          1           0       -1.400725    2.185657    2.351912
     56          6           0        0.645541    1.634681    1.915068
     57          6           0       -0.571278    1.481025    4.206995
     58          1           0       -1.601442    1.357258    4.568295
     59          8           0        1.632383    0.915118    2.134515
     60          6           0        0.287688    0.371946    4.834341
     61          1           0        1.325705    0.432659    4.501020
     62          1           0        0.262686    0.465313    5.925106
     63          1           0       -0.087668   -0.631496    4.596617
     64          6           0       -0.077261    2.872116    4.633238
     65          1           0        0.951663    3.048546    4.298803
     66          1           0       -0.709361    3.668978    4.223738
     67          1           0       -0.088788    2.963333    5.723752
     68          7           0        0.623223    2.532470    0.909608
     69          1           0       -0.196290    3.102263    0.732948
     70          6           0        1.674740    2.588364   -0.099629
     71          1           0        2.037388    1.564522   -0.259382
     72          6           0        2.881468    3.429070    0.368748
     73          6           0        1.094104    3.154954   -1.410621
     74          1           0        1.936866    3.296499   -2.101248
     75          8           0        3.151392    4.521342   -0.152632
     76          6           0        0.081205    2.212242   -2.050866
     77          1           0        0.573320    1.259072   -2.276430
     78          1           0       -0.771484    2.017725   -1.393907
     79          1           0       -0.292479    2.663223   -2.976647
     80          8           0        0.449902    4.392872   -1.154225
     81          1           0        1.163853    5.002027   -0.885680
     82          7           0        3.622830    2.844093    1.325699
     83          1           0        3.313500    1.935963    1.669764
     84          6           0        4.905080    3.386175    1.785713
     85          1           0        4.824745    4.478008    1.755044
     86          6           0        5.948512    2.894149    0.758533
     87          6           0        5.238469    2.920909    3.211354
     88          1           0        5.400653    1.836371    3.163283
     89          8           0        6.529186    1.820526    0.891232
     90          6           0        6.545832    3.576640    3.678117
     91          1           0        6.445205    4.668831    3.718035
     92          1           0        7.377251    3.328140    3.011661
     93          1           0        6.807507    3.229574    4.682997
     94          6           0        4.087257    3.216892    4.182150
     95          1           0        3.848968    4.288016    4.198792
     96          1           0        4.365603    2.920706    5.199069
     97          1           0        3.177494    2.670259    3.914335
     98          7           0        6.089659    3.693744   -0.338189
     99          1           0        5.453177    4.476618   -0.439791
    100          6           0        6.848821    3.236099   -1.488949
    101          1           0        7.449889    2.403465   -1.103255
    102          6           0        7.843008    4.273106   -2.001830
    103          6           0        5.972389    2.710412   -2.650346
    104          1           0        6.614475    2.104558   -3.299044
    105          1           0        5.632757    3.548742   -3.270610
    106          8           0        8.240548    4.305181   -3.145335
    107          6           0        4.754356    1.923945   -2.147938
    108          1           0        5.035087    1.281335   -1.303671
    109          1           0        4.045940    2.645944   -1.736536
    110          6           0        4.037340    1.102654   -3.229256
    111          1           0        3.042843    0.812494   -2.869049
    112          1           0        3.883575    1.724468   -4.121780
    113          6           0        4.768633   -0.174389   -3.654523
    114          1           0        5.723402    0.063235   -4.142070
    115          1           0        4.156220   -0.719421   -4.380250
    116          7           0        4.972563   -1.080227   -2.494881
    117          1           0        5.320989   -1.985108   -2.811071
    118          1           0        5.692175   -0.704786   -1.875746
    119          1           0        3.705955   -1.256822   -1.590445
    120          8           0        8.257866    5.124879   -1.041903
    121          1           0        8.914989    5.712994   -1.461328
 ---------------------------------------------------------------------

 SCF Done:  E(RB3LYP) =  -2843.87139872     A.U. after    2 cycles

 Alpha  occ. eigenvalues --  -19.26677 -19.26176 -19.25186 -19.25020 -19.22204
 Alpha  occ. eigenvalues --  -19.21554 -19.21320 -19.20806 -19.20795 -19.20428
 Alpha  occ. eigenvalues --  -19.18580 -14.56500 -14.49079 -14.46097 -14.45829
 Alpha  occ. eigenvalues --  -14.45746 -14.45094 -14.44664 -14.44104 -14.43010
 Alpha  occ. eigenvalues --  -10.42625 -10.42399 -10.39468 -10.38636 -10.38569
 Alpha  occ. eigenvalues --  -10.38181 -10.37860 -10.37406 -10.35625 -10.33691
 Alpha  occ. eigenvalues --  -10.33138 -10.32838 -10.32522 -10.32232 -10.32161
 Alpha  occ. eigenvalues --  -10.31485 -10.30826 -10.30238 -10.30046 -10.29438
 Alpha  occ. eigenvalues --  -10.29431 -10.29255 -10.28062 -10.27704 -10.27678
 Alpha  occ. eigenvalues --  -10.26694 -10.26648 -10.26494 -10.26485 -10.26130
 Alpha  occ. eigenvalues --  -10.25988 -10.25936 -10.25712 -10.25582 -10.25206
 Alpha  occ. eigenvalues --  -10.24937 -10.24610 -10.23676 -10.23063  -1.19356
 Alpha  occ. eigenvalues --   -1.17603  -1.17104  -1.13977  -1.13201  -1.12687
 Alpha  occ. eigenvalues --   -1.12214  -1.11540  -1.10502  -1.10234  -1.09804
 Alpha  occ. eigenvalues --   -1.08087  -1.05714  -1.05282  -1.02352  -1.01964
 Alpha  occ. eigenvalues --   -1.01669  -1.00678  -1.00561  -0.99621  -0.92125
 Alpha  occ. eigenvalues --   -0.91124  -0.90185  -0.88857  -0.88733  -0.88465
 Alpha  occ. eigenvalues --   -0.87446  -0.86185  -0.85111  -0.83994  -0.82900
 Alpha  occ. eigenvalues --   -0.81465  -0.80843  -0.80246  -0.79405  -0.79051
 Alpha  occ. eigenvalues --   -0.78515  -0.76522  -0.75932  -0.75587  -0.74398
 Alpha  occ. eigenvalues --   -0.74104  -0.72507  -0.72030  -0.71703  -0.69941
 Alpha  occ. eigenvalues --   -0.69629  -0.69520  -0.69044  -0.68247  -0.67846
 Alpha  occ. eigenvalues --   -0.67561  -0.67004  -0.66870  -0.66808  -0.65780
 Alpha  occ. eigenvalues --   -0.65735  -0.65490  -0.65189  -0.64079  -0.63561
 Alpha  occ. eigenvalues --   -0.63306  -0.61795  -0.61555  -0.61399  -0.60868
 Alpha  occ. eigenvalues --   -0.60267  -0.59873  -0.59615  -0.59375  -0.59078
 Alpha  occ. eigenvalues --   -0.58469  -0.57895  -0.57328  -0.57174  -0.56968
 Alpha  occ. eigenvalues --   -0.56852  -0.56208  -0.55932  -0.55774  -0.55283
 Alpha  occ. eigenvalues --   -0.54981  -0.54684  -0.54624  -0.54084  -0.53566
 Alpha  occ. eigenvalues --   -0.53421  -0.53260  -0.53067  -0.52908  -0.52531
 Alpha  occ. eigenvalues --   -0.52223  -0.51940  -0.51611  -0.51510  -0.51191
 Alpha  occ. eigenvalues --   -0.51082  -0.50806  -0.50332  -0.50264  -0.50253
 Alpha  occ. eigenvalues --   -0.49829  -0.49781  -0.49491  -0.49160  -0.49071
 Alpha  occ. eigenvalues --   -0.48657  -0.48438  -0.48318  -0.47946  -0.47866
 Alpha  occ. eigenvalues --   -0.47764  -0.47607  -0.47333  -0.47216  -0.46774
 Alpha  occ. eigenvalues --   -0.46612  -0.46397  -0.46245  -0.45992  -0.45834
 Alpha  occ. eigenvalues --   -0.45510  -0.45335  -0.45226  -0.44899  -0.44646
 Alpha  occ. eigenvalues --   -0.44531  -0.44248  -0.43992  -0.43733  -0.42503
 Alpha  occ. eigenvalues --   -0.42111  -0.41748  -0.41690  -0.41636  -0.41577
 Alpha  occ. eigenvalues --   -0.41320  -0.41131  -0.40991  -0.40710  -0.40662
 Alpha  occ. eigenvalues --   -0.40374  -0.39748  -0.39645  -0.39167  -0.39062
 Alpha  occ. eigenvalues --   -0.38907  -0.38193  -0.37691  -0.37159  -0.36654
 Alpha  occ. eigenvalues --   -0.35968  -0.35415  -0.35215  -0.35000  -0.34906
 Alpha  occ. eigenvalues --   -0.34538  -0.33902  -0.33628  -0.32803  -0.32117
 Alpha  occ. eigenvalues --   -0.31181  -0.29737  -0.28134
 Alpha virt. eigenvalues --   -0.12038  -0.09578  -0.08793  -0.08618  -0.07952
 Alpha virt. eigenvalues --   -0.07778  -0.06965  -0.06864  -0.05896  -0.04937
 Alpha virt. eigenvalues --   -0.04527  -0.03522  -0.03106  -0.02383  -0.01985

 Mulliken charges:
               1
     1  N   -0.803601
     2  H    0.396820
     3  H    0.473074
     4  H    0.433012
     5  C   -0.108688
     6  H    0.227015
     7  C    0.668468
     8  C   -0.485334
     9  H    0.193229
    10  H    0.186118
    11  H    0.204092
    12  O   -0.542670
    13  N   -0.593361
    14  H    0.353027
    15  C   -0.055854
    16  H    0.189625
    17  C    0.614969
    18  C   -0.393906
    19  H    0.191199
    20  H    0.183887
    21  O   -0.517501
    22  C    0.028966
    23  C   -0.016491
    24  H    0.165937
    25  C    0.090943
    26  C    0.305489
    27  C   -0.214669
    28  H    0.128162
    29  N   -0.684653
    30  H    0.339411
    31  C   -0.151325
    32  H    0.142367
    33  C   -0.162910
    34  H    0.138290
    35  C   -0.141834
    36  H    0.137874
    37  N   -0.590845
    38  H    0.370512
    39  C   -0.059595
    40  H    0.183701
    41  C    0.630658
    42  C   -0.298967
    43  H    0.167127
    44  H    0.152465
    45  O   -0.531659
    46  C   -0.402920
    47  H    0.220899
    48  H    0.197624
    49  C    0.632063
    50  O   -0.573468
    51  O   -0.585771
    52  N   -0.608337
    53  H    0.349056
    54  C   -0.044063
    55  H    0.180142
    56  C    0.628462
    57  C   -0.093738
    58  H    0.153753
    59  O   -0.566854
    60  C   -0.467635
    61  H    0.186877
    62  H    0.162103
    63  H    0.130397
    64  C   -0.473728
    65  H    0.167613
    66  H    0.150993
    67  H    0.168491
    68  N   -0.579964
    69  H    0.367904
    70  C   -0.083206
    71  H    0.175069
    72  C    0.645453
    73  C    0.114771
    74  H    0.146150
    75  O   -0.571115
    76  C   -0.516803
    77  H    0.117637
    78  H    0.215260
    79  H    0.156684
    80  O   -0.639484
    81  H    0.421437
    82  N   -0.619705
    83  H    0.385852
    84  C   -0.040522
    85  H    0.170533
    86  C    0.629230
    87  C   -0.100410
    88  H    0.158460
    89  O   -0.537197
    90  C   -0.461656
    91  H    0.145049
    92  H    0.172049
    93  H    0.157616
    94  C   -0.467432
    95  H    0.146962
    96  H    0.158491
    97  H    0.154930
    98  N   -0.597979
    99  H    0.357565
   100  C   -0.063711
   101  H    0.213997
   102  C    0.586707
   103  C   -0.270379
   104  H    0.160603
   105  H    0.157379
   106  O   -0.459906
   107  C   -0.315712
   108  H    0.154812
   109  H    0.161352
   110  C   -0.285829
   111  H    0.145866
   112  H    0.145641
   113  C   -0.135933
   114  H    0.164924
   115  H    0.150832
   116  N   -0.793307
   117  H    0.344675
   118  H    0.356356
   119  H    0.480820
   120  O   -0.555476
   121  H    0.420127
 Sum of Mulliken charges =   1.00000

 Dipole moment (field-independent basis, Debye):
    X=              0.4872    Y=             -5.5901    Z=            -15.2435  Tot=             16.2434
 Quadrupole moment (field-independent basis, Debye-Ang):
   XX=           -292.0653   YY=           -299.0873   ZZ=           -224.9973
   XY=             36.6881   XZ=             24.7057   YZ=             61.6624

 Normal termination of Gaussian 16 at Sat Jun 25 09:16:18 2022.
