 Gaussian 16, Revision C.01,
 Gaussian 16:  ES64L-G16RevC.01  3-Jul-2019

 ----------------------------------------------------------------------
 # B3LYP/6-31G* empiricaldispersion=gd3 guess=read geom=check nosymm in
 tegral(ultrafinegrid)
 ----------------------------------------------------------------------

 ------------------------------------------------------
 Candidate Structure: Conf:876 Charge calc in gas phase
 ------------------------------------------------------
 Structure from the checkpoint file:  "conf-876.chk"
 Charge =  1 Multiplicity = 1

                          Input orientation:
 ---------------------------------------------------------------------
 Center     Atomic      Atomic             Coordinates (Angstroms)
 Number     Number       Type             X           Y           Z
 ---------------------------------------------------------------------
      1          7           0       -4.263730    0.106087   -9.670783
      2          1           0       -5.175657    0.479284   -9.938101
      3          1           0       -3.827788   -0.347263  -10.469878
      4          1           0       -3.688123    0.894091   -9.358850
      5          6           0       -4.358816   -0.798133   -8.507846
      6          1           0       -5.312296   -1.332420   -8.529657
      7          6           0       -4.302497    0.067110   -7.249076
      8          6           0       -3.211813   -1.804055   -8.490534
      9          1           0       -3.257263   -2.429124   -7.595129
     10          1           0       -3.249114   -2.449317   -9.372182
     11          1           0       -2.252014   -1.280244   -8.490927
     12          8           0       -3.807386    1.185498   -7.274756
     13          7           0       -4.819312   -0.501007   -6.124186
     14          1           0       -4.978283   -1.495974   -6.158556
     15          6           0       -4.411595   -0.042885   -4.810190
     16          1           0       -3.970250    0.943885   -4.927631
     17          6           0       -3.356164   -1.020188   -4.275839
     18          6           0       -5.588896    0.054034   -3.836538
     19          1           0       -6.083027   -0.918347   -3.756400
     20          1           0       -5.199258    0.280329   -2.837548
     21          8           0       -3.277888   -2.170269   -4.674707
     22          6           0       -6.576905    1.113870   -4.242800
     23          6           0       -6.499240    2.010991   -5.277832
     24          1           0       -5.731129    2.115795   -6.024738
     25          6           0       -7.822452    1.391433   -3.569591
     26          6           0       -8.445087    2.450072   -4.249133
     27          6           0       -8.449201    0.819050   -2.455309
     28          1           0       -7.988146   -0.001148   -1.913371
     29          7           0       -7.620963    2.808040   -5.291120
     30          1           0       -7.800806    3.552031   -5.938941
     31          6           0      -10.282835    2.389273   -2.749173
     32          1           0      -11.242011    2.762244   -2.410948
     33          6           0       -9.680240    2.968725   -3.855701
     34          1           0      -10.143062    3.787710   -4.395000
     35          6           0       -9.674072    1.326157   -2.056516
     36          1           0      -10.177489    0.899967   -1.196755
     37          7           0       -2.551030   -0.529361   -3.304296
     38          1           0       -2.643037    0.407337   -2.939531
     39          6           0       -1.573677   -1.363458   -2.645433
     40          1           0       -2.047923   -2.301469   -2.345851
     41          6           0       -1.148477   -0.594908   -1.396546
     42          6           0       -0.381323   -1.732495   -3.544852
     43          1           0        0.404835   -2.165659   -2.919775
     44          1           0       -0.715370   -2.510420   -4.230721
     45          8           0       -1.337248    0.609900   -1.286490
     46          6           0        0.189530   -0.554603   -4.322929
     47          1           0       -0.471631   -0.208334   -5.114636
     48          1           0        0.381857    0.295257   -3.658799
     49          6           0        1.564530   -0.895755   -4.967929
     50          8           0        1.781873   -0.335863   -6.054974
     51          8           0        2.319879   -1.623162   -4.294508
     52          7           0       -0.540616   -1.332712   -0.443040
     53          1           0       -0.239390   -2.268834   -0.657361
     54          6           0       -0.143108   -0.741247    0.824675
     55          1           0       -0.737982    0.173430    0.908637
     56          6           0        1.338313   -0.366774    0.716437
     57          6           0       -0.439897   -1.633234    2.037583
     58          1           0        0.285020   -2.447755    2.026476
     59          8           0        2.232892   -0.958481    1.320443
     60          6           0       -0.280394   -0.831053    3.332767
     61          1           0       -1.005936   -0.014686    3.347914
     62          1           0       -0.457772   -1.463880    4.204880
     63          1           0        0.715900   -0.399458    3.426541
     64          6           0       -1.852523   -2.213561    1.987996
     65          1           0       -2.589941   -1.405912    1.987206
     66          1           0       -2.012966   -2.833216    1.106397
     67          1           0       -2.030218   -2.831104    2.871497
     68          7           0        1.607709    0.639298   -0.150508
     69          1           0        0.856637    1.138352   -0.604110
     70          6           0        2.934704    1.213316   -0.206146
     71          1           0        3.650416    0.391372   -0.190230
     72          6           0        3.187966    2.105796    1.005283
     73          6           0        3.100087    2.037016   -1.492286
     74          1           0        4.008185    2.645445   -1.409742
     75          8           0        2.449036    3.049494    1.281243
     76          6           0        3.198983    1.131945   -2.699361
     77          1           0        4.149314    0.591834   -2.696733
     78          1           0        2.400995    0.390474   -2.683547
     79          1           0        3.120147    1.712205   -3.619964
     80          8           0        1.969713    2.881051   -1.674884
     81          1           0        1.932483    3.472158   -0.910699
     82          7           0        4.271035    1.775777    1.740245
     83          1           0        4.877413    1.021312    1.458765
     84          6           0        4.659820    2.529390    2.922626
     85          1           0        4.137723    3.486299    2.878275
     86          6           0        6.166079    2.714294    2.837530
     87          6           0        4.276249    1.804618    4.226465
     88          1           0        4.849483    0.875768    4.241585
     89          8           0        6.909095    1.748483    2.736351
     90          6           0        4.653435    2.630945    5.457228
     91          1           0        4.117759    3.585201    5.440659
     92          1           0        5.726646    2.830462    5.500988
     93          1           0        4.372477    2.098896    6.368537
     94          6           0        2.787494    1.464165    4.239219
     95          1           0        2.191562    2.356625    4.040298
     96          1           0        2.510801    1.069248    5.218050
     97          1           0        2.541026    0.711059    3.492318
     98          7           0        6.617037    3.996976    2.845419
     99          1           0        5.983838    4.731837    3.111760
    100          6           0        8.038812    4.269216    2.959321
    101          1           0        8.566404    3.509268    2.382367
    102          6           0        8.525359    4.149029    4.385232
    103          6           0        8.352074    5.659709    2.396713
    104          1           0        7.813966    6.410182    2.972519
    105          1           0        7.950924    5.687844    1.382097
    106          8           0        9.614158    3.749234    4.716990
    107          6           0        9.841711    5.968559    2.362760
    108          1           0       10.246527    5.968675    3.376944
    109          1           0       10.359621    5.162445    1.831535
    110          6           0       10.168098    7.296562    1.688979
    111          1           0       11.250984    7.449625    1.704249
    112          1           0        9.874754    7.254169    0.634714
    113          6           0        9.491979    8.502762    2.323705
    114          1           0        8.414728    8.461506    2.136060
    115          1           0        9.857921    9.419024    1.858048
    116          7           0        9.725535    8.562330    3.788167
    117          1           0        9.480217    9.470434    4.183104
    118          1           0        9.158212    7.858420    4.261636
    119          1           0       10.699807    8.359962    4.008388
    120          8           0        7.619864    4.599606    5.285774
    121          1           0        8.038017    4.509035    6.149597
 ---------------------------------------------------------------------

 SCF Done:  E(RB3LYP) =  -2843.65408256     A.U. after    3 cycles

 Alpha  occ. eigenvalues --  -19.29652 -19.24066 -19.23716 -19.18814 -19.16653
 Alpha  occ. eigenvalues --  -19.16039 -19.15685 -19.15443 -19.13879 -19.01737
 Alpha  occ. eigenvalues --  -19.01610 -14.63866 -14.60773 -14.45878 -14.44760
 Alpha  occ. eigenvalues --  -14.42500 -14.40593 -14.39695 -14.39543 -14.37650
 Alpha  occ. eigenvalues --  -10.41579 -10.40864 -10.40768 -10.39044 -10.35731
 Alpha  occ. eigenvalues --  -10.33983 -10.33760 -10.33461 -10.32215 -10.32193
 Alpha  occ. eigenvalues --  -10.31992 -10.31840 -10.30744 -10.30660 -10.29976
 Alpha  occ. eigenvalues --  -10.28297 -10.26446 -10.25957 -10.25774 -10.25686
 Alpha  occ. eigenvalues --  -10.25544 -10.25416 -10.25243 -10.23789 -10.23030
 Alpha  occ. eigenvalues --  -10.22988 -10.22698 -10.22536 -10.22399 -10.22317
 Alpha  occ. eigenvalues --  -10.21902 -10.21852 -10.20475 -10.20197 -10.19947
 Alpha  occ. eigenvalues --  -10.19818 -10.17871 -10.16537 -10.14234  -1.20888
 Alpha  occ. eigenvalues --   -1.19121  -1.17786  -1.14510  -1.11532  -1.11383
 Alpha  occ. eigenvalues --   -1.09284  -1.08090  -1.07744  -1.05682  -1.03861
 Alpha  occ. eigenvalues --   -1.02883  -1.02610  -1.01892  -0.97332  -0.96777
 Alpha  occ. eigenvalues --   -0.96362  -0.96073  -0.95469  -0.94266  -0.91962
 Alpha  occ. eigenvalues --   -0.90616  -0.88267  -0.86729  -0.86473  -0.85976
 Alpha  occ. eigenvalues --   -0.84531  -0.83860  -0.82311  -0.80335  -0.79869
 Alpha  occ. eigenvalues --   -0.79553  -0.79032  -0.77828  -0.77093  -0.76671
 Alpha  occ. eigenvalues --   -0.76386  -0.76158  -0.74593  -0.74457  -0.73635
 Alpha  occ. eigenvalues --   -0.73499  -0.72996  -0.72940  -0.71700  -0.71209
 Alpha  occ. eigenvalues --   -0.70811  -0.70461  -0.68303  -0.67810  -0.66831
 Alpha  occ. eigenvalues --   -0.66042  -0.65667  -0.64202  -0.63909  -0.63275
 Alpha  occ. eigenvalues --   -0.63175  -0.63144  -0.62368  -0.61802  -0.61664
 Alpha  occ. eigenvalues --   -0.61386  -0.60787  -0.60739  -0.60516  -0.60060
 Alpha  occ. eigenvalues --   -0.59154  -0.58541  -0.57961  -0.57531  -0.57186
 Alpha  occ. eigenvalues --   -0.56152  -0.55983  -0.55723  -0.55296  -0.55183
 Alpha  occ. eigenvalues --   -0.54100  -0.53802  -0.53663  -0.52826  -0.52581
 Alpha  occ. eigenvalues --   -0.52379  -0.52263  -0.52011  -0.51828  -0.51329
 Alpha  occ. eigenvalues --   -0.51221  -0.50840  -0.50124  -0.50006  -0.49710
 Alpha  occ. eigenvalues --   -0.49469  -0.49158  -0.48815  -0.48351  -0.47974
 Alpha  occ. eigenvalues --   -0.47758  -0.47676  -0.47493  -0.47374  -0.47240
 Alpha  occ. eigenvalues --   -0.46925  -0.46888  -0.46605  -0.46426  -0.46196
 Alpha  occ. eigenvalues --   -0.45898  -0.45298  -0.45123  -0.44959  -0.44565
 Alpha  occ. eigenvalues --   -0.44255  -0.43741  -0.43620  -0.43381  -0.43294
 Alpha  occ. eigenvalues --   -0.43087  -0.42495  -0.42127  -0.41980  -0.41701
 Alpha  occ. eigenvalues --   -0.41589  -0.40938  -0.40801  -0.40327  -0.39459
 Alpha  occ. eigenvalues --   -0.39257  -0.39023  -0.38885  -0.38358  -0.38203
 Alpha  occ. eigenvalues --   -0.38038  -0.37894  -0.37788  -0.37607  -0.37557
 Alpha  occ. eigenvalues --   -0.37359  -0.36660  -0.36131  -0.36097  -0.35833
 Alpha  occ. eigenvalues --   -0.35716  -0.35440  -0.34466  -0.34019  -0.33864
 Alpha  occ. eigenvalues --   -0.32747  -0.31583  -0.31402  -0.31009  -0.30725
 Alpha  occ. eigenvalues --   -0.30033  -0.29692  -0.29495  -0.29363  -0.29057
 Alpha  occ. eigenvalues --   -0.28613  -0.27113  -0.26564  -0.26074  -0.24704
 Alpha  occ. eigenvalues --   -0.17612  -0.16263  -0.15500
 Alpha virt. eigenvalues --   -0.14804  -0.10790  -0.09802  -0.09646  -0.08480
 Alpha virt. eigenvalues --   -0.07916  -0.05448  -0.05186  -0.05110  -0.04515
 Alpha virt. eigenvalues --   -0.02623  -0.02561  -0.02236  -0.01954  -0.01752

 Mulliken charges:
               1
     1  N   -0.716642
     2  H    0.425666
     3  H    0.425104
     4  H    0.427957
     5  C   -0.149490
     6  H    0.218085
     7  C    0.640337
     8  C   -0.486868
     9  H    0.246801
    10  H    0.181266
    11  H    0.222013
    12  O   -0.508753
    13  N   -0.553279
    14  H    0.346627
    15  C   -0.127509
    16  H    0.205933
    17  C    0.639234
    18  C   -0.342902
    19  H    0.160248
    20  H    0.178201
    21  O   -0.545337
    22  C    0.072413
    23  C   -0.014242
    24  H    0.155967
    25  C    0.073462
    26  C    0.319956
    27  C   -0.207724
    28  H    0.126809
    29  N   -0.707494
    30  H    0.324591
    31  C   -0.149666
    32  H    0.131423
    33  C   -0.162421
    34  H    0.125387
    35  C   -0.140271
    36  H    0.129011
    37  N   -0.607265
    38  H    0.354292
    39  C   -0.035697
    40  H    0.156495
    41  C    0.624743
    42  C   -0.271111
    43  H    0.158994
    44  H    0.154810
    45  O   -0.553270
    46  C   -0.358033
    47  H    0.096904
    48  H    0.135356
    49  C    0.565108
    50  O   -0.593356
    51  O   -0.597669
    52  N   -0.608467
    53  H    0.346580
    54  C   -0.058501
    55  H    0.180620
    56  C    0.638327
    57  C   -0.087066
    58  H    0.151032
    59  O   -0.548144
    60  C   -0.468986
    61  H    0.137291
    62  H    0.145719
    63  H    0.177165
    64  C   -0.442182
    65  H    0.140376
    66  H    0.138689
    67  H    0.148186
    68  N   -0.600518
    69  H    0.368328
    70  C   -0.063334
    71  H    0.169189
    72  C    0.633227
    73  C    0.104832
    74  H    0.103776
    75  O   -0.561361
    76  C   -0.446702
    77  H    0.145110
    78  H    0.196002
    79  H    0.172668
    80  O   -0.629713
    81  H    0.400149
    82  N   -0.604886
    83  H    0.357295
    84  C   -0.038923
    85  H    0.156915
    86  C    0.621122
    87  C   -0.071934
    88  H    0.156901
    89  O   -0.519350
    90  C   -0.470151
    91  H    0.132538
    92  H    0.142186
    93  H    0.160767
    94  C   -0.478681
    95  H    0.156458
    96  H    0.143443
    97  H    0.196674
    98  N   -0.609774
    99  H    0.335834
   100  C   -0.030866
   101  H    0.225457
   102  C    0.584622
   103  C   -0.306487
   104  H    0.110141
   105  H    0.192437
   106  O   -0.445677
   107  C   -0.297574
   108  H    0.135332
   109  H    0.205649
   110  C   -0.298827
   111  H    0.179160
   112  H    0.206233
   113  C   -0.226902
   114  H    0.227712
   115  H    0.229590
   116  N   -0.682037
   117  H    0.401194
   118  H    0.395202
   119  H    0.400853
   120  O   -0.569765
   121  H    0.421639
 Sum of Mulliken charges =   1.00000

 Dipole moment (field-independent basis, Debye):
    X=             14.6433    Y=             38.1899    Z=             -4.8373  Tot=             41.1861
 Quadrupole moment (field-independent basis, Debye-Ang):
   XX=            104.3939   YY=            -34.1412   ZZ=            -13.8931
   XY=            362.5278   XZ=            340.1845   YZ=            119.3599

 Normal termination of Gaussian 16 at Sat Jun 25 09:31:20 2022.
