 Gaussian 16, Revision C.01,
 Gaussian 16:  ES64L-G16RevC.01  3-Jul-2019

 ----------------------------------------------------------------------
 # B3LYP/6-31G* empiricaldispersion=gd3 guess=read geom=check nosymm in
 tegral(ultrafinegrid)
 ----------------------------------------------------------------------

 -----------------------------------------------------
 Candidate Structure: Conf:34 Charge calc in gas phase
 -----------------------------------------------------
 Structure from the checkpoint file:  "conf-34.chk"
 Charge =  1 Multiplicity = 1

                          Input orientation:
 ---------------------------------------------------------------------
 Center     Atomic      Atomic             Coordinates (Angstroms)
 Number     Number       Type             X           Y           Z
 ---------------------------------------------------------------------
      1          7           0       -5.168018    2.682708   -7.351683
      2          1           0       -5.550440    1.820489   -7.782733
      3          1           0       -4.891687    3.328128   -8.095000
      4          1           0       -5.902749    3.109036   -6.748297
      5          6           0       -4.035518    2.367812   -6.394958
      6          1           0       -3.515228    1.477846   -6.749175
      7          6           0       -4.785360    2.110770   -5.067082
      8          6           0       -3.074555    3.544029   -6.272972
      9          1           0       -2.250333    3.217710   -5.629556
     10          1           0       -2.653361    3.810917   -7.249686
     11          1           0       -3.571323    4.418452   -5.838331
     12          8           0       -5.801807    2.775088   -4.835757
     13          7           0       -4.233968    1.174645   -4.288560
     14          1           0       -3.473151    0.630779   -4.726450
     15          6           0       -4.883670    0.618648   -3.107073
     16          1           0       -5.552213    1.384667   -2.703448
     17          6           0       -3.852226    0.218638   -2.035880
     18          6           0       -5.721423   -0.642101   -3.479812
     19          1           0       -5.028304   -1.436600   -3.782904
     20          1           0       -6.214694   -0.988612   -2.568172
     21          8           0       -4.166733   -0.514140   -1.103773
     22          6           0       -6.702272   -0.362725   -4.576409
     23          6           0       -7.995656    0.073273   -4.434361
     24          1           0       -8.578625    0.210074   -3.533900
     25          6           0       -6.425814   -0.351979   -5.991585
     26          6           0       -7.599913    0.125946   -6.647454
     27          6           0       -5.297435   -0.676963   -6.766789
     28          1           0       -4.382821   -1.034529   -6.301574
     29          7           0       -8.536593    0.371404   -5.669818
     30          1           0       -9.489975    0.658423   -5.831541
     31          6           0       -6.522862   -0.009117   -8.776535
     32          1           0       -6.543168    0.101631   -9.857056
     33          6           0       -7.662088    0.305162   -8.033692
     34          1           0       -8.564834    0.668271   -8.517218
     35          6           0       -5.353171   -0.501300   -8.147801
     36          1           0       -4.488847   -0.754985   -8.754835
     37          7           0       -2.575072    0.649233   -2.240059
     38          1           0       -2.368206    1.318366   -2.971993
     39          6           0       -1.461630    0.033969   -1.530236
     40          1           0       -1.805978   -0.964774   -1.245525
     41          6           0       -1.171948    0.852829   -0.268401
     42          6           0       -0.187224   -0.097341   -2.395891
     43          1           0        0.349537    0.849117   -2.395469
     44          1           0        0.473727   -0.802173   -1.882354
     45          8           0       -0.739252    2.023081   -0.340007
     46          6           0       -0.427879   -0.531739   -3.848995
     47          1           0        0.548111   -0.715947   -4.317306
     48          1           0       -0.983915   -1.472499   -3.900757
     49          6           0       -1.175360    0.502649   -4.711888
     50          8           0       -0.963142    1.747251   -4.489425
     51          8           0       -2.012583    0.074724   -5.544205
     52          7           0       -1.440229    0.265079    0.900885
     53          1           0       -1.776624   -0.689336    0.893612
     54          6           0       -1.131418    0.865877    2.206233
     55          1           0       -1.318605    1.940927    2.115583
     56          6           0        0.372651    0.596209    2.419566
     57          6           0       -2.021260    0.268537    3.304711
     58          1           0       -1.796375   -0.805915    3.351218
     59          8           0        0.777287   -0.439621    2.947204
     60          6           0       -1.663732    0.883932    4.664691
     61          1           0       -1.819414    1.970488    4.656206
     62          1           0       -2.301680    0.464035    5.449005
     63          1           0       -0.623000    0.681011    4.932743
     64          6           0       -3.508428    0.471354    2.976121
     65          1           0       -3.755557    1.540514    2.954265
     66          1           0       -3.791311    0.046409    2.006697
     67          1           0       -4.131542    0.002015    3.744404
     68          7           0        1.189625    1.545357    1.893412
     69          1           0        0.777067    2.259340    1.301643
     70          6           0        2.593361    1.261700    1.654832
     71          1           0        2.962162    0.691000    2.513060
     72          6           0        3.324461    2.596693    1.504971
     73          6           0        2.798987    0.411861    0.353889
     74          1           0        2.623429    1.074231   -0.501140
     75          8           0        2.807370    3.526472    0.879296
     76          6           0        4.209208   -0.167846    0.271061
     77          1           0        4.963040    0.622303    0.195261
     78          1           0        4.420919   -0.792328    1.149316
     79          1           0        4.285829   -0.802482   -0.616504
     80          8           0        1.799357   -0.594836    0.236158
     81          1           0        1.754258   -1.079309    1.079777
     82          7           0        4.554739    2.681711    2.062611
     83          1           0        4.977076    1.830656    2.409319
     84          6           0        5.447931    3.798213    1.766096
     85          1           0        4.922191    4.721912    2.034972
     86          6           0        5.746559    3.797745    0.251856
     87          6           0        6.745212    3.682838    2.601279
     88          1           0        7.217719    2.729084    2.321807
     89          8           0        5.902162    2.749116   -0.368069
     90          6           0        7.726637    4.817047    2.268837
     91          1           0        7.280047    5.797198    2.481032
     92          1           0        8.038531    4.809631    1.220727
     93          1           0        8.625759    4.725982    2.886162
     94          6           0        6.433067    3.671978    4.105861
     95          1           0        5.964733    4.616815    4.407875
     96          1           0        7.356266    3.556186    4.683015
     97          1           0        5.755902    2.860982    4.392077
     98          7           0        5.807080    5.021892   -0.331140
     99          1           0        5.767073    5.861598    0.232640
    100          6           0        6.064307    5.203322   -1.748451
    101          1           0        6.603537    4.322216   -2.109344
    102          6           0        6.940580    6.435598   -1.916819
    103          6           0        4.750546    5.364558   -2.562060
    104          1           0        5.006157    5.492754   -3.619879
    105          1           0        4.253629    6.287377   -2.231570
    106          8           0        7.153439    7.251527   -1.046417
    107          6           0        3.819550    4.170376   -2.341876
    108          1           0        4.271151    3.263366   -2.762079
    109          1           0        3.735666    4.001536   -1.266480
    110          6           0        2.390528    4.344439   -2.880698
    111          1           0        2.008678    5.338641   -2.605837
    112          1           0        2.353288    4.269887   -3.975194
    113          6           0        1.527024    3.273840   -2.222047
    114          1           0        1.581685    3.364741   -1.135211
    115          1           0        1.882074    2.275192   -2.488944
    116          7           0        0.070013    3.319403   -2.593230
    117          1           0       -0.455534    2.893868   -1.788323
    118          1           0       -0.253077    4.278292   -2.737750
    119          1           0       -0.183634    2.721846   -3.438082
    120          8           0        7.416785    6.532312   -3.172682
    121          1           0        7.941053    7.354793   -3.220278
 ---------------------------------------------------------------------

 SCF Done:  E(RB3LYP) =  -2843.88950510     A.U. after    3 cycles

 Alpha  occ. eigenvalues --  -19.27519 -19.22309 -19.22199 -19.21982 -19.21610
 Alpha  occ. eigenvalues --  -19.20417 -19.19705 -19.18985 -19.18937 -19.18630
 Alpha  occ. eigenvalues --  -19.17396 -14.55578 -14.50524 -14.46460 -14.45852
 Alpha  occ. eigenvalues --  -14.44888 -14.44591 -14.44127 -14.43653 -14.43089
 Alpha  occ. eigenvalues --  -10.39949 -10.39131 -10.38431 -10.37257 -10.37049
 Alpha  occ. eigenvalues --  -10.36143 -10.36118 -10.35951 -10.35387 -10.32296
 Alpha  occ. eigenvalues --  -10.32041 -10.32013 -10.31565 -10.31449 -10.31034
 Alpha  occ. eigenvalues --  -10.30942 -10.30891 -10.30853 -10.30110 -10.28639
 Alpha  occ. eigenvalues --  -10.28285 -10.28199 -10.27851 -10.27374 -10.27363
 Alpha  occ. eigenvalues --  -10.27255 -10.27244 -10.27180 -10.27042 -10.26920
 Alpha  occ. eigenvalues --  -10.26273 -10.26271 -10.25935 -10.25838 -10.24453
 Alpha  occ. eigenvalues --  -10.24365 -10.23802 -10.23696 -10.23446  -1.18479
 Alpha  occ. eigenvalues --   -1.14614  -1.13577  -1.12473  -1.11699  -1.11093
 Alpha  occ. eigenvalues --   -1.11055  -1.10738  -1.09676  -1.09577  -1.08735
 Alpha  occ. eigenvalues --   -1.06403  -1.06144  -1.02851  -1.02142  -1.01904
 Alpha  occ. eigenvalues --   -1.00974  -1.00365  -1.00334  -0.99655  -0.92932
 Alpha  occ. eigenvalues --   -0.89525  -0.89369  -0.88456  -0.88188  -0.87935
 Alpha  occ. eigenvalues --   -0.86743  -0.85242  -0.84832  -0.84257  -0.82380
 Alpha  occ. eigenvalues --   -0.81176  -0.80345  -0.79817  -0.78959  -0.77925
 Alpha  occ. eigenvalues --   -0.76818  -0.75852  -0.75246  -0.74602  -0.74033
 Alpha  occ. eigenvalues --   -0.72834  -0.70975  -0.70465  -0.70114  -0.69525
 Alpha  occ. eigenvalues --   -0.69034  -0.68558  -0.68233  -0.68125  -0.67941
 Alpha  occ. eigenvalues --   -0.67706  -0.66974  -0.66813  -0.66236  -0.66029
 Alpha  occ. eigenvalues --   -0.65522  -0.65143  -0.64886  -0.64423  -0.63620
 Alpha  occ. eigenvalues --   -0.62863  -0.61941  -0.61336  -0.60289  -0.59595
 Alpha  occ. eigenvalues --   -0.59056  -0.58551  -0.58414  -0.57689  -0.57549
 Alpha  occ. eigenvalues --   -0.57291  -0.57177  -0.57018  -0.56881  -0.56395
 Alpha  occ. eigenvalues --   -0.55961  -0.55938  -0.55763  -0.54934  -0.54420
 Alpha  occ. eigenvalues --   -0.54268  -0.53983  -0.53712  -0.52854  -0.52560
 Alpha  occ. eigenvalues --   -0.52469  -0.52225  -0.51989  -0.51823  -0.51649
 Alpha  occ. eigenvalues --   -0.51259  -0.50946  -0.50824  -0.50615  -0.50379
 Alpha  occ. eigenvalues --   -0.50113  -0.49872  -0.49712  -0.49262  -0.49130
 Alpha  occ. eigenvalues --   -0.48982  -0.48803  -0.48722  -0.48551  -0.48363
 Alpha  occ. eigenvalues --   -0.48214  -0.48055  -0.47603  -0.47281  -0.47189
 Alpha  occ. eigenvalues --   -0.46891  -0.46853  -0.46451  -0.46394  -0.46127
 Alpha  occ. eigenvalues --   -0.45932  -0.45819  -0.45788  -0.45137  -0.44921
 Alpha  occ. eigenvalues --   -0.44704  -0.44574  -0.44454  -0.44180  -0.44123
 Alpha  occ. eigenvalues --   -0.43524  -0.43411  -0.43212  -0.42812  -0.42502
 Alpha  occ. eigenvalues --   -0.42402  -0.42336  -0.41759  -0.41491  -0.41410
 Alpha  occ. eigenvalues --   -0.41106  -0.40981  -0.40779  -0.40288  -0.40219
 Alpha  occ. eigenvalues --   -0.39999  -0.39675  -0.39487  -0.37233  -0.36916
 Alpha  occ. eigenvalues --   -0.36480  -0.36311  -0.35941  -0.35713  -0.35160
 Alpha  occ. eigenvalues --   -0.34725  -0.34447  -0.34187  -0.33552  -0.33112
 Alpha  occ. eigenvalues --   -0.33035  -0.32922  -0.32394  -0.32219  -0.31539
 Alpha  occ. eigenvalues --   -0.31430  -0.31319  -0.28648
 Alpha virt. eigenvalues --   -0.10237  -0.08743  -0.08181  -0.06974  -0.06846
 Alpha virt. eigenvalues --   -0.06708  -0.06486  -0.05607  -0.05221  -0.04843
 Alpha virt. eigenvalues --   -0.03753  -0.03245  -0.01801  -0.00344  -0.00211

 Mulliken charges:
               1
     1  N   -0.763002
     2  H    0.424094
     3  H    0.394564
     4  H    0.411165
     5  C   -0.107545
     6  H    0.236420
     7  C    0.633997
     8  C   -0.497017
     9  H    0.232431
    10  H    0.161836
    11  H    0.168041
    12  O   -0.549343
    13  N   -0.659133
    14  H    0.416065
    15  C   -0.062328
    16  H    0.203050
    17  C    0.626140
    18  C   -0.361575
    19  H    0.164785
    20  H    0.191835
    21  O   -0.525660
    22  C    0.078108
    23  C    0.026891
    24  H    0.173284
    25  C    0.055737
    26  C    0.321572
    27  C   -0.229408
    28  H    0.177485
    29  N   -0.683468
    30  H    0.342684
    31  C   -0.203351
    32  H    0.150139
    33  C   -0.180083
    34  H    0.148787
    35  C   -0.189628
    36  H    0.153478
    37  N   -0.637542
    38  H    0.359124
    39  C   -0.059458
    40  H    0.176376
    41  C    0.696471
    42  C   -0.312742
    43  H    0.126592
    44  H    0.199656
    45  O   -0.605061
    46  C   -0.340417
    47  H    0.171437
    48  H    0.164200
    49  C    0.574213
    50  O   -0.612106
    51  O   -0.569547
    52  N   -0.584700
    53  H    0.360763
    54  C   -0.046754
    55  H    0.170156
    56  C    0.636446
    57  C   -0.103557
    58  H    0.153919
    59  O   -0.553503
    60  C   -0.462679
    61  H    0.142521
    62  H    0.161047
    63  H    0.173895
    64  C   -0.460925
    65  H    0.144748
    66  H    0.163354
    67  H    0.161158
    68  N   -0.593573
    69  H    0.365807
    70  C   -0.101780
    71  H    0.174307
    72  C    0.646274
    73  C    0.149471
    74  H    0.137166
    75  O   -0.549038
    76  C   -0.499291
    77  H    0.195569
    78  H    0.140756
    79  H    0.168050
    80  O   -0.639591
    81  H    0.413567
    82  N   -0.599896
    83  H    0.345042
    84  C   -0.025106
    85  H    0.164319
    86  C    0.631504
    87  C   -0.117974
    88  H    0.149133
    89  O   -0.535454
    90  C   -0.465222
    91  H    0.149508
    92  H    0.165913
    93  H    0.166492
    94  C   -0.445882
    95  H    0.154701
    96  H    0.164994
    97  H    0.147237
    98  N   -0.597327
    99  H    0.351019
   100  C   -0.049405
   101  H    0.207483
   102  C    0.586316
   103  C   -0.267874
   104  H    0.167830
   105  H    0.143027
   106  O   -0.461824
   107  C   -0.295775
   108  H    0.158569
   109  H    0.200956
   110  C   -0.279927
   111  H    0.142529
   112  H    0.157044
   113  C   -0.202323
   114  H    0.233166
   115  H    0.195219
   116  N   -0.811943
   117  H    0.427173
   118  H    0.372990
   119  H    0.433460
   120  O   -0.560612
   121  H    0.425098
 Sum of Mulliken charges =   1.00000

 Dipole moment (field-independent basis, Debye):
    X=             -7.8980    Y=             16.0815    Z=            -18.7564  Tot=             25.9383
 Quadrupole moment (field-independent basis, Debye-Ang):
   XX=           -174.5974   YY=           -281.8772   ZZ=           -180.9257
   XY=              6.4035   XZ=            113.8926   YZ=            -68.2907

 Normal termination of Gaussian 16 at Sat Jun 25 09:17:23 2022.
