 Gaussian 16, Revision C.01,
 Gaussian 16:  ES64L-G16RevC.01  3-Jul-2019

 ----------------------------------------------------------------------
 # B3LYP/6-31G* empiricaldispersion=gd3 guess=read geom=check nosymm in
 tegral(ultrafinegrid)
 ----------------------------------------------------------------------

 ------------------------------------------------------
 Candidate Structure: Conf:231 Charge calc in gas phase
 ------------------------------------------------------
 Structure from the checkpoint file:  "conf-231.chk"
 Charge =  1 Multiplicity = 1

                          Input orientation:
 ---------------------------------------------------------------------
 Center     Atomic      Atomic             Coordinates (Angstroms)
 Number     Number       Type             X           Y           Z
 ---------------------------------------------------------------------
      1          7           0       -5.470340    0.861755   -5.829966
      2          1           0       -5.853574    1.538080   -5.168431
      3          1           0       -5.900865    1.045478   -6.735289
      4          1           0       -3.724728    1.439881   -6.091149
      5          6           0       -5.845468   -0.492572   -5.375906
      6          1           0       -6.928318   -0.669859   -5.495070
      7          6           0       -5.596075   -0.544359   -3.857890
      8          6           0       -5.087343   -1.543442   -6.192604
      9          1           0       -5.445814   -2.558573   -5.989105
     10          1           0       -5.241302   -1.360415   -7.260997
     11          1           0       -4.011949   -1.489863   -5.993812
     12          8           0       -5.678523    0.487129   -3.175867
     13          7           0       -5.290586   -1.741944   -3.316530
     14          1           0       -5.291912   -2.564489   -3.903976
     15          6           0       -5.139906   -1.939932   -1.868138
     16          1           0       -5.806122   -1.217645   -1.383974
     17          6           0       -3.677704   -1.611044   -1.490935
     18          6           0       -5.523269   -3.375066   -1.456867
     19          1           0       -4.711557   -4.049017   -1.750766
     20          1           0       -5.554028   -3.406441   -0.362647
     21          8           0       -2.870891   -2.481981   -1.148716
     22          6           0       -6.822828   -3.820961   -2.058192
     23          6           0       -8.091620   -3.622589   -1.571990
     24          1           0       -8.410970   -3.180640   -0.637814
     25          6           0       -6.974564   -4.453078   -3.345036
     26          6           0       -8.368915   -4.597622   -3.584185
     27          6           0       -6.066280   -4.903931   -4.321847
     28          1           0       -4.992679   -4.852844   -4.147448
     29          7           0       -9.022319   -4.083903   -2.483121
     30          1           0      -10.020225   -4.095973   -2.338959
     31          6           0       -7.947808   -5.580690   -5.716449
     32          1           0       -8.304493   -6.021977   -6.642364
     33          6           0       -8.868716   -5.160834   -4.762580
     34          1           0       -9.937290   -5.265833   -4.928730
     35          6           0       -6.559503   -5.456915   -5.498858
     36          1           0       -5.868339   -5.816073   -6.255935
     37          7           0       -3.336261   -0.307597   -1.635917
     38          1           0       -4.064524    0.329963   -1.952552
     39          6           0       -1.932354    0.091978   -1.793250
     40          1           0       -1.411522   -0.781102   -2.208863
     41          6           0       -1.296038    0.382745   -0.423044
     42          6           0       -1.786947    1.267084   -2.760460
     43          1           0       -2.170639    2.181192   -2.295742
     44          1           0       -0.723406    1.444056   -2.944735
     45          8           0       -0.962656    1.523748   -0.074215
     46          6           0       -2.495828    0.996369   -4.087241
     47          1           0       -2.323659   -0.040731   -4.414262
     48          1           0       -3.574991    1.100260   -3.974658
     49          6           0       -2.041439    1.900850   -5.228351
     50          8           0       -2.876073    1.933829   -6.277430
     51          8           0       -0.996723    2.515359   -5.218255
     52          7           0       -1.111307   -0.714513    0.343520
     53          1           0       -1.456986   -1.602349   -0.021681
     54          6           0       -0.607775   -0.641271    1.717530
     55          1           0       -0.993800    0.290602    2.151178
     56          6           0        0.931681   -0.533015    1.640884
     57          6           0       -1.073476   -1.832991    2.571411
     58          1           0       -0.564206   -2.728064    2.191923
     59          8           0        1.696212   -1.462208    1.912478
     60          6           0       -0.650792   -1.623456    4.034182
     61          1           0       -1.138721   -0.735310    4.456617
     62          1           0       -0.949300   -2.484713    4.640631
     63          1           0        0.431898   -1.506189    4.130594
     64          6           0       -2.594467   -2.034090    2.474432
     65          1           0       -3.128245   -1.121193    2.768323
     66          1           0       -2.920317   -2.310198    1.467020
     67          1           0       -2.906165   -2.835309    3.152858
     68          7           0        1.379354    0.673379    1.196216
     69          1           0        0.683369    1.355959    0.888278
     70          6           0        2.778421    0.835821    0.834857
     71          1           0        3.138196   -0.119977    0.435380
     72          6           0        3.591598    1.167362    2.102388
     73          6           0        3.001449    1.901651   -0.252151
     74          1           0        4.073451    1.844282   -0.502040
     75          8           0        3.893413    2.346927    2.393055
     76          6           0        2.171628    1.693841   -1.508771
     77          1           0        2.336921    0.690608   -1.915208
     78          1           0        1.108026    1.825320   -1.297600
     79          1           0        2.456533    2.420752   -2.276898
     80          8           0        2.710471    3.223361    0.270128
     81          1           0        3.057881    3.178994    1.207273
     82          7           0        3.919914    0.127340    2.867173
     83          1           0        3.535907   -0.778149    2.606669
     84          6           0        4.682187    0.283943    4.102859
     85          1           0        4.097816    0.906192    4.795490
     86          6           0        6.008045    0.989333    3.746693
     87          6           0        4.946562   -1.090092    4.755777
     88          1           0        5.521965   -1.675790    4.026218
     89          8           0        6.721681    0.577337    2.839590
     90          6           0        5.794637   -0.921378    6.025610
     91          1           0        5.266016   -0.312752    6.770707
     92          1           0        6.757540   -0.442622    5.823397
     93          1           0        5.992590   -1.898462    6.477086
     94          6           0        3.632926   -1.821675    5.079151
     95          1           0        3.030183   -1.237652    5.786491
     96          1           0        3.849455   -2.787992    5.546190
     97          1           0        3.015059   -2.019025    4.196373
     98          7           0        6.306838    2.071483    4.511500
     99          1           0        5.631774    2.386334    5.193669
    100          6           0        7.463119    2.916384    4.271718
    101          1           0        8.178900    2.305044    3.708529
    102          6           0        8.169691    3.317349    5.566608
    103          6           0        7.093146    4.166165    3.441656
    104          1           0        7.889252    4.909340    3.542777
    105          1           0        6.187978    4.602423    3.885878
    106          8           0        9.005440    4.188774    5.627045
    107          6           0        6.845739    3.826768    1.960670
    108          1           0        7.801078    3.850793    1.419445
    109          1           0        6.459381    2.808490    1.869589
    110          6           0        5.831546    4.771231    1.300293
    111          1           0        4.860662    4.602676    1.780142
    112          1           0        6.103184    5.823335    1.459307
    113          6           0        5.723647    4.488735   -0.197688
    114          1           0        5.735150    3.414643   -0.397968
    115          1           0        6.532394    4.955704   -0.764941
    116          7           0        4.406361    4.992243   -0.755495
    117          1           0        4.385351    4.966980   -1.779603
    118          1           0        3.612277    4.352276   -0.385342
    119          1           0        4.223276    5.958326   -0.467084
    120          8           0        7.773517    2.585980    6.632478
    121          1           0        8.300865    2.898242    7.393063
 ---------------------------------------------------------------------

 SCF Done:  E(RB3LYP) =  -2843.86481598     A.U. after    2 cycles

 Alpha  occ. eigenvalues --  -19.27702 -19.26868 -19.23074 -19.21664 -19.21404
 Alpha  occ. eigenvalues --  -19.20876 -19.20441 -19.20413 -19.20249 -19.19280
 Alpha  occ. eigenvalues --  -19.16831 -14.57077 -14.45577 -14.44791 -14.44505
 Alpha  occ. eigenvalues --  -14.44417 -14.44395 -14.43730 -14.43620 -14.41311
 Alpha  occ. eigenvalues --  -10.39999 -10.39111 -10.37386 -10.37332 -10.37224
 Alpha  occ. eigenvalues --  -10.36875 -10.36734 -10.36720 -10.35658 -10.35534
 Alpha  occ. eigenvalues --  -10.33494 -10.32241 -10.31827 -10.31502 -10.31201
 Alpha  occ. eigenvalues --  -10.31058 -10.31024 -10.30649 -10.28429 -10.28247
 Alpha  occ. eigenvalues --  -10.27907 -10.27582 -10.27467 -10.27209 -10.26474
 Alpha  occ. eigenvalues --  -10.26401 -10.25916 -10.25583 -10.25415 -10.25210
 Alpha  occ. eigenvalues --  -10.25192 -10.24907 -10.24784 -10.24721 -10.24608
 Alpha  occ. eigenvalues --  -10.24551 -10.24512 -10.23885 -10.23864  -1.18465
 Alpha  occ. eigenvalues --   -1.15522  -1.13128  -1.12704  -1.12584  -1.12474
 Alpha  occ. eigenvalues --   -1.11813  -1.11476  -1.11269  -1.11173  -1.09448
 Alpha  occ. eigenvalues --   -1.04614  -1.04269  -1.02565  -1.01309  -1.01306
 Alpha  occ. eigenvalues --   -1.01099  -1.00649  -0.99777  -0.97646  -0.91561
 Alpha  occ. eigenvalues --   -0.90199  -0.89393  -0.88297  -0.87757  -0.87283
 Alpha  occ. eigenvalues --   -0.86506  -0.86407  -0.83948  -0.82560  -0.81671
 Alpha  occ. eigenvalues --   -0.81525  -0.80353  -0.79813  -0.78492  -0.78012
 Alpha  occ. eigenvalues --   -0.76959  -0.75685  -0.75424  -0.74858  -0.73976
 Alpha  occ. eigenvalues --   -0.72077  -0.71519  -0.70986  -0.70460  -0.70075
 Alpha  occ. eigenvalues --   -0.69186  -0.68601  -0.68171  -0.67997  -0.67941
 Alpha  occ. eigenvalues --   -0.66936  -0.66628  -0.66394  -0.65753  -0.65292
 Alpha  occ. eigenvalues --   -0.65268  -0.64182  -0.63877  -0.62953  -0.62809
 Alpha  occ. eigenvalues --   -0.62093  -0.61395  -0.60872  -0.60682  -0.60076
 Alpha  occ. eigenvalues --   -0.59760  -0.59199  -0.58910  -0.58832  -0.58370
 Alpha  occ. eigenvalues --   -0.57669  -0.57508  -0.56798  -0.56110  -0.55995
 Alpha  occ. eigenvalues --   -0.55858  -0.55688  -0.54803  -0.54771  -0.54554
 Alpha  occ. eigenvalues --   -0.54442  -0.53923  -0.53433  -0.53203  -0.53107
 Alpha  occ. eigenvalues --   -0.52845  -0.52082  -0.52017  -0.51180  -0.50935
 Alpha  occ. eigenvalues --   -0.50810  -0.50687  -0.50380  -0.50330  -0.50072
 Alpha  occ. eigenvalues --   -0.49899  -0.49670  -0.49277  -0.49180  -0.48935
 Alpha  occ. eigenvalues --   -0.48602  -0.48535  -0.48331  -0.48123  -0.48073
 Alpha  occ. eigenvalues --   -0.47973  -0.47517  -0.47402  -0.47316  -0.47108
 Alpha  occ. eigenvalues --   -0.46784  -0.46671  -0.46302  -0.46160  -0.46060
 Alpha  occ. eigenvalues --   -0.45922  -0.45585  -0.45434  -0.45304  -0.45043
 Alpha  occ. eigenvalues --   -0.44928  -0.44742  -0.44608  -0.44511  -0.44337
 Alpha  occ. eigenvalues --   -0.44073  -0.43847  -0.43402  -0.43092  -0.42853
 Alpha  occ. eigenvalues --   -0.42350  -0.41546  -0.41474  -0.41407  -0.41156
 Alpha  occ. eigenvalues --   -0.40724  -0.40643  -0.40380  -0.39916  -0.39892
 Alpha  occ. eigenvalues --   -0.39823  -0.39680  -0.39579  -0.39479  -0.37636
 Alpha  occ. eigenvalues --   -0.36635  -0.36354  -0.36253  -0.35982  -0.35665
 Alpha  occ. eigenvalues --   -0.35143  -0.34494  -0.33996  -0.33758  -0.33426
 Alpha  occ. eigenvalues --   -0.33268  -0.32916  -0.32551  -0.32343  -0.32164
 Alpha  occ. eigenvalues --   -0.30647  -0.28609  -0.26698
 Alpha virt. eigenvalues --   -0.09421  -0.08748  -0.07895  -0.07543  -0.07200
 Alpha virt. eigenvalues --   -0.07076  -0.05939  -0.05702  -0.05393  -0.03995
 Alpha virt. eigenvalues --   -0.03987  -0.02970  -0.02638  -0.01375  -0.00744

 Mulliken charges:
               1
     1  N   -0.766026
     2  H    0.346729
     3  H    0.331591
     4  H    0.460413
     5  C   -0.057403
     6  H    0.175090
     7  C    0.637629
     8  C   -0.478496
     9  H    0.171769
    10  H    0.170734
    11  H    0.166984
    12  O   -0.559583
    13  N   -0.612480
    14  H    0.364731
    15  C   -0.052076
    16  H    0.189149
    17  C    0.638956
    18  C   -0.397285
    19  H    0.184799
    20  H    0.171095
    21  O   -0.546014
    22  C    0.070848
    23  C    0.006212
    24  H    0.160617
    25  C    0.072521
    26  C    0.316556
    27  C   -0.250357
    28  H    0.133824
    29  N   -0.688718
    30  H    0.338469
    31  C   -0.153526
    32  H    0.141188
    33  C   -0.157532
    34  H    0.139413
    35  C   -0.139404
    36  H    0.136708
    37  N   -0.612632
    38  H    0.380577
    39  C   -0.074843
    40  H    0.176097
    41  C    0.644019
    42  C   -0.286533
    43  H    0.175086
    44  H    0.178592
    45  O   -0.559145
    46  C   -0.432213
    47  H    0.164322
    48  H    0.181746
    49  C    0.607062
    50  O   -0.616116
    51  O   -0.473121
    52  N   -0.627311
    53  H    0.386744
    54  C   -0.036342
    55  H    0.173613
    56  C    0.630245
    57  C   -0.099643
    58  H    0.159253
    59  O   -0.544386
    60  C   -0.467156
    61  H    0.142369
    62  H    0.159281
    63  H    0.165012
    64  C   -0.468317
    65  H    0.144139
    66  H    0.161336
    67  H    0.157469
    68  N   -0.622557
    69  H    0.391854
    70  C   -0.084317
    71  H    0.192974
    72  C    0.674838
    73  C    0.086168
    74  H    0.134064
    75  O   -0.605090
    76  C   -0.471723
    77  H    0.167649
    78  H    0.209439
    79  H    0.146910
    80  O   -0.694993
    81  H    0.454832
    82  N   -0.613356
    83  H    0.388512
    84  C   -0.003199
    85  H    0.147384
    86  C    0.639440
    87  C   -0.119019
    88  H    0.165273
    89  O   -0.542301
    90  C   -0.463738
    91  H    0.143347
    92  H    0.172173
    93  H    0.165419
    94  C   -0.478727
    95  H    0.148625
    96  H    0.167077
    97  H    0.174890
    98  N   -0.584720
    99  H    0.338127
   100  C   -0.072874
   101  H    0.222006
   102  C    0.585384
   103  C   -0.268740
   104  H    0.187625
   105  H    0.142715
   106  O   -0.448256
   107  C   -0.284665
   108  H    0.153640
   109  H    0.194530
   110  C   -0.301484
   111  H    0.177601
   112  H    0.163461
   113  C   -0.198868
   114  H    0.211920
   115  H    0.209220
   116  N   -0.772735
   117  H    0.403577
   118  H    0.452445
   119  H    0.401599
   120  O   -0.564239
   121  H    0.424557
 Sum of Mulliken charges =   1.00000

 Dipole moment (field-independent basis, Debye):
    X=              2.2845    Y=              7.6491    Z=              0.4526  Tot=              7.9958
 Quadrupole moment (field-independent basis, Debye-Ang):
   XX=           -151.6613   YY=           -273.6199   ZZ=           -277.2395
   XY=            108.5995   XZ=             69.9915   YZ=             21.6713

 Normal termination of Gaussian 16 at Sat Jun 25 09:16:10 2022.
