 Gaussian 16, Revision C.01,
 Gaussian 16:  ES64L-G16RevC.01  3-Jul-2019

 -------------------------------------------------------------------
 # B3LYP/6-31G* guess=read geom=check nosymm integral(ultrafinegrid)
 -------------------------------------------------------------------

 ------------------------------------------------------
 Candidate Structure: Conf:883 Charge calc in gas phase
 ------------------------------------------------------
 Structure from the checkpoint file:  "conf-883.chk"
 Charge =  1 Multiplicity = 1

                          Input orientation:
 ---------------------------------------------------------------------
 Center     Atomic      Atomic             Coordinates (Angstroms)
 Number     Number       Type             X           Y           Z
 ---------------------------------------------------------------------
      1          7           0       -5.746347   -3.153518   -8.687378
      2          1           0       -6.732730   -3.412658   -8.637414
      3          1           0       -5.341990   -3.551679   -9.532549
      4          1           0       -5.698825   -2.133720   -8.746760
      5          6           0       -5.006780   -3.579903   -7.481949
      6          1           0       -5.253644   -4.620745   -7.258502
      7          6           0       -5.426202   -2.708579   -6.298668
      8          6           0       -3.504054   -3.444059   -7.696893
      9          1           0       -2.947717   -3.758344   -6.810246
     10          1           0       -3.179254   -4.048011   -8.547709
     11          1           0       -3.259983   -2.398613   -7.900846
     12          8           0       -5.803495   -1.551957   -6.459368
     13          7           0       -5.316478   -3.318911   -5.083359
     14          1           0       -4.742355   -4.148418   -5.069126
     15          6           0       -5.165739   -2.568057   -3.851242
     16          1           0       -5.402602   -1.524436   -4.047367
     17          6           0       -3.696726   -2.710784   -3.427697
     18          6           0       -6.080970   -3.087884   -2.737608
     19          1           0       -5.889730   -4.151401   -2.569083
     20          1           0       -5.813667   -2.580961   -1.803013
     21          8           0       -3.001516   -3.629875   -3.827980
     22          6           0       -7.539608   -2.864029   -3.026578
     23          6           0       -8.123276   -2.222368   -4.087476
     24          1           0       -7.654370   -1.774050   -4.946052
     25          6           0       -8.626035   -3.297232   -2.179491
     26          6           0       -9.825186   -2.898611   -2.789797
     27          6           0       -8.663322   -3.991945   -0.964280
     28          1           0       -7.748543   -4.310943   -0.474029
     29          7           0       -9.493521   -2.249538   -3.956676
     30          1           0      -10.147539   -1.836703   -4.594646
     31          6           0      -11.090479   -3.853637   -1.024164
     32          1           0      -12.040014   -4.081149   -0.554963
     33          6           0      -11.075280   -3.166483   -2.228747
     34          1           0      -11.989885   -2.849432   -2.717306
     35          6           0       -9.897775   -4.261958   -0.398577
     36          1           0       -9.952117   -4.797348    0.542007
     37          7           0       -3.245343   -1.781410   -2.551867
     38          1           0       -3.854473   -1.101334   -2.123893
     39          6           0       -1.920962   -1.874095   -1.980995
     40          1           0       -1.727793   -2.914617   -1.710387
     41          6           0       -1.927366   -0.992038   -0.724489
     42          6           0       -0.831637   -1.464038   -2.981865
     43          1           0        0.151159   -1.646884   -2.538319
     44          1           0       -0.925945   -2.114144   -3.851314
     45          8           0       -2.851297   -0.237994   -0.468221
     46          6           0       -0.898903   -0.005859   -3.427105
     47          1           0       -1.854161    0.219767   -3.899165
     48          1           0       -0.733179    0.667332   -2.585593
     49          6           0        0.250960    0.147264   -4.449822
     50          8           0        1.368025    0.361416   -3.949277
     51          8           0       -0.057890    0.012044   -5.647150
     52          7           0       -0.830724   -1.115841    0.059440
     53          1           0       -0.050740   -1.681686   -0.239272
     54          6           0       -0.587622   -0.259638    1.210733
     55          1           0       -1.235582    0.614921    1.121767
     56          6           0        0.877383    0.143391    1.141708
     57          6           0       -0.893167   -0.968631    2.545432
     58          1           0       -0.394565   -1.939461    2.500585
     59          8           0        1.756074   -0.701122    0.984786
     60          6           0       -0.347112   -0.204773    3.755814
     61          1           0       -0.768035    0.805819    3.793075
     62          1           0       -0.629001   -0.721455    4.676141
     63          1           0        0.739800   -0.122150    3.733630
     64          6           0       -2.397580   -1.179648    2.683680
     65          1           0       -2.893651   -0.209247    2.781734
     66          1           0       -2.821023   -1.685013    1.815413
     67          1           0       -2.621910   -1.771523    3.572720
     68          7           0        1.152411    1.455566    1.309868
     69          1           0        0.409632    2.136956    1.268414
     70          6           0        2.518037    1.944408    1.343140
     71          1           0        2.999002    1.729548    0.381566
     72          6           0        3.272556    1.234574    2.464598
     73          6           0        2.484286    3.466311    1.581339
     74          1           0        2.062320    3.624827    2.574142
     75          8           0        2.844806    1.222357    3.616760
     76          6           0        3.853128    4.106408    1.479531
     77          1           0        4.553576    3.671674    2.197693
     78          1           0        4.250883    3.960465    0.471235
     79          1           0        3.772409    5.177713    1.672020
     80          8           0        1.582805    4.082987    0.675563
     81          1           0        1.988428    4.077578   -0.195137
     82          7           0        4.445329    0.660422    2.122316
     83          1           0        4.713838    0.572701    1.156231
     84          6           0        5.163305   -0.178026    3.065958
     85          1           0        5.125292    0.332994    4.030615
     86          6           0        6.600872   -0.286600    2.570569
     87          6           0        4.493362   -1.564763    3.248399
     88          1           0        3.477584   -1.323816    3.570596
     89          8           0        6.869647   -0.365035    1.384343
     90          6           0        4.421606   -2.348432    1.937811
     91          1           0        5.414485   -2.700704    1.658970
     92          1           0        4.039768   -1.723136    1.131594
     93          1           0        3.759252   -3.209916    2.050671
     94          6           0        5.167179   -2.395260    4.338406
     95          1           0        6.173935   -2.689397    4.040851
     96          1           0        4.590064   -3.304884    4.520611
     97          1           0        5.227403   -1.845566    5.282188
     98          7           0        7.549388   -0.288946    3.548858
     99          1           0        7.243026   -0.435872    4.497719
    100          6           0        8.913515   -0.687300    3.251038
    101          1           0        9.067925   -0.544877    2.181622
    102          6           0        9.102019   -2.147538    3.590887
    103          6           0        9.912973    0.162486    4.041861
    104          1           0        9.758159   -0.007461    5.110540
    105          1           0        9.674203    1.208937    3.844537
    106          8           0        8.637144   -2.692428    4.567120
    107          6           0       11.364077   -0.097010    3.670499
    108          1           0       11.635731   -1.132290    3.893905
    109          1           0       11.472083    0.025581    2.588935
    110          6           0       12.307168    0.843058    4.403177
    111          1           0       12.049497    1.880517    4.168375
    112          1           0       12.166759    0.718153    5.482020
    113          6           0       13.772203    0.608315    4.088140
    114          1           0       14.005592   -0.447220    4.252009
    115          1           0       14.399793    1.183252    4.771430
    116          7           0       14.120202    0.964157    2.688030
    117          1           0       15.103786    0.790126    2.480231
    118          1           0       13.570318    0.420544    2.024218
    119          1           0       13.929997    1.948227    2.499967
    120          8           0        9.904914   -2.783654    2.715912
    121          1           0       10.009459   -3.683425    3.049608
 ---------------------------------------------------------------------

 SCF Done:  E(RB3LYP) =  -2843.49408686     A.U. after    3 cycles

 Alpha  occ. eigenvalues --  -19.28684 -19.23048 -19.22714 -19.18616 -19.18288
 Alpha  occ. eigenvalues --  -19.16491 -19.14753 -19.14477 -19.14223 -19.01016
 Alpha  occ. eigenvalues --  -19.00994 -14.63180 -14.61158 -14.45048 -14.43495
 Alpha  occ. eigenvalues --  -14.41894 -14.39694 -14.39120 -14.39102 -14.38147
 Alpha  occ. eigenvalues --  -10.40594 -10.40580 -10.40090 -10.38655 -10.35107
 Alpha  occ. eigenvalues --  -10.33807 -10.33177 -10.32466 -10.32085 -10.31687
 Alpha  occ. eigenvalues --  -10.31277 -10.31011 -10.30176 -10.29935 -10.29525
 Alpha  occ. eigenvalues --  -10.28084 -10.27600 -10.26674 -10.25766 -10.25401
 Alpha  occ. eigenvalues --  -10.25276 -10.24970 -10.24646 -10.22687 -10.22450
 Alpha  occ. eigenvalues --  -10.22433 -10.22068 -10.21996 -10.21872 -10.21756
 Alpha  occ. eigenvalues --  -10.21375 -10.21343 -10.21277 -10.19361 -10.19207
 Alpha  occ. eigenvalues --  -10.18966 -10.18875 -10.17626 -10.13412  -1.19872
 Alpha  occ. eigenvalues --   -1.18468  -1.17250  -1.13875  -1.11000  -1.10394
 Alpha  occ. eigenvalues --   -1.09072  -1.07688  -1.06785  -1.06537  -1.06098
 Alpha  occ. eigenvalues --   -1.02238  -1.01901  -1.00727  -0.96526  -0.96005
 Alpha  occ. eigenvalues --   -0.95697  -0.95585  -0.95047  -0.94883  -0.91672
 Alpha  occ. eigenvalues --   -0.89977  -0.87722  -0.86067  -0.85919  -0.85179
 Alpha  occ. eigenvalues --   -0.83616  -0.83216  -0.81842  -0.81571  -0.79400
 Alpha  occ. eigenvalues --   -0.78523  -0.78466  -0.77275  -0.76790  -0.76626
 Alpha  occ. eigenvalues --   -0.75650  -0.75433  -0.75029  -0.74653  -0.73365
 Alpha  occ. eigenvalues --   -0.73232  -0.72548  -0.72342  -0.71656  -0.70482
 Alpha  occ. eigenvalues --   -0.70082  -0.68827  -0.67329  -0.66925  -0.66621
 Alpha  occ. eigenvalues --   -0.66284  -0.65905  -0.65235  -0.63945  -0.63336
 Alpha  occ. eigenvalues --   -0.62761  -0.62612  -0.61655  -0.61356  -0.61244
 Alpha  occ. eigenvalues --   -0.60859  -0.60261  -0.59716  -0.59685  -0.58545
 Alpha  occ. eigenvalues --   -0.58298  -0.58163  -0.57718  -0.57585  -0.57156
 Alpha  occ. eigenvalues --   -0.56130  -0.55648  -0.55117  -0.54910  -0.54563
 Alpha  occ. eigenvalues --   -0.53842  -0.53081  -0.52786  -0.51882  -0.51688
 Alpha  occ. eigenvalues --   -0.51673  -0.51401  -0.51312  -0.51256  -0.50678
 Alpha  occ. eigenvalues --   -0.50557  -0.50396  -0.49781  -0.49207  -0.49188
 Alpha  occ. eigenvalues --   -0.48945  -0.48642  -0.48537  -0.48404  -0.47909
 Alpha  occ. eigenvalues --   -0.47600  -0.47436  -0.47224  -0.47078  -0.46830
 Alpha  occ. eigenvalues --   -0.46746  -0.46525  -0.46386  -0.46081  -0.45884
 Alpha  occ. eigenvalues --   -0.45491  -0.45359  -0.44991  -0.44475  -0.44202
 Alpha  occ. eigenvalues --   -0.43896  -0.43497  -0.43142  -0.42727  -0.42601
 Alpha  occ. eigenvalues --   -0.42332  -0.42198  -0.41803  -0.41594  -0.41484
 Alpha  occ. eigenvalues --   -0.41395  -0.41299  -0.40689  -0.40465  -0.40400
 Alpha  occ. eigenvalues --   -0.40224  -0.39760  -0.38879  -0.38154  -0.37635
 Alpha  occ. eigenvalues --   -0.37392  -0.37225  -0.37049  -0.36989  -0.36726
 Alpha  occ. eigenvalues --   -0.36587  -0.36436  -0.36202  -0.35424  -0.35405
 Alpha  occ. eigenvalues --   -0.35028  -0.34921  -0.34344  -0.34046  -0.33475
 Alpha  occ. eigenvalues --   -0.32110  -0.31659  -0.31028  -0.30891  -0.30412
 Alpha  occ. eigenvalues --   -0.29738  -0.29558  -0.29260  -0.28866  -0.28283
 Alpha  occ. eigenvalues --   -0.27845  -0.27716  -0.26765  -0.26005  -0.24156
 Alpha  occ. eigenvalues --   -0.16919  -0.15527  -0.14770
 Alpha virt. eigenvalues --   -0.14075  -0.10957  -0.09198  -0.08411  -0.07614
 Alpha virt. eigenvalues --   -0.07420  -0.05206  -0.04617  -0.04481  -0.04235
 Alpha virt. eigenvalues --   -0.03472  -0.02128  -0.01770  -0.01729  -0.01127

 Mulliken charges:
               1
     1  N   -0.706873
     2  H    0.428079
     3  H    0.422966
     4  H    0.428774
     5  C   -0.160325
     6  H    0.216895
     7  C    0.633831
     8  C   -0.477736
     9  H    0.253557
    10  H    0.175508
    11  H    0.218952
    12  O   -0.510347
    13  N   -0.555742
    14  H    0.346815
    15  C   -0.121481
    16  H    0.204292
    17  C    0.636431
    18  C   -0.343021
    19  H    0.159701
    20  H    0.178761
    21  O   -0.545760
    22  C    0.072187
    23  C   -0.019497
    24  H    0.161798
    25  C    0.073688
    26  C    0.320066
    27  C   -0.207490
    28  H    0.126383
    29  N   -0.707653
    30  H    0.324227
    31  C   -0.149723
    32  H    0.130459
    33  C   -0.162562
    34  H    0.124920
    35  C   -0.140305
    36  H    0.127775
    37  N   -0.601701
    38  H    0.353931
    39  C   -0.052424
    40  H    0.159419
    41  C    0.630351
    42  C   -0.280057
    43  H    0.148351
    44  H    0.166748
    45  O   -0.547996
    46  C   -0.314137
    47  H    0.101907
    48  H    0.110929
    49  C    0.533414
    50  O   -0.590013
    51  O   -0.600394
    52  N   -0.618496
    53  H    0.352479
    54  C   -0.039429
    55  H    0.165678
    56  C    0.641281
    57  C   -0.065216
    58  H    0.133373
    59  O   -0.557439
    60  C   -0.478095
    61  H    0.135592
    62  H    0.140603
    63  H    0.193375
    64  C   -0.442330
    65  H    0.146966
    66  H    0.154380
    67  H    0.137377
    68  N   -0.609361
    69  H    0.351405
    70  C   -0.027037
    71  H    0.156929
    72  C    0.649422
    73  C    0.099373
    74  H    0.170987
    75  O   -0.548337
    76  C   -0.473889
    77  H    0.156186
    78  H    0.143347
    79  H    0.171084
    80  O   -0.619540
    81  H    0.403214
    82  N   -0.612177
    83  H    0.354260
    84  C   -0.047241
    85  H    0.162848
    86  C    0.618105
    87  C   -0.083458
    88  H    0.178440
    89  O   -0.521385
    90  C   -0.451993
    91  H    0.130884
    92  H    0.188179
    93  H    0.146245
    94  C   -0.474965
    95  H    0.152136
    96  H    0.159897
    97  H    0.132668
    98  N   -0.606455
    99  H    0.347905
   100  C   -0.048239
   101  H    0.205734
   102  C    0.589079
   103  C   -0.282431
   104  H    0.168696
   105  H    0.172935
   106  O   -0.453675
   107  C   -0.286476
   108  H    0.169068
   109  H    0.128525
   110  C   -0.289567
   111  H    0.167007
   112  H    0.203414
   113  C   -0.222278
   114  H    0.222326
   115  H    0.225892
   116  N   -0.667032
   117  H    0.388416
   118  H    0.390283
   119  H    0.384494
   120  O   -0.561002
   121  H    0.421175
 Sum of Mulliken charges =   1.00000

 Dipole moment (field-independent basis, Debye):
    X=             35.3764    Y=             -9.5230    Z=             -4.0098  Tot=             36.8545
 Quadrupole moment (field-independent basis, Debye-Ang):
   XX=            608.7421   YY=           -288.6056   ZZ=            -99.8850
   XY=            124.7963   XZ=            386.8121   YZ=            121.7901

 Normal termination of Gaussian 16 at Thu Jun 30 12:47:03 2022.
