 Gaussian 16, Revision C.01,
 Gaussian 16:  ES64L-G16RevC.01  3-Jul-2019

 -------------------------------------------------------------------
 # B3LYP/6-31G* guess=read geom=check nosymm integral(ultrafinegrid)
 -------------------------------------------------------------------

 ------------------------------------------------------
 Candidate Structure: Conf:102 Charge calc in gas phase
 ------------------------------------------------------
 Structure from the checkpoint file:  "conf-102.chk"
 Charge =  1 Multiplicity = 1

                          Input orientation:
 ---------------------------------------------------------------------
 Center     Atomic      Atomic             Coordinates (Angstroms)
 Number     Number       Type             X           Y           Z
 ---------------------------------------------------------------------
      1          7           0       -2.038274    3.522260   -4.459565
      2          1           0       -1.773504    4.340087   -5.011779
      3          1           0       -1.159859    2.876977   -4.344211
      4          1           0       -2.326257    3.803778   -3.505277
      5          6           0       -3.228288    2.802159   -5.036388
      6          1           0       -3.942546    3.572566   -5.349673
      7          6           0       -3.834925    2.088622   -3.799993
      8          6           0       -2.824312    1.939974   -6.228502
      9          1           0       -3.704848    1.477804   -6.685970
     10          1           0       -2.351815    2.554160   -7.002413
     11          1           0       -2.122138    1.153700   -5.936531
     12          8           0       -3.634044    2.599137   -2.690275
     13          7           0       -4.533479    0.968146   -4.007523
     14          1           0       -4.676290    0.625939   -4.950243
     15          6           0       -5.053402    0.143667   -2.898472
     16          1           0       -5.453513    0.833797   -2.150241
     17          6           0       -3.832765   -0.637959   -2.346889
     18          6           0       -6.149897   -0.822337   -3.395979
     19          1           0       -5.648021   -1.673400   -3.868892
     20          1           0       -6.653066   -1.221236   -2.508262
     21          8           0       -3.451859   -1.672045   -2.887277
     22          6           0       -7.138045   -0.201950   -4.341205
     23          6           0       -8.317514    0.432408   -4.034868
     24          1           0       -8.797407    0.570862   -3.075223
     25          6           0       -6.989819   -0.109107   -5.774266
     26          6           0       -8.112913    0.609762   -6.270708
     27          6           0       -6.019849   -0.568685   -6.688101
     28          1           0       -5.182326   -1.177936   -6.350978
     29          7           0       -8.901634    0.926040   -5.184262
     30          1           0       -9.802734    1.377390   -5.227882
     31          6           0       -7.297227    0.435976   -8.506494
     32          1           0       -7.401366    0.631411   -9.569653
     33          6           0       -8.279079    0.887536   -7.631385
     34          1           0       -9.145817    1.432560   -7.995295
     35          6           0       -6.179874   -0.287921   -8.041715
     36          1           0       -5.449169   -0.654521   -8.757254
     37          7           0       -3.195154   -0.040756   -1.310288
     38          1           0       -3.509467    0.862585   -0.973339
     39          6           0       -1.879743   -0.459651   -0.854245
     40          1           0       -1.762238   -1.512153   -1.126107
     41          6           0       -1.779004   -0.226576    0.658182
     42          6           0       -0.757189    0.402361   -1.487830
     43          1           0       -0.999337    1.450485   -1.274386
     44          1           0        0.186840    0.195845   -0.972448
     45          8           0       -2.179136    0.827636    1.142610
     46          6           0       -0.569975    0.201066   -3.003100
     47          1           0       -0.267256   -0.830860   -3.207963
     48          1           0       -1.509243    0.382114   -3.531742
     49          6           0        0.511805    1.136303   -3.528627
     50          8           0        0.218218    2.195495   -4.161060
     51          8           0        1.718718    0.810541   -3.272780
     52          7           0       -1.135030   -1.199200    1.356961
     53          1           0       -0.836258   -2.033287    0.866255
     54          6           0       -0.531291   -0.966709    2.676640
     55          1           0       -0.816027    0.053851    2.950478
     56          6           0        0.992485   -1.067035    2.434282
     57          6           0       -1.022474   -1.949675    3.755688
     58          1           0       -0.684446   -2.950869    3.458229
     59          8           0        1.590428   -2.136486    2.522215
     60          6           0       -0.376760   -1.616003    5.109648
     61          1           0       -0.649922   -0.605142    5.439701
     62          1           0       -0.721036   -2.317192    5.877200
     63          1           0        0.714264   -1.684299    5.063816
     64          6           0       -2.553441   -1.943749    3.858287
     65          1           0       -2.927529   -0.953953    4.148333
     66          1           0       -3.026642   -2.215034    2.909307
     67          1           0       -2.884370   -2.661463    4.616783
     68          7           0        1.579041    0.080034    1.994696
     69          1           0        1.099187    0.971644    2.064177
     70          6           0        3.002370    0.182497    1.743404
     71          1           0        3.503948   -0.612444    2.307064
     72          6           0        3.453956    1.559360    2.271521
     73          6           0        3.379577   -0.005531    0.245610
     74          1           0        4.467378    0.156934    0.168740
     75          8           0        2.648793    2.465737    2.461404
     76          6           0        3.063602   -1.406425   -0.270649
     77          1           0        3.591448   -2.170163    0.307045
     78          1           0        1.993128   -1.619041   -0.198030
     79          1           0        3.367066   -1.496196   -1.320817
     80          8           0        2.712737    1.005449   -0.517171
     81          1           0        2.408995    0.630914   -1.366058
     82          7           0        4.787835    1.668305    2.528771
     83          1           0        5.416493    0.948452    2.190692
     84          6           0        5.426635    2.948842    2.806477
     85          1           0        4.637283    3.703451    2.734948
     86          6           0        6.468509    3.177724    1.701169
     87          6           0        6.056209    3.029774    4.227893
     88          1           0        6.555450    4.009262    4.277725
     89          8           0        7.047133    2.236558    1.159816
     90          6           0        4.959610    2.997076    5.301241
     91          1           0        4.422455    2.042492    5.281785
     92          1           0        4.225119    3.796993    5.155853
     93          1           0        5.398204    3.114347    6.298111
     94          6           0        7.112688    1.942897    4.473894
     95          1           0        6.655951    0.946074    4.471153
     96          1           0        7.577578    2.086005    5.455020
     97          1           0        7.904406    1.954007    3.718287
     98          7           0        6.678377    4.476713    1.348837
     99          1           0        6.202451    5.212044    1.853444
    100          6           0        7.585403    4.854645    0.275357
    101          1           0        8.301582    4.032376    0.169265
    102          6           0        8.394125    6.108353    0.595316
    103          6           0        6.850491    5.047409   -1.077424
    104          1           0        7.584007    5.387945   -1.815746
    105          1           0        6.111418    5.853027   -0.961188
    106          8           0        9.195608    6.593160   -0.167778
    107          6           0        6.153954    3.761489   -1.532510
    108          1           0        6.906771    2.997848   -1.764770
    109          1           0        5.568726    3.362314   -0.698846
    110          6           0        5.199367    3.932824   -2.723616
    111          1           0        4.494479    4.750728   -2.512375
    112          1           0        5.745407    4.205552   -3.636750
    113          6           0        4.421154    2.633247   -2.913623
    114          1           0        3.938966    2.326832   -1.979771
    115          1           0        5.074754    1.815517   -3.231284
    116          7           0        3.316995    2.709825   -3.930068
    117          1           0        2.608950    1.847065   -3.763791
    118          1           0        2.744241    3.548380   -3.802870
    119          1           0        3.666010    2.722369   -4.890957
    120          8           0        8.103450    6.637751    1.806529
    121          1           0        8.666246    7.430067    1.904820
 ---------------------------------------------------------------------

 SCF Done:  E(RB3LYP) =  -2843.69724442     A.U. after    1 cycles

 Alpha  occ. eigenvalues --  -19.27736 -19.24005 -19.22193 -19.22147 -19.21702
 Alpha  occ. eigenvalues --  -19.21493 -19.19384 -19.19316 -19.18717 -19.18583
 Alpha  occ. eigenvalues --  -19.17628 -14.54356 -14.52554 -14.47825 -14.45539
 Alpha  occ. eigenvalues --  -14.44319 -14.43819 -14.43527 -14.42824 -14.41985
 Alpha  occ. eigenvalues --  -10.41182 -10.39929 -10.39496 -10.38032 -10.36704
 Alpha  occ. eigenvalues --  -10.36445 -10.35983 -10.35746 -10.34769 -10.33703
 Alpha  occ. eigenvalues --  -10.32752 -10.32017 -10.31507 -10.31228 -10.31007
 Alpha  occ. eigenvalues --  -10.30002 -10.29883 -10.29542 -10.29457 -10.29405
 Alpha  occ. eigenvalues --  -10.29133 -10.27670 -10.27566 -10.27464 -10.27398
 Alpha  occ. eigenvalues --  -10.27286 -10.26440 -10.26421 -10.26189 -10.26064
 Alpha  occ. eigenvalues --  -10.25965 -10.25825 -10.25773 -10.24663 -10.24416
 Alpha  occ. eigenvalues --  -10.23036 -10.22964 -10.22134 -10.22129  -1.18430
 Alpha  occ. eigenvalues --   -1.16268  -1.15192  -1.11544  -1.11513  -1.10717
 Alpha  occ. eigenvalues --   -1.10501  -1.09424  -1.09363  -1.09342  -1.08740
 Alpha  occ. eigenvalues --   -1.07713  -1.05568  -1.05442  -1.04040  -1.00776
 Alpha  occ. eigenvalues --   -1.00337  -0.99734  -0.99361  -0.98242  -0.91423
 Alpha  occ. eigenvalues --   -0.90546  -0.90145  -0.88206  -0.87834  -0.87327
 Alpha  occ. eigenvalues --   -0.85872  -0.85391  -0.84305  -0.84013  -0.81242
 Alpha  occ. eigenvalues --   -0.80951  -0.80406  -0.79577  -0.79053  -0.78232
 Alpha  occ. eigenvalues --   -0.77133  -0.75157  -0.74368  -0.74048  -0.74009
 Alpha  occ. eigenvalues --   -0.73067  -0.71503  -0.70358  -0.70015  -0.69626
 Alpha  occ. eigenvalues --   -0.69455  -0.68561  -0.67969  -0.67679  -0.67471
 Alpha  occ. eigenvalues --   -0.67310  -0.66786  -0.66437  -0.66142  -0.65805
 Alpha  occ. eigenvalues --   -0.65078  -0.64507  -0.64326  -0.63483  -0.63269
 Alpha  occ. eigenvalues --   -0.62495  -0.62063  -0.61644  -0.60872  -0.59871
 Alpha  occ. eigenvalues --   -0.59636  -0.58798  -0.58353  -0.58078  -0.57522
 Alpha  occ. eigenvalues --   -0.57327  -0.56947  -0.56065  -0.55825  -0.55766
 Alpha  occ. eigenvalues --   -0.55616  -0.55152  -0.54787  -0.54658  -0.54461
 Alpha  occ. eigenvalues --   -0.54399  -0.54068  -0.53643  -0.53281  -0.53107
 Alpha  occ. eigenvalues --   -0.52428  -0.52347  -0.52173  -0.51851  -0.51576
 Alpha  occ. eigenvalues --   -0.51425  -0.51217  -0.51147  -0.51055  -0.50674
 Alpha  occ. eigenvalues --   -0.50291  -0.50079  -0.49873  -0.49572  -0.49448
 Alpha  occ. eigenvalues --   -0.49242  -0.49098  -0.48784  -0.48712  -0.48563
 Alpha  occ. eigenvalues --   -0.48061  -0.47712  -0.47643  -0.47525  -0.47154
 Alpha  occ. eigenvalues --   -0.46958  -0.46852  -0.46051  -0.45900  -0.45683
 Alpha  occ. eigenvalues --   -0.45301  -0.45239  -0.44934  -0.44613  -0.44433
 Alpha  occ. eigenvalues --   -0.44233  -0.44145  -0.44024  -0.43721  -0.43509
 Alpha  occ. eigenvalues --   -0.43356  -0.43291  -0.43056  -0.42934  -0.42754
 Alpha  occ. eigenvalues --   -0.42513  -0.42271  -0.42166  -0.41017  -0.40822
 Alpha  occ. eigenvalues --   -0.40288  -0.40052  -0.39655  -0.39494  -0.39430
 Alpha  occ. eigenvalues --   -0.39204  -0.38588  -0.38467  -0.38061  -0.37982
 Alpha  occ. eigenvalues --   -0.37612  -0.36729  -0.36301  -0.36054  -0.35012
 Alpha  occ. eigenvalues --   -0.34698  -0.34132  -0.33934  -0.33746  -0.33266
 Alpha  occ. eigenvalues --   -0.32628  -0.32538  -0.31827  -0.31713  -0.31237
 Alpha  occ. eigenvalues --   -0.30261  -0.29845  -0.27876
 Alpha virt. eigenvalues --   -0.10754  -0.08965  -0.07577  -0.06826  -0.06439
 Alpha virt. eigenvalues --   -0.06051  -0.05699  -0.05495  -0.05479  -0.05258
 Alpha virt. eigenvalues --   -0.04313  -0.02239  -0.01739  -0.01276  -0.01067

 Mulliken charges:
               1
     1  N   -0.776147
     2  H    0.385300
     3  H    0.450981
     4  H    0.409231
     5  C   -0.110715
     6  H    0.218038
     7  C    0.657138
     8  C   -0.490455
     9  H    0.202443
    10  H    0.178460
    11  H    0.199498
    12  O   -0.546228
    13  N   -0.611984
    14  H    0.369619
    15  C   -0.042952
    16  H    0.179285
    17  C    0.627071
    18  C   -0.407543
    19  H    0.200111
    20  H    0.177328
    21  O   -0.532158
    22  C    0.066814
    23  C    0.005904
    24  H    0.166210
    25  C    0.063236
    26  C    0.317104
    27  C   -0.259176
    28  H    0.144176
    29  N   -0.687353
    30  H    0.340984
    31  C   -0.153700
    32  H    0.142648
    33  C   -0.157756
    34  H    0.142403
    35  C   -0.143845
    36  H    0.136346
    37  N   -0.589046
    38  H    0.362934
    39  C   -0.073638
    40  H    0.178504
    41  C    0.626646
    42  C   -0.288171
    43  H    0.164028
    44  H    0.171092
    45  O   -0.529976
    46  C   -0.341186
    47  H    0.183017
    48  H    0.142175
    49  C    0.624059
    50  O   -0.622029
    51  O   -0.608211
    52  N   -0.608250
    53  H    0.341614
    54  C   -0.047463
    55  H    0.179598
    56  C    0.607024
    57  C   -0.073900
    58  H    0.147995
    59  O   -0.532026
    60  C   -0.463533
    61  H    0.142537
    62  H    0.156308
    63  H    0.164742
    64  C   -0.449387
    65  H    0.150582
    66  H    0.145550
    67  H    0.152848
    68  N   -0.604047
    69  H    0.360010
    70  C   -0.071075
    71  H    0.185128
    72  C    0.622426
    73  C    0.157029
    74  H    0.126634
    75  O   -0.527432
    76  C   -0.486244
    77  H    0.180136
    78  H    0.160253
    79  H    0.149581
    80  O   -0.677471
    81  H    0.439646
    82  N   -0.603644
    83  H    0.350507
    84  C   -0.077279
    85  H    0.174861
    86  C    0.634853
    87  C   -0.074397
    88  H    0.132350
    89  O   -0.544072
    90  C   -0.446330
    91  H    0.158841
    92  H    0.151892
    93  H    0.155193
    94  C   -0.464827
    95  H    0.149486
    96  H    0.158338
    97  H    0.164851
    98  N   -0.608858
    99  H    0.347023
   100  C   -0.063801
   101  H    0.219360
   102  C    0.594049
   103  C   -0.265901
   104  H    0.181085
   105  H    0.137753
   106  O   -0.448099
   107  C   -0.271088
   108  H    0.164643
   109  H    0.168088
   110  C   -0.277173
   111  H    0.142686
   112  H    0.154503
   113  C   -0.205116
   114  H    0.233150
   115  H    0.192562
   116  N   -0.769983
   117  H    0.456943
   118  H    0.377643
   119  H    0.378631
   120  O   -0.573839
   121  H    0.425788
 Sum of Mulliken charges =   1.00000

 Dipole moment (field-independent basis, Debye):
    X=             -2.2298    Y=             17.1854    Z=            -18.9588  Tot=             25.6855
 Quadrupole moment (field-independent basis, Debye-Ang):
   XX=           -199.4883   YY=           -277.8841   ZZ=           -218.3486
   XY=             17.8382   XZ=             63.3820   YZ=            -57.9673

 Normal termination of Gaussian 16 at Thu Jun 30 12:46:42 2022.
