 Gaussian 16, Revision C.01,
 Gaussian 16:  ES64L-G16RevC.01  3-Jul-2019

 ----------------------------------------------------------------------
 # B3LYP/6-31G* empiricaldispersion=gd3 guess=read geom=check nosymm in
 tegral(ultrafinegrid)
 ----------------------------------------------------------------------

 ------------------------------------------------------
 Candidate Structure: Conf:962 Charge calc in gas phase
 ------------------------------------------------------
 Structure from the checkpoint file:  "conf-962.chk"
 Charge =  1 Multiplicity = 1

                          Input orientation:
 ---------------------------------------------------------------------
 Center     Atomic      Atomic             Coordinates (Angstroms)
 Number     Number       Type             X           Y           Z
 ---------------------------------------------------------------------
      1          7           0       -5.940123   -0.162624    2.517039
      2          1           0       -6.387151    0.696851    2.143668
      3          1           0       -5.888900   -0.819728    1.707268
      4          1           0       -6.492049   -0.544119    3.289823
      5          6           0       -4.495383    0.114288    2.859389
      6          1           0       -4.438568    1.080048    3.359868
      7          6           0       -3.846864    0.145600    1.454615
      8          6           0       -3.895860   -0.984724    3.743549
      9          1           0       -4.399700   -1.008463    4.717982
     10          1           0       -4.016969   -1.962936    3.264762
     11          8           0       -4.341545   -0.579844    0.584748
     12          6           0       -2.407800   -0.634022    3.959395
     13          7           0       -1.542586   -1.652208    3.972349
     14          1           0       -0.530834   -1.452046    3.887278
     15          1           0       -1.844330   -2.598669    3.788422
     16          8           0       -2.090486    0.556730    4.082059
     17          7           0       -2.828498    0.989264    1.302710
     18          1           0       -2.474328    1.481337    2.118728
     19          6           0       -2.295965    1.376841   -0.006891
     20          1           0       -2.430323    0.528286   -0.680696
     21          6           0       -0.821085    1.674309    0.283867
     22          6           0       -3.044249    2.629824   -0.539722
     23          1           0       -2.658963    3.494000    0.009789
     24          1           0       -2.764949    2.759400   -1.590170
     25          8           0       -0.541780    2.671716    0.959036
     26          6           0       -4.539809    2.510234   -0.343923
     27          6           0       -5.341867    1.798230   -1.246720
     28          1           0       -4.894103    1.391920   -2.149814
     29          6           0       -5.138797    3.019633    0.817603
     30          1           0       -4.537358    3.594214    1.518395
     31          6           0       -6.696509    1.583957   -0.992905
     32          1           0       -7.298664    1.032076   -1.708741
     33          6           0       -6.499353    2.812712    1.081215
     34          1           0       -6.954267    3.261655    1.961911
     35          6           0       -7.282789    2.085624    0.174565
     36          1           0       -8.345527    1.946908    0.356310
     37          7           0        0.057046    0.717799   -0.063283
     38          1           0       -0.181323    0.058078   -0.799984
     39          6           0        1.490808    0.914422    0.085191
     40          1           0        1.664553    1.977237    0.272448
     41          6           0        2.125843    0.494713   -1.252537
     42          6           0        2.073676    0.036884    1.224384
     43          1           0        3.079608    0.391466    1.480968
     44          1           0        2.165742   -0.996544    0.880966
     45          8           0        1.545468   -0.302942   -1.989479
     46          6           0        1.222577   -0.030054    2.496470
     47          7           0        0.753267    1.131936    3.005015
     48          1           0        0.043663    1.054547    3.729247
     49          1           0        0.677843    1.957597    2.418403
     50          8           0        1.026269   -1.124509    3.037995
     51          7           0        3.348295    1.001102   -1.509418
     52          1           0        3.789838    1.663517   -0.881715
     53          6           0        4.122498    0.609963   -2.680368
     54          1           0        4.195979   -0.483668   -2.712192
     55          6           0        5.519897    1.182636   -2.500261
     56          6           0        3.480623    1.091464   -4.001492
     57          1           0        4.032144    0.641984   -4.833474
     58          1           0        2.475661    0.660972   -4.013259
     59          8           0        5.842341    1.938993   -1.608191
     60          6           0        3.431280    2.622090   -4.147442
     61          1           0        3.440247    3.107494   -3.164470
     62          1           0        4.324799    2.975204   -4.677377
     63          6           0        2.174240    3.100557   -4.893288
     64          1           0        2.300135    4.142132   -5.206573
     65          1           0        2.032444    2.527177   -5.815978
     66          7           0        0.934284    2.976645   -4.122140
     67          1           0        0.572301    2.034015   -4.035485
     68          7           0        1.333132    4.926765   -2.889573
     69          1           0        0.994622    5.525875   -2.147642
     70          1           0        1.423446    5.426924   -3.766001
     71          7           0       -0.011072    3.151745   -2.018496
     72          1           0       -0.167860    3.813273   -1.257569
     73          6           0        0.709549    3.681870   -2.951769
     74          8           0        6.347949    0.769565   -3.474041
     75          1           0        7.216993    1.184812   -3.313590
 ---------------------------------------------------------------------

 SCF Done:  E(RB3LYP) =  -1917.47142213     A.U. after    1 cycles

 Alpha  occ. eigenvalues --  -19.28161 -19.25511 -19.23132 -19.22785 -19.21681
 Alpha  occ. eigenvalues --  -19.20503 -19.19881 -14.59729 -14.48627 -14.45703
 Alpha  occ. eigenvalues --  -14.45291 -14.44835 -14.42402 -14.42274 -14.41521
 Alpha  occ. eigenvalues --  -14.35617 -10.42502 -10.41158 -10.40690 -10.40128
 Alpha  occ. eigenvalues --  -10.38826 -10.37716 -10.37333 -10.35561 -10.34450
 Alpha  occ. eigenvalues --  -10.34247 -10.32704 -10.32247 -10.30177 -10.30099
 Alpha  occ. eigenvalues --  -10.29954 -10.29716 -10.29438 -10.29398 -10.29187
 Alpha  occ. eigenvalues --  -10.28691 -10.28262 -10.26372 -10.25614  -1.19238
 Alpha  occ. eigenvalues --   -1.18306  -1.14683  -1.13924  -1.13394  -1.12429
 Alpha  occ. eigenvalues --   -1.11224  -1.10379  -1.05571  -1.04797  -1.02173
 Alpha  occ. eigenvalues --   -1.01403  -1.01281  -0.97798  -0.96155  -0.95860
 Alpha  occ. eigenvalues --   -0.93301  -0.91462  -0.89483  -0.88285  -0.86331
 Alpha  occ. eigenvalues --   -0.84959  -0.84544  -0.81959  -0.81434  -0.77687
 Alpha  occ. eigenvalues --   -0.75824  -0.74942  -0.74120  -0.72794  -0.71387
 Alpha  occ. eigenvalues --   -0.70943  -0.70425  -0.69854  -0.69163  -0.68818
 Alpha  occ. eigenvalues --   -0.67829  -0.66977  -0.66679  -0.65984  -0.64662
 Alpha  occ. eigenvalues --   -0.63921  -0.63479  -0.62438  -0.61621  -0.60459
 Alpha  occ. eigenvalues --   -0.60201  -0.59300  -0.59199  -0.58798  -0.58324
 Alpha  occ. eigenvalues --   -0.57717  -0.57210  -0.57000  -0.56217  -0.56068
 Alpha  occ. eigenvalues --   -0.55740  -0.55449  -0.54997  -0.54589  -0.54369
 Alpha  occ. eigenvalues --   -0.53501  -0.53190  -0.52903  -0.52465  -0.52343
 Alpha  occ. eigenvalues --   -0.52243  -0.51291  -0.51219  -0.50297  -0.50172
 Alpha  occ. eigenvalues --   -0.49664  -0.49389  -0.48880  -0.48654  -0.48600
 Alpha  occ. eigenvalues --   -0.48197  -0.47269  -0.47044  -0.46540  -0.46393
 Alpha  occ. eigenvalues --   -0.46161  -0.45452  -0.44715  -0.44338  -0.44126
 Alpha  occ. eigenvalues --   -0.43878  -0.42953  -0.41675  -0.41246  -0.40323
 Alpha  occ. eigenvalues --   -0.40117  -0.38904  -0.37871  -0.37445  -0.36574
 Alpha  occ. eigenvalues --   -0.36369  -0.36138  -0.35455  -0.35025  -0.34450
 Alpha  occ. eigenvalues --   -0.34387  -0.34281  -0.33946  -0.33049  -0.32972
 Alpha  occ. eigenvalues --   -0.29337
 Alpha virt. eigenvalues --   -0.12403  -0.11583  -0.10984  -0.10089  -0.08935
 Alpha virt. eigenvalues --   -0.07888  -0.07711  -0.06816  -0.04835  -0.03650
 Alpha virt. eigenvalues --   -0.02697  -0.02340  -0.02207  -0.00997  -0.00404

 Mulliken charges:
               1
     1  N   -0.756287
     2  H    0.411763
     3  H    0.422115
     4  H    0.406309
     5  C   -0.107076
     6  H    0.227201
     7  C    0.642690
     8  C   -0.379132
     9  H    0.204833
    10  H    0.181636
    11  O   -0.542410
    12  C    0.624947
    13  N   -0.751581
    14  H    0.412902
    15  H    0.348869
    16  O   -0.546537
    17  N   -0.597952
    18  H    0.382366
    19  C   -0.036632
    20  H    0.191151
    21  C    0.667415
    22  C   -0.369169
    23  H    0.180528
    24  H    0.200605
    25  O   -0.572853
    26  C    0.155773
    27  C   -0.145990
    28  H    0.155698
    29  C   -0.190204
    30  H    0.148929
    31  C   -0.124381
    32  H    0.160989
    33  C   -0.203031
    34  H    0.155007
    35  C   -0.163581
    36  H    0.156359
    37  N   -0.582186
    38  H    0.361948
    39  C   -0.085552
    40  H    0.186120
    41  C    0.655053
    42  C   -0.355933
    43  H    0.187911
    44  H    0.193207
    45  O   -0.543015
    46  C    0.592049
    47  N   -0.756866
    48  H    0.363026
    49  H    0.371743
    50  O   -0.540022
    51  N   -0.623497
    52  H    0.359509
    53  C   -0.035216
    54  H    0.200637
    55  C    0.590854
    56  C   -0.284182
    57  H    0.171312
    58  H    0.177836
    59  O   -0.466623
    60  C   -0.274391
    61  H    0.167019
    62  H    0.150258
    63  C   -0.163402
    64  H    0.148436
    65  H    0.165328
    66  N   -0.573298
    67  H    0.336315
    68  N   -0.743313
    69  H    0.332396
    70  H    0.337936
    71  N   -0.716628
    72  H    0.280890
    73  C    0.594215
    74  O   -0.559414
    75  H    0.428270
 Sum of Mulliken charges =   1.00000

 Dipole moment (field-independent basis, Debye):
    X=            -15.0434    Y=              4.4264    Z=              3.2808  Tot=             16.0207
 Quadrupole moment (field-independent basis, Debye-Ang):
   XX=            -63.6648   YY=           -194.4045   ZZ=           -174.2528
   XY=             11.9753   XZ=            -79.8536   YZ=            -26.6559

 Normal termination of Gaussian 16 at Tue May 31 12:47:25 2022.
