 Gaussian 16, Revision C.01,
 Gaussian 16:  ES64L-G16RevC.01  3-Jul-2019

 ----------------------------------------------------------------------
 # B3LYP/6-31G* empiricaldispersion=gd3 guess=read geom=check nosymm in
 tegral(ultrafinegrid)
 ----------------------------------------------------------------------

 ------------------------------------------------------
 Candidate Structure: Conf:879 Charge calc in gas phase
 ------------------------------------------------------
 Structure from the checkpoint file:  "conf-879.chk"
 Charge =  1 Multiplicity = 1

                          Input orientation:
 ---------------------------------------------------------------------
 Center     Atomic      Atomic             Coordinates (Angstroms)
 Number     Number       Type             X           Y           Z
 ---------------------------------------------------------------------
      1          7           0       -5.372266    1.799764    1.273201
      2          1           0       -5.334356    2.081649    0.279409
      3          1           0       -5.708550    0.824151    1.292571
      4          1           0       -5.964749    2.442278    1.858191
      5          6           0       -3.998997    1.799052    1.893961
      6          1           0       -3.513391    2.731712    1.596686
      7          6           0       -3.321953    0.551403    1.296034
      8          6           0       -4.125680    1.699064    3.421880
      9          1           0       -4.577198    0.731162    3.677480
     10          1           0       -3.118951    1.702982    3.852020
     11          8           0       -4.012997   -0.458764    1.168308
     12          6           0       -4.996959    2.815387    4.008849
     13          7           0       -4.697890    3.224540    5.251853
     14          1           0       -5.293888    3.916796    5.689929
     15          1           0       -3.935887    2.838811    5.791189
     16          8           0       -5.942363    3.289140    3.363090
     17          7           0       -2.042408    0.674552    0.918638
     18          1           0       -1.508735    1.525845    1.065854
     19          6           0       -1.400515   -0.305876    0.055797
     20          1           0       -1.824216   -1.284676    0.290521
     21          6           0        0.103158   -0.221753    0.338640
     22          6           0       -1.632200    0.042125   -1.457523
     23          1           0       -0.900171    0.804228   -1.741815
     24          1           0       -1.407674   -0.851425   -2.049762
     25          8           0        0.589366    0.863311    0.678452
     26          6           0       -3.027510    0.548828   -1.748756
     27          6           0       -4.087172   -0.332862   -2.000262
     28          1           0       -3.897941   -1.402633   -2.024607
     29          6           0       -3.297700    1.924580   -1.708561
     30          1           0       -2.485762    2.625340   -1.533128
     31          6           0       -5.382366    0.142117   -2.207214
     32          1           0       -6.187555   -0.558236   -2.408593
     33          6           0       -4.593649    2.411266   -1.923013
     34          1           0       -4.773685    3.483739   -1.934706
     35          6           0       -5.642557    1.516642   -2.171501
     36          1           0       -6.645520    1.888710   -2.362484
     37          7           0        0.820798   -1.338165    0.122395
     38          1           0        0.355212   -2.173438   -0.210094
     39          6           0        2.292167   -1.366467    0.193274
     40          1           0        2.582802   -0.694758    1.006313
     41          6           0        2.851675   -0.848476   -1.157404
     42          6           0        2.782334   -2.782155    0.496670
     43          1           0        2.611926   -3.424931   -0.372728
     44          1           0        2.235535   -3.172816    1.358596
     45          8           0        3.290615   -1.615382   -2.011482
     46          6           0        4.264780   -2.741546    0.899784
     47          7           0        5.142328   -3.022796   -0.102594
     48          1           0        6.122985   -2.870344    0.094892
     49          1           0        4.835019   -2.943243   -1.064573
     50          8           0        4.588891   -2.466637    2.045489
     51          7           0        2.744350    0.491438   -1.314903
     52          1           0        2.349564    1.028842   -0.551451
     53          6           0        3.093201    1.172077   -2.553084
     54          1           0        3.551115    0.404739   -3.188365
     55          6           0        4.175172    2.231764   -2.329363
     56          6           0        1.867508    1.750083   -3.277555
     57          1           0        2.200032    2.156614   -4.236652
     58          1           0        1.190236    0.915609   -3.500939
     59          8           0        4.251515    3.269132   -2.947363
     60          6           0        1.122622    2.838556   -2.492343
     61          1           0        0.844205    2.479500   -1.489310
     62          1           0        1.791390    3.695198   -2.346686
     63          6           0       -0.159378    3.313297   -3.198539
     64          1           0       -0.871573    2.486669   -3.271974
     65          1           0       -0.633707    4.098661   -2.592886
     66          7           0        0.048049    3.828794   -4.551511
     67          1           0        0.848250    4.450648   -4.626018
     68          7           0       -1.052839    2.090484   -5.666546
     69          1           0       -1.145327    1.578678   -6.536252
     70          1           0       -1.930563    2.530537   -5.406865
     71          7           0        0.992975    3.050240   -6.513373
     72          1           0        0.800208    2.492106   -7.346971
     73          6           0        0.041199    2.974137   -5.658507
     74          8           0        5.064036    1.859473   -1.383013
     75          1           0        5.739136    2.563893   -1.344279
 ---------------------------------------------------------------------

 SCF Done:  E(RB3LYP) =  -1917.44544428     A.U. after    3 cycles

 Alpha  occ. eigenvalues --  -19.27278 -19.26746 -19.26559 -19.24225 -19.21092
 Alpha  occ. eigenvalues --  -19.20515 -19.17156 -14.58100 -14.50610 -14.50594
 Alpha  occ. eigenvalues --  -14.48668 -14.44527 -14.41487 -14.41081 -14.40433
 Alpha  occ. eigenvalues --  -14.34630 -10.44927 -10.44003 -10.41498 -10.41315
 Alpha  occ. eigenvalues --  -10.39208 -10.37616 -10.36727 -10.36472 -10.35150
 Alpha  occ. eigenvalues --  -10.34124 -10.33435 -10.32017 -10.31814 -10.31547
 Alpha  occ. eigenvalues --  -10.31386 -10.31368 -10.31331 -10.30938 -10.30880
 Alpha  occ. eigenvalues --  -10.29470 -10.27544 -10.26075 -10.25815  -1.19447
 Alpha  occ. eigenvalues --   -1.18709  -1.17683  -1.16128  -1.12988  -1.12306
 Alpha  occ. eigenvalues --   -1.09029  -1.08705  -1.07202  -1.05585  -1.04636
 Alpha  occ. eigenvalues --   -1.03640  -1.01240  -0.97863  -0.96125  -0.95092
 Alpha  occ. eigenvalues --   -0.94731  -0.91607  -0.90579  -0.88488  -0.86853
 Alpha  occ. eigenvalues --   -0.86545  -0.85927  -0.83150  -0.81756  -0.78668
 Alpha  occ. eigenvalues --   -0.76262  -0.75197  -0.74629  -0.73654  -0.73383
 Alpha  occ. eigenvalues --   -0.72505  -0.71453  -0.71200  -0.70420  -0.69466
 Alpha  occ. eigenvalues --   -0.68442  -0.68102  -0.66605  -0.66192  -0.65373
 Alpha  occ. eigenvalues --   -0.64473  -0.64113  -0.63553  -0.62903  -0.61416
 Alpha  occ. eigenvalues --   -0.61073  -0.60036  -0.59551  -0.59202  -0.58986
 Alpha  occ. eigenvalues --   -0.58754  -0.57994  -0.57920  -0.57676  -0.57122
 Alpha  occ. eigenvalues --   -0.56634  -0.56215  -0.55530  -0.55106  -0.54975
 Alpha  occ. eigenvalues --   -0.54330  -0.53993  -0.53803  -0.53618  -0.52897
 Alpha  occ. eigenvalues --   -0.52589  -0.52140  -0.51879  -0.51294  -0.51049
 Alpha  occ. eigenvalues --   -0.50515  -0.49531  -0.49205  -0.49102  -0.48950
 Alpha  occ. eigenvalues --   -0.48183  -0.47826  -0.47556  -0.47299  -0.46169
 Alpha  occ. eigenvalues --   -0.45979  -0.45840  -0.45121  -0.44748  -0.44301
 Alpha  occ. eigenvalues --   -0.43818  -0.43143  -0.41923  -0.41691  -0.41613
 Alpha  occ. eigenvalues --   -0.41101  -0.40797  -0.40291  -0.38859  -0.38760
 Alpha  occ. eigenvalues --   -0.38220  -0.37159  -0.36597  -0.36076  -0.33815
 Alpha  occ. eigenvalues --   -0.33136  -0.32788  -0.32498  -0.31786  -0.30857
 Alpha  occ. eigenvalues --   -0.28825
 Alpha virt. eigenvalues --   -0.14160  -0.13040  -0.12868  -0.12167  -0.10019
 Alpha virt. eigenvalues --   -0.07601  -0.07161  -0.06377  -0.05578  -0.04933
 Alpha virt. eigenvalues --   -0.04267  -0.02950  -0.02707  -0.02063  -0.01720

 Mulliken charges:
               1
     1  N   -0.761151
     2  H    0.408517
     3  H    0.410455
     4  H    0.438853
     5  C   -0.118225
     6  H    0.205820
     7  C    0.659566
     8  C   -0.396247
     9  H    0.229895
    10  H    0.204089
    11  O   -0.525258
    12  C    0.645657
    13  N   -0.728083
    14  H    0.382489
    15  H    0.371163
    16  O   -0.534500
    17  N   -0.602165
    18  H    0.360191
    19  C   -0.058027
    20  H    0.197805
    21  C    0.646787
    22  C   -0.390415
    23  H    0.199388
    24  H    0.180284
    25  O   -0.553261
    26  C    0.171674
    27  C   -0.147700
    28  H    0.155629
    29  C   -0.201208
    30  H    0.151667
    31  C   -0.131493
    32  H    0.167615
    33  C   -0.203077
    34  H    0.163931
    35  C   -0.160055
    36  H    0.166240
    37  N   -0.604530
    38  H    0.349509
    39  C   -0.074310
    40  H    0.212761
    41  C    0.631607
    42  C   -0.372430
    43  H    0.173225
    44  H    0.179862
    45  O   -0.528540
    46  C    0.563572
    47  N   -0.731983
    48  H    0.345761
    49  H    0.367249
    50  O   -0.495535
    51  N   -0.606070
    52  H    0.370826
    53  C   -0.074873
    54  H    0.222607
    55  C    0.588195
    56  C   -0.267778
    57  H    0.209432
    58  H    0.139307
    59  O   -0.452751
    60  C   -0.303264
    61  H    0.121449
    62  H    0.170599
    63  C   -0.160951
    64  H    0.152376
    65  H    0.135384
    66  N   -0.567642
    67  H    0.338088
    68  N   -0.746911
    69  H    0.326730
    70  H    0.325128
    71  N   -0.623962
    72  H    0.271827
    73  C    0.545853
    74  O   -0.558264
    75  H    0.421595
 Sum of Mulliken charges =   1.00000

 Dipole moment (field-independent basis, Debye):
    X=            -19.6401    Y=              6.6421    Z=              6.0285  Tot=             21.5915
 Quadrupole moment (field-independent basis, Debye-Ang):
   XX=           -128.9933   YY=           -206.7993   ZZ=           -176.0133
   XY=            -36.3220   XZ=            -28.5949   YZ=             42.6777

 Normal termination of Gaussian 16 at Tue May 31 12:47:52 2022.
