 Gaussian 16, Revision C.01,
 Gaussian 16:  ES64L-G16RevC.01  3-Jul-2019

 ----------------------------------------------------------------------
 # B3LYP/6-31G* empiricaldispersion=gd3 guess=read geom=check nosymm in
 tegral(ultrafinegrid)
 ----------------------------------------------------------------------

 ------------------------------------------------------
 Candidate Structure: Conf:365 Charge calc in gas phase
 ------------------------------------------------------
 Structure from the checkpoint file:  "conf-365.chk"
 Charge =  1 Multiplicity = 1

                          Input orientation:
 ---------------------------------------------------------------------
 Center     Atomic      Atomic             Coordinates (Angstroms)
 Number     Number       Type             X           Y           Z
 ---------------------------------------------------------------------
      1          7           0       -3.976689    3.087840    3.832092
      2          1           0       -4.902212    3.481083    4.019426
      3          1           0       -4.037103    2.010903    3.788003
      4          1           0       -3.335261    3.382421    4.573176
      5          6           0       -3.450837    3.382906    2.438769
      6          1           0       -4.156804    4.060120    1.953236
      7          6           0       -3.491666    1.969821    1.775873
      8          6           0       -2.036253    3.987063    2.532311
      9          1           0       -2.084055    4.918422    3.113822
     10          1           0       -1.369692    3.283800    3.036855
     11          8           0       -3.784372    1.015831    2.509423
     12          6           0       -1.343597    4.296364    1.189468
     13          7           0       -2.178539    4.736563    0.175317
     14          1           0       -1.706730    4.966201   -0.697577
     15          1           0       -2.965789    5.334665    0.397039
     16          8           0       -0.161671    4.092164    1.034634
     17          7           0       -3.239306    1.909034    0.466049
     18          1           0       -2.950421    2.781122    0.018170
     19          6           0       -2.632280    0.706514   -0.099233
     20          1           0       -3.223276   -0.158098    0.219472
     21          6           0       -1.224702    0.558667    0.567560
     22          6           0       -2.650591    0.802312   -1.644332
     23          1           0       -2.106164   -0.049289   -2.066165
     24          1           0       -3.690276    0.683022   -1.965918
     25          8           0       -0.938659    1.199282    1.576575
     26          6           0       -2.096087    2.108709   -2.182425
     27          6           0       -2.963148    3.062159   -2.734449
     28          1           0       -4.025569    2.840510   -2.809241
     29          6           0       -0.727160    2.407811   -2.103186
     30          1           0       -0.032693    1.670893   -1.716435
     31          6           0       -2.474509    4.280902   -3.212316
     32          1           0       -3.156797    4.995532   -3.665187
     33          6           0       -0.237389    3.632824   -2.555600
     34          1           0        0.820762    3.858875   -2.467275
     35          6           0       -1.110268    4.570533   -3.120053
     36          1           0       -0.713063    5.499424   -3.516522
     37          7           0       -0.408186   -0.351257   -0.001829
     38          1           0       -0.608081   -0.704795   -0.932216
     39          6           0        0.999043   -0.482634    0.342592
     40          1           0        1.250657    0.310019    1.051418
     41          6           0        1.791844   -0.321958   -0.971758
     42          6           0        1.266543   -1.880552    0.972014
     43          1           0        0.794208   -2.642646    0.348395
     44          1           0        0.806307   -1.904251    1.966340
     45          8           0        1.249546   -0.576054   -2.047325
     46          6           0        2.760928   -2.195302    1.001608
     47          7           0        3.463812   -1.602827    2.010927
     48          1           0        4.472036   -1.692342    1.998363
     49          1           0        3.019293   -1.223754    2.833755
     50          8           0        3.294916   -2.823439    0.098778
     51          7           0        3.077113    0.075334   -0.837865
     52          1           0        3.462944    0.169388    0.097017
     53          6           0        4.066649   -0.223443   -1.868554
     54          1           0        3.621085   -0.944411   -2.558302
     55          6           0        5.266121   -0.861242   -1.175687
     56          6           0        4.538138    1.017919   -2.653455
     57          1           0        5.106348    1.673615   -1.980427
     58          1           0        5.238051    0.667101   -3.423056
     59          8           0        5.555128   -0.689490   -0.008365
     60          6           0        3.397975    1.820449   -3.292416
     61          1           0        2.704569    1.150160   -3.816275
     62          1           0        2.831539    2.335103   -2.510611
     63          6           0        3.978393    2.864060   -4.259693
     64          1           0        4.762297    3.431675   -3.750601
     65          1           0        4.440072    2.360104   -5.117831
     66          7           0        3.033181    3.841417   -4.783558
     67          1           0        2.330952    3.491799   -5.423697
     68          7           0        1.758567    5.774790   -4.693405
     69          1           0        1.661396    6.681626   -4.251448
     70          1           0        1.966909    5.880279   -5.682003
     71          7           0        3.078351    5.060048   -2.807179
     72          1           0        2.827482    5.973905   -2.427265
     73          6           0        2.651516    4.923529   -4.014199
     74          8           0        6.010296   -1.571010   -2.036067
     75          1           0        6.776061   -1.919880   -1.540964
 ---------------------------------------------------------------------

 SCF Done:  E(RB3LYP) =  -1917.43303293     A.U. after    1 cycles

 Alpha  occ. eigenvalues --  -19.27106 -19.26674 -19.23426 -19.21987 -19.21130
 Alpha  occ. eigenvalues --  -19.20076 -19.18369 -14.60046 -14.48525 -14.47243
 Alpha  occ. eigenvalues --  -14.45548 -14.43575 -14.43035 -14.41412 -14.40601
 Alpha  occ. eigenvalues --  -14.34669 -10.43680 -10.41675 -10.41383 -10.39196
 Alpha  occ. eigenvalues --  -10.39013 -10.36964 -10.36309 -10.34814 -10.34432
 Alpha  occ. eigenvalues --  -10.34279 -10.32726 -10.30512 -10.29895 -10.28774
 Alpha  occ. eigenvalues --  -10.27951 -10.27834 -10.27693 -10.27202 -10.27116
 Alpha  occ. eigenvalues --  -10.27014 -10.26781 -10.25361 -10.23688  -1.19670
 Alpha  occ. eigenvalues --   -1.17711  -1.15450  -1.14244  -1.13524  -1.11895
 Alpha  occ. eigenvalues --   -1.10290  -1.08751  -1.06163  -1.03674  -1.02348
 Alpha  occ. eigenvalues --   -1.02144  -1.00462  -0.97644  -0.94799  -0.94608
 Alpha  occ. eigenvalues --   -0.93365  -0.90234  -0.89436  -0.87312  -0.85437
 Alpha  occ. eigenvalues --   -0.83812  -0.82822  -0.81956  -0.80690  -0.76923
 Alpha  occ. eigenvalues --   -0.75222  -0.74550  -0.73837  -0.73393  -0.71918
 Alpha  occ. eigenvalues --   -0.69873  -0.69672  -0.68996  -0.68071  -0.67097
 Alpha  occ. eigenvalues --   -0.66871  -0.66300  -0.65934  -0.65391  -0.65034
 Alpha  occ. eigenvalues --   -0.64340  -0.62732  -0.62489  -0.61351  -0.60374
 Alpha  occ. eigenvalues --   -0.59887  -0.59558  -0.58590  -0.58375  -0.58066
 Alpha  occ. eigenvalues --   -0.57442  -0.56838  -0.55858  -0.55513  -0.55099
 Alpha  occ. eigenvalues --   -0.54499  -0.54221  -0.53912  -0.53718  -0.53338
 Alpha  occ. eigenvalues --   -0.52710  -0.52643  -0.52252  -0.51992  -0.51877
 Alpha  occ. eigenvalues --   -0.51667  -0.50452  -0.50010  -0.49704  -0.49385
 Alpha  occ. eigenvalues --   -0.49203  -0.48907  -0.48693  -0.47876  -0.47599
 Alpha  occ. eigenvalues --   -0.47395  -0.46714  -0.46371  -0.46287  -0.45362
 Alpha  occ. eigenvalues --   -0.44523  -0.44259  -0.43678  -0.42618  -0.42487
 Alpha  occ. eigenvalues --   -0.41963  -0.41869  -0.41690  -0.41051  -0.39934
 Alpha  occ. eigenvalues --   -0.39403  -0.39313  -0.38610  -0.36672  -0.35975
 Alpha  occ. eigenvalues --   -0.35832  -0.35314  -0.34039  -0.33698  -0.33537
 Alpha  occ. eigenvalues --   -0.33417  -0.33230  -0.32530  -0.31886  -0.31650
 Alpha  occ. eigenvalues --   -0.28623
 Alpha virt. eigenvalues --   -0.12805  -0.11447  -0.10270  -0.09671  -0.08876
 Alpha virt. eigenvalues --   -0.07472  -0.06939  -0.06518  -0.05809  -0.05016
 Alpha virt. eigenvalues --   -0.04750  -0.02399  -0.01209  -0.00998  -0.00542

 Mulliken charges:
               1
     1  N   -0.764482
     2  H    0.413452
     3  H    0.440307
     4  H    0.415020
     5  C   -0.119765
     6  H    0.204075
     7  C    0.672033
     8  C   -0.392398
     9  H    0.189496
    10  H    0.238432
    11  O   -0.536374
    12  C    0.584950
    13  N   -0.781472
    14  H    0.380444
    15  H    0.336728
    16  O   -0.430858
    17  N   -0.602698
    18  H    0.407659
    19  C   -0.093683
    20  H    0.214391
    21  C    0.638655
    22  C   -0.389698
    23  H    0.187857
    24  H    0.177294
    25  O   -0.533359
    26  C    0.119211
    27  C   -0.189325
    28  H    0.136587
    29  C   -0.175143
    30  H    0.160736
    31  C   -0.138245
    32  H    0.145001
    33  C   -0.150736
    34  H    0.194795
    35  C   -0.171469
    36  H    0.151534
    37  N   -0.602350
    38  H    0.362910
    39  C   -0.080587
    40  H    0.195006
    41  C    0.629205
    42  C   -0.335099
    43  H    0.190409
    44  H    0.163618
    45  O   -0.541868
    46  C    0.566319
    47  N   -0.743028
    48  H    0.372033
    49  H    0.340133
    50  O   -0.494020
    51  N   -0.588729
    52  H    0.358121
    53  C   -0.045152
    54  H    0.208124
    55  C    0.612860
    56  C   -0.279763
    57  H    0.159230
    58  H    0.161698
    59  O   -0.492813
    60  C   -0.273652
    61  H    0.147351
    62  H    0.173636
    63  C   -0.122132
    64  H    0.180111
    65  H    0.144805
    66  N   -0.598003
    67  H    0.323657
    68  N   -0.758537
    69  H    0.321393
    70  H    0.331189
    71  N   -0.647786
    72  H    0.267013
    73  C    0.586355
    74  O   -0.554052
    75  H    0.423445
 Sum of Mulliken charges =   1.00000

 Dipole moment (field-independent basis, Debye):
    X=            -12.0644    Y=             17.6088    Z=              7.3015  Tot=             22.5595
 Quadrupole moment (field-independent basis, Debye-Ang):
   XX=           -139.9035   YY=           -137.9767   ZZ=           -143.6616
   XY=            -61.8183   XZ=            -46.1727   YZ=              9.2983

 Normal termination of Gaussian 16 at Tue May 31 12:47:37 2022.
