 Gaussian 16, Revision C.01,
 Gaussian 16:  ES64L-G16RevC.01  3-Jul-2019

 ----------------------------------------------------------------------
 # B3LYP/6-31G* empiricaldispersion=gd3 guess=read geom=check nosymm in
 tegral(ultrafinegrid)
 ----------------------------------------------------------------------

 ------------------------------------------------------
 Candidate Structure: Conf:883 Charge calc in gas phase
 ------------------------------------------------------
 Structure from the checkpoint file:  "conf-883.chk"
 Charge =  1 Multiplicity = 1

                          Input orientation:
 ---------------------------------------------------------------------
 Center     Atomic      Atomic             Coordinates (Angstroms)
 Number     Number       Type             X           Y           Z
 ---------------------------------------------------------------------
      1          7           0       -6.367954    1.698329    2.654335
      2          1           0       -6.396398    0.723980    2.207103
      3          1           0       -6.656806    1.623660    3.645631
      4          1           0       -6.983622    2.348097    2.161730
      5          6           0       -4.894588    2.025486    2.525002
      6          1           0       -4.786794    2.811774    1.773022
      7          6           0       -4.302339    0.700272    1.949321
      8          6           0       -4.295829    2.474720    3.871053
      9          1           0       -3.213111    2.571549    3.764773
     10          1           0       -4.696769    3.456857    4.145025
     11          8           0       -5.108550   -0.203204    1.670093
     12          6           0       -4.591435    1.398182    4.920197
     13          7           0       -5.766891    1.620974    5.636167
     14          1           0       -5.940976    0.928653    6.361245
     15          1           0       -5.968489    2.571181    5.932919
     16          8           0       -3.971512    0.358201    4.968557
     17          7           0       -2.999570    0.684709    1.760907
     18          1           0       -2.391526    1.479215    1.982423
     19          6           0       -2.230272   -0.397967    1.158757
     20          1           0       -2.372670   -1.311713    1.746995
     21          6           0       -0.766208    0.091574    1.285248
     22          6           0       -2.648364   -0.672610   -0.316233
     23          1           0       -2.016207   -1.478109   -0.705200
     24          1           0       -3.673933   -1.052848   -0.291706
     25          8           0       -0.536118    1.230794    1.696641
     26          6           0       -2.545223    0.551292   -1.198456
     27          6           0       -3.612153    1.457010   -1.291586
     28          1           0       -4.550960    1.224182   -0.791711
     29          6           0       -1.367077    0.825067   -1.904871
     30          1           0       -0.553810    0.107322   -1.892743
     31          6           0       -3.494906    2.623668   -2.048797
     32          1           0       -4.335233    3.309450   -2.124636
     33          6           0       -1.242217    1.996685   -2.654495
     34          1           0       -0.318348    2.188919   -3.190547
     35          6           0       -2.302773    2.902582   -2.722971
     36          1           0       -2.204994    3.813381   -3.307380
     37          7           0        0.179489   -0.793827    0.915603
     38          1           0       -0.108547   -1.625161    0.404107
     39          6           0        1.520628   -0.362545    0.532922
     40          1           0        1.590680    0.716612    0.675132
     41          6           0        1.676446   -0.748548   -0.951144
     42          6           0        2.612390   -1.051587    1.370801
     43          1           0        2.642580   -2.123913    1.144438
     44          1           0        2.358731   -0.946763    2.432781
     45          8           0        1.017707   -1.686085   -1.409488
     46          6           0        3.983725   -0.407878    1.145218
     47          7           0        5.047271   -1.134561    1.572013
     48          1           0        5.964119   -0.780007    1.331687
     49          1           0        4.967129   -2.131335    1.714581
     50          8           0        4.102868    0.723875    0.677164
     51          7           0        2.550386   -0.005916   -1.658329
     52          1           0        3.172730    0.585364   -1.109910
     53          6           0        3.020354   -0.471900   -2.953034
     54          1           0        2.147241   -0.810507   -3.521432
     55          6           0        3.954442   -1.659775   -2.732988
     56          6           0        3.664320    0.714266   -3.701421
     57          1           0        2.910074    1.509635   -3.696348
     58          1           0        4.519929    1.083924   -3.119335
     59          8           0        4.404009   -2.016550   -1.663872
     60          6           0        4.114638    0.456032   -5.145087
     61          1           0        4.568391    1.383939   -5.521130
     62          1           0        4.902647   -0.303917   -5.169879
     63          6           0        3.005363    0.016274   -6.115293
     64          1           0        3.454815   -0.160462   -7.100407
     65          1           0        2.554837   -0.923291   -5.791462
     66          7           0        1.922701    0.979362   -6.280541
     67          1           0        2.192230    1.909501   -6.573524
     68          7           0       -0.136907    1.958317   -5.902384
     69          1           0       -1.077204    1.826027   -5.549604
     70          1           0       -0.147307    2.224465   -6.882208
     71          7           0        0.493028   -0.071814   -4.775822
     72          1           0       -0.475413   -0.070004   -4.461190
     73          6           0        0.726049    0.888993   -5.602096
     74          8           0        4.221152   -2.302906   -3.891605
     75          1           0        4.808474   -3.051186   -3.672453
 ---------------------------------------------------------------------

 SCF Done:  E(RB3LYP) =  -1917.44815489     A.U. after    1 cycles

 Alpha  occ. eigenvalues --  -19.26648 -19.26163 -19.25763 -19.21793 -19.20061
 Alpha  occ. eigenvalues --  -19.18750 -19.18649 -14.59252 -14.50266 -14.48647
 Alpha  occ. eigenvalues --  -14.44755 -14.42440 -14.41898 -14.40681 -14.40321
 Alpha  occ. eigenvalues --  -14.33985 -10.43591 -10.43273 -10.41668 -10.38625
 Alpha  occ. eigenvalues --  -10.37844 -10.36432 -10.35725 -10.35455 -10.34261
 Alpha  occ. eigenvalues --  -10.34001 -10.30944 -10.28530 -10.28451 -10.27730
 Alpha  occ. eigenvalues --  -10.27456 -10.27207 -10.27056 -10.26694 -10.26590
 Alpha  occ. eigenvalues --  -10.26195 -10.26030 -10.25073 -10.24091  -1.19194
 Alpha  occ. eigenvalues --   -1.17965  -1.16552  -1.13898  -1.13227  -1.10775
 Alpha  occ. eigenvalues --   -1.10215  -1.07491  -1.05796  -1.04669  -1.03211
 Alpha  occ. eigenvalues --   -1.01592  -0.99114  -0.97346  -0.94487  -0.94331
 Alpha  occ. eigenvalues --   -0.93353  -0.89712  -0.88867  -0.86435  -0.84745
 Alpha  occ. eigenvalues --   -0.84155  -0.82109  -0.81752  -0.79554  -0.76386
 Alpha  occ. eigenvalues --   -0.75514  -0.74787  -0.73532  -0.72658  -0.72087
 Alpha  occ. eigenvalues --   -0.70540  -0.69272  -0.68326  -0.67520  -0.67227
 Alpha  occ. eigenvalues --   -0.66468  -0.65777  -0.65566  -0.64932  -0.63946
 Alpha  occ. eigenvalues --   -0.63538  -0.63454  -0.61205  -0.60547  -0.60346
 Alpha  occ. eigenvalues --   -0.59490  -0.59018  -0.58815  -0.57782  -0.57518
 Alpha  occ. eigenvalues --   -0.57131  -0.56388  -0.55689  -0.55311  -0.54964
 Alpha  occ. eigenvalues --   -0.54521  -0.54065  -0.53898  -0.53347  -0.53170
 Alpha  occ. eigenvalues --   -0.52973  -0.52761  -0.51945  -0.51704  -0.51378
 Alpha  occ. eigenvalues --   -0.50893  -0.50608  -0.49984  -0.49642  -0.49439
 Alpha  occ. eigenvalues --   -0.48890  -0.48607  -0.47636  -0.47584  -0.47153
 Alpha  occ. eigenvalues --   -0.46843  -0.46455  -0.45991  -0.45476  -0.44301
 Alpha  occ. eigenvalues --   -0.43929  -0.43539  -0.42959  -0.42872  -0.42646
 Alpha  occ. eigenvalues --   -0.41838  -0.41362  -0.41000  -0.40407  -0.40061
 Alpha  occ. eigenvalues --   -0.39442  -0.39122  -0.38484  -0.37534  -0.36035
 Alpha  occ. eigenvalues --   -0.35316  -0.34394  -0.33845  -0.33065  -0.32744
 Alpha  occ. eigenvalues --   -0.32446  -0.32334  -0.32212  -0.31928  -0.30625
 Alpha  occ. eigenvalues --   -0.27931
 Alpha virt. eigenvalues --   -0.13461  -0.12301  -0.09475  -0.08528  -0.08388
 Alpha virt. eigenvalues --   -0.07014  -0.06190  -0.05383  -0.04942  -0.04484
 Alpha virt. eigenvalues --   -0.04326  -0.02155  -0.01329  -0.00677  -0.00345

 Mulliken charges:
               1
     1  N   -0.773057
     2  H    0.436814
     3  H    0.415560
     4  H    0.410209
     5  C   -0.126441
     6  H    0.235161
     7  C    0.690572
     8  C   -0.368944
     9  H    0.237972
    10  H    0.180379
    11  O   -0.554886
    12  C    0.539738
    13  N   -0.757272
    14  H    0.374636
    15  H    0.357889
    16  O   -0.419135
    17  N   -0.609668
    18  H    0.380938
    19  C   -0.045490
    20  H    0.203700
    21  C    0.627394
    22  C   -0.400068
    23  H    0.188564
    24  H    0.192297
    25  O   -0.535527
    26  C    0.164373
    27  C   -0.196225
    28  H    0.104765
    29  C   -0.210206
    30  H    0.190648
    31  C   -0.130345
    32  H    0.127597
    33  C   -0.162376
    34  H    0.175595
    35  C   -0.138696
    36  H    0.145690
    37  N   -0.605118
    38  H    0.357562
    39  C   -0.083329
    40  H    0.214445
    41  C    0.632041
    42  C   -0.370306
    43  H    0.176715
    44  H    0.197423
    45  O   -0.556338
    46  C    0.628390
    47  N   -0.731026
    48  H    0.353759
    49  H    0.348997
    50  O   -0.528045
    51  N   -0.604557
    52  H    0.375094
    53  C   -0.074240
    54  H    0.262483
    55  C    0.603280
    56  C   -0.291958
    57  H    0.164436
    58  H    0.148468
    59  O   -0.486797
    60  C   -0.272930
    61  H    0.134222
    62  H    0.157951
    63  C   -0.138634
    64  H    0.149780
    65  H    0.200341
    66  N   -0.596387
    67  H    0.320217
    68  N   -0.767746
    69  H    0.327501
    70  H    0.328455
    71  N   -0.665843
    72  H    0.278085
    73  C    0.605355
    74  O   -0.559606
    75  H    0.415708
 Sum of Mulliken charges =   1.00000

 Dipole moment (field-independent basis, Debye):
    X=            -17.9670    Y=              8.8903    Z=              7.6954  Tot=             21.4725
 Quadrupole moment (field-independent basis, Debye-Ang):
   XX=            -45.1286   YY=           -191.1907   ZZ=           -124.7846
   XY=            -76.0601   XZ=            -89.7823   YZ=             12.8545

 Normal termination of Gaussian 16 at Tue May 31 12:47:24 2022.
