 Gaussian 16, Revision C.01,
 Gaussian 16:  ES64L-G16RevC.01  3-Jul-2019

 ----------------------------------------------------------------------
 # B3LYP/6-31G* empiricaldispersion=gd3 guess=read geom=check nosymm in
 tegral(ultrafinegrid)
 ----------------------------------------------------------------------

 ------------------------------------------------------
 Candidate Structure: Conf:472 Charge calc in gas phase
 ------------------------------------------------------
 Structure from the checkpoint file:  "conf-472.chk"
 Charge =  1 Multiplicity = 1

                          Input orientation:
 ---------------------------------------------------------------------
 Center     Atomic      Atomic             Coordinates (Angstroms)
 Number     Number       Type             X           Y           Z
 ---------------------------------------------------------------------
      1          7           0       -6.087084    0.009994    3.646747
      2          1           0       -6.886881    0.647590    3.663343
      3          1           0       -6.034190   -0.499123    2.690301
      4          1           0       -6.190688   -0.664224    4.408857
      5          6           0       -4.752814    0.724282    3.635299
      6          1           0       -4.922280    1.799574    3.709714
      7          6           0       -4.206571    0.359721    2.218755
      8          6           0       -3.856552    0.269570    4.795415
      9          1           0       -4.436767    0.233188    5.727579
     10          1           0       -3.457368   -0.735620    4.613645
     11          8           0       -4.892830   -0.438862    1.548190
     12          6           0       -2.712947    1.283816    4.990818
     13          7           0       -1.783014    0.948474    5.907045
     14          1           0       -1.010639    1.585654    6.056654
     15          1           0       -1.795690    0.079011    6.420322
     16          8           0       -2.692780    2.329936    4.349810
     17          7           0       -3.062260    0.899276    1.847537
     18          1           0       -2.583388    1.581925    2.442015
     19          6           0       -2.427468    0.640048    0.555112
     20          1           0       -2.651753   -0.386987    0.255636
     21          6           0       -0.922611    0.858944    0.769162
     22          6           0       -2.964820    1.630353   -0.520890
     23          1           0       -4.030356    1.412457   -0.658806
     24          1           0       -2.879064    2.641396   -0.107567
     25          8           0       -0.538108    1.687036    1.597637
     26          6           0       -2.207726    1.528775   -1.825218
     27          6           0       -1.182536    2.437730   -2.120211
     28          1           0       -0.977444    3.253631   -1.430261
     29          6           0       -2.453313    0.472844   -2.712089
     30          1           0       -3.249076   -0.238123   -2.496598
     31          6           0       -0.413713    2.297512   -3.276675
     32          1           0        0.379652    3.004804   -3.504332
     33          6           0       -1.681878    0.323747   -3.866060
     34          1           0       -1.875365   -0.505315   -4.540707
     35          6           0       -0.663041    1.235095   -4.148810
     36          1           0       -0.057115    1.120564   -5.042543
     37          7           0       -0.118224    0.142896   -0.032872
     38          1           0       -0.500228   -0.470586   -0.749911
     39          6           0        1.265058    0.518772   -0.280815
     40          1           0        1.343720    1.608962   -0.328196
     41          6           0        1.633956   -0.114045   -1.634666
     42          6           0        2.204616    0.015521    0.833964
     43          1           0        2.273033   -1.077916    0.805195
     44          1           0        1.758146    0.301557    1.793607
     45          8           0        0.986812   -1.060707   -2.080307
     46          6           0        3.591954    0.653187    0.762266
     47          7           0        4.544910    0.064314    1.534694
     48          1           0        5.492331    0.392294    1.394618
     49          1           0        4.443407   -0.902761    1.809191
     50          8           0        3.813422    1.676006    0.115845
     51          7           0        2.710139    0.434118   -2.242934
     52          1           0        3.233907    1.119537   -1.700656
     53          6           0        3.425250   -0.281472   -3.278844
     54          1           0        2.699085   -0.912658   -3.802626
     55          6           0        4.432546   -1.233317   -2.623658
     56          6           0        4.070757    0.692552   -4.280960
     57          1           0        4.704637    1.400004   -3.727309
     58          1           0        4.731760    0.127970   -4.946710
     59          8           0        4.577049   -1.387707   -1.429469
     60          6           0        3.007429    1.447924   -5.084012
     61          1           0        2.465060    0.743789   -5.729412
     62          1           0        2.281090    1.894914   -4.402185
     63          6           0        3.606575    2.559932   -5.946833
     64          1           0        4.103847    3.296052   -5.300528
     65          1           0        4.359162    2.141073   -6.624768
     66          7           0        2.597166    3.213625   -6.782831
     67          1           0        2.924134    3.453205   -7.710502
     68          7           0        1.069382    4.897986   -7.211347
     69          1           0        0.316759    5.468939   -6.847500
     70          1           0        0.760392    4.337677   -7.998664
     71          7           0        1.751381    4.392098   -4.959998
     72          1           0        1.054963    5.099343   -4.721579
     73          6           0        1.778570    4.190356   -6.231498
     74          8           0        5.140562   -1.913662   -3.548907
     75          1           0        5.742941   -2.511170   -3.066688
 ---------------------------------------------------------------------

 SCF Done:  E(RB3LYP) =  -1917.44738765     A.U. after    1 cycles

 Alpha  occ. eigenvalues --  -19.27034 -19.26219 -19.24797 -19.20701 -19.20052
 Alpha  occ. eigenvalues --  -19.18410 -19.18364 -14.59958 -14.48934 -14.48689
 Alpha  occ. eigenvalues --  -14.43509 -14.42127 -14.41588 -14.39844 -14.39523
 Alpha  occ. eigenvalues --  -14.33540 -10.43494 -10.43032 -10.41245 -10.38476
 Alpha  occ. eigenvalues --  -10.37121 -10.36127 -10.36105 -10.35242 -10.33476
 Alpha  occ. eigenvalues --  -10.33097 -10.30402 -10.29853 -10.28068 -10.26865
 Alpha  occ. eigenvalues --  -10.26388 -10.26322 -10.25251 -10.24979 -10.24947
 Alpha  occ. eigenvalues --  -10.24868 -10.24529 -10.24258 -10.22857  -1.19488
 Alpha  occ. eigenvalues --   -1.17115  -1.16802  -1.13765  -1.12101  -1.10435
 Alpha  occ. eigenvalues --   -1.09948  -1.08103  -1.05710  -1.03683  -1.02461
 Alpha  occ. eigenvalues --   -1.00410  -0.99066  -0.97055  -0.94319  -0.93535
 Alpha  occ. eigenvalues --   -0.92035  -0.89075  -0.88176  -0.86267  -0.84275
 Alpha  occ. eigenvalues --   -0.83807  -0.80822  -0.80339  -0.79752  -0.75778
 Alpha  occ. eigenvalues --   -0.74743  -0.74481  -0.74066  -0.72611  -0.71465
 Alpha  occ. eigenvalues --   -0.70082  -0.68755  -0.67156  -0.66772  -0.66428
 Alpha  occ. eigenvalues --   -0.66197  -0.65692  -0.64972  -0.64721  -0.64096
 Alpha  occ. eigenvalues --   -0.63297  -0.62145  -0.61147  -0.60153  -0.59862
 Alpha  occ. eigenvalues --   -0.59345  -0.59000  -0.57736  -0.57250  -0.56912
 Alpha  occ. eigenvalues --   -0.56764  -0.56409  -0.56117  -0.55441  -0.54809
 Alpha  occ. eigenvalues --   -0.54141  -0.53391  -0.53339  -0.52663  -0.52285
 Alpha  occ. eigenvalues --   -0.51987  -0.51722  -0.51493  -0.51037  -0.50641
 Alpha  occ. eigenvalues --   -0.50514  -0.50039  -0.49717  -0.48966  -0.48614
 Alpha  occ. eigenvalues --   -0.48042  -0.47749  -0.47154  -0.47050  -0.46867
 Alpha  occ. eigenvalues --   -0.45971  -0.45721  -0.45030  -0.44455  -0.43964
 Alpha  occ. eigenvalues --   -0.42886  -0.42318  -0.42229  -0.41953  -0.41827
 Alpha  occ. eigenvalues --   -0.41157  -0.40473  -0.40103  -0.39766  -0.39702
 Alpha  occ. eigenvalues --   -0.38940  -0.38637  -0.38473  -0.38079  -0.34436
 Alpha  occ. eigenvalues --   -0.34264  -0.34051  -0.34015  -0.32324  -0.32082
 Alpha  occ. eigenvalues --   -0.31861  -0.31596  -0.30819  -0.30299  -0.30198
 Alpha  occ. eigenvalues --   -0.27694
 Alpha virt. eigenvalues --   -0.12267  -0.11650  -0.10815  -0.06955  -0.06762
 Alpha virt. eigenvalues --   -0.06481  -0.05988  -0.05566  -0.04687  -0.04644
 Alpha virt. eigenvalues --   -0.04040  -0.03023  -0.01481  -0.00055   0.00222

 Mulliken charges:
               1
     1  N   -0.773400
     2  H    0.417573
     3  H    0.440150
     4  H    0.408916
     5  C   -0.090788
     6  H    0.248072
     7  C    0.632176
     8  C   -0.410865
     9  H    0.198802
    10  H    0.206952
    11  O   -0.554038
    12  C    0.637288
    13  N   -0.739825
    14  H    0.381095
    15  H    0.360012
    16  O   -0.494409
    17  N   -0.606725
    18  H    0.413324
    19  C   -0.063995
    20  H    0.186685
    21  C    0.619267
    22  C   -0.352114
    23  H    0.167965
    24  H    0.167457
    25  O   -0.547223
    26  C    0.152755
    27  C   -0.195384
    28  H    0.139203
    29  C   -0.201053
    30  H    0.125927
    31  C   -0.156907
    32  H    0.192700
    33  C   -0.110361
    34  H    0.141409
    35  C   -0.137019
    36  H    0.146626
    37  N   -0.615817
    38  H    0.368695
    39  C   -0.042546
    40  H    0.202742
    41  C    0.617220
    42  C   -0.372341
    43  H    0.172500
    44  H    0.201653
    45  O   -0.542871
    46  C    0.625487
    47  N   -0.731383
    48  H    0.350678
    49  H    0.343694
    50  O   -0.525144
    51  N   -0.601676
    52  H    0.380025
    53  C   -0.068750
    54  H    0.207340
    55  C    0.596818
    56  C   -0.290520
    57  H    0.151501
    58  H    0.168583
    59  O   -0.480370
    60  C   -0.269517
    61  H    0.136170
    62  H    0.196365
    63  C   -0.121903
    64  H    0.166564
    65  H    0.135525
    66  N   -0.604102
    67  H    0.326196
    68  N   -0.754129
    69  H    0.325645
    70  H    0.327200
    71  N   -0.654911
    72  H    0.270173
    73  C    0.594881
    74  O   -0.558307
    75  H    0.418385
 Sum of Mulliken charges =   1.00000

 Dipole moment (field-independent basis, Debye):
    X=            -15.2859    Y=             -1.0236    Z=             12.3041  Tot=             19.6493
 Quadrupole moment (field-independent basis, Debye-Ang):
   XX=            -74.5732   YY=           -221.8501   ZZ=            -72.1838
   XY=            -18.3937   XZ=            -92.7699   YZ=            -25.4780

 Normal termination of Gaussian 16 at Tue May 31 13:04:17 2022.
