 Gaussian 16, Revision C.01,
 Gaussian 16:  ES64L-G16RevC.01  3-Jul-2019

 ----------------------------------------------------------------------
 # B3LYP/6-31G* empiricaldispersion=gd3 guess=read geom=check nosymm in
 tegral(ultrafinegrid)
 ----------------------------------------------------------------------

 ------------------------------------------------------
 Candidate Structure: Conf:448 Charge calc in gas phase
 ------------------------------------------------------
 Structure from the checkpoint file:  "conf-448.chk"
 Charge =  1 Multiplicity = 1

                          Input orientation:
 ---------------------------------------------------------------------
 Center     Atomic      Atomic             Coordinates (Angstroms)
 Number     Number       Type             X           Y           Z
 ---------------------------------------------------------------------
      1          7           0       -4.209288    2.699347    3.389005
      2          1           0       -4.510100    1.734358    3.129871
      3          1           0       -3.633420    2.607386    4.281042
      4          1           0       -5.013562    3.316193    3.513273
      5          6           0       -3.270839    3.122935    2.285600
      6          1           0       -3.696399    3.985461    1.766952
      7          6           0       -3.170724    1.896141    1.345544
      8          6           0       -1.876636    3.470533    2.863546
      9          1           0       -1.164948    3.577242    2.042895
     10          1           0       -1.933649    4.421326    3.403047
     11          8           0       -3.633873    0.821754    1.725038
     12          6           0       -1.434342    2.411862    3.874877
     13          7           0       -0.328302    1.716235    3.598783
     14          1           0       -0.059302    0.985565    4.246658
     15          1           0        0.079259    1.730906    2.663863
     16          8           0       -2.123248    2.245363    4.898360
     17          7           0       -2.537851    2.112316    0.180431
     18          1           0       -2.102481    3.017345    0.045156
     19          6           0       -1.898308    1.033810   -0.568445
     20          1           0       -2.456070    0.115647   -0.366142
     21          6           0       -0.454261    0.882589   -0.033595
     22          6           0       -1.955453    1.359332   -2.088590
     23          1           0       -3.016896    1.487582   -2.331921
     24          1           0       -1.460833    2.320198   -2.273190
     25          8           0        0.021945    1.741645    0.744301
     26          6           0       -1.335035    0.278510   -2.946395
     27          6           0       -0.068354    0.458316   -3.516176
     28          1           0        0.438950    1.412738   -3.412254
     29          6           0       -1.970937   -0.964323   -3.081125
     30          1           0       -2.954253   -1.117755   -2.640573
     31          6           0        0.559929   -0.588489   -4.193237
     32          1           0        1.554593   -0.435688   -4.599175
     33          6           0       -1.343848   -2.012774   -3.754345
     34          1           0       -1.840980   -2.974512   -3.837504
     35          6           0       -0.074181   -1.827186   -4.308687
     36          1           0        0.416355   -2.645548   -4.828229
     37          7           0        0.216839   -0.170753   -0.490623
     38          1           0       -0.286896   -0.897823   -0.998737
     39          6           0        1.639582   -0.452086   -0.257010
     40          1           0        1.842962   -0.342402    0.815164
     41          6           0        2.494013    0.573367   -1.065715
     42          6           0        1.979561   -1.869175   -0.744368
     43          1           0        3.011764   -2.088004   -0.456834
     44          1           0        1.949163   -1.856782   -1.839126
     45          8           0        2.992658    0.284462   -2.143226
     46          6           0        0.996538   -2.935367   -0.277142
     47          7           0        1.515489   -3.976138    0.422094
     48          1           0        0.901657   -4.748008    0.647334
     49          1           0        2.509320   -4.113670    0.528488
     50          8           0       -0.205094   -2.850783   -0.533517
     51          7           0        2.583076    1.794139   -0.469062
     52          1           0        1.939042    1.957733    0.300084
     53          6           0        2.977427    2.986901   -1.222267
     54          1           0        3.415643    2.633483   -2.158695
     55          6           0        4.057538    3.705578   -0.413173
     56          6           0        1.762494    3.885952   -1.473223
     57          1           0        0.959673    3.276804   -1.899309
     58          1           0        1.419667    4.279365   -0.507633
     59          8           0        3.854686    4.674845    0.285424
     60          6           0        2.037704    5.044500   -2.434190
     61          1           0        2.849035    5.668458   -2.041947
     62          1           0        2.381211    4.634475   -3.391682
     63          6           0        0.769018    5.908025   -2.682238
     64          1           0       -0.072627    5.509976   -2.107937
     65          1           0        0.929622    6.937503   -2.347394
     66          7           0        0.329076    5.977977   -4.071232
     67          1           0        0.939770    6.513293   -4.677283
     68          7           0       -0.364626    5.010339   -6.051094
     69          1           0       -0.907361    4.287415   -6.505612
     70          1           0       -0.634360    5.938562   -6.357106
     71          7           0       -0.491255    3.798377   -3.983720
     72          1           0       -0.974295    3.111714   -4.564576
     73          6           0       -0.208670    4.854060   -4.673600
     74          8           0        5.257257    3.103336   -0.530142
     75          1           0        5.878694    3.587519    0.046868
 ---------------------------------------------------------------------

 SCF Done:  E(RB3LYP) =  -1917.46081280     A.U. after    1 cycles

 Alpha  occ. eigenvalues --  -19.26797 -19.26795 -19.25173 -19.24107 -19.21307
 Alpha  occ. eigenvalues --  -19.20405 -19.20213 -14.57468 -14.49729 -14.47883
 Alpha  occ. eigenvalues --  -14.46838 -14.44802 -14.43999 -14.41969 -14.41744
 Alpha  occ. eigenvalues --  -14.36024 -10.43627 -10.42628 -10.40964 -10.40486
 Alpha  occ. eigenvalues --  -10.39191 -10.38243 -10.37333 -10.35553 -10.35055
 Alpha  occ. eigenvalues --  -10.34593 -10.34065 -10.30880 -10.28841 -10.28764
 Alpha  occ. eigenvalues --  -10.28662 -10.27452 -10.26395 -10.26230 -10.26021
 Alpha  occ. eigenvalues --  -10.25888 -10.25802 -10.25554 -10.25100  -1.19120
 Alpha  occ. eigenvalues --   -1.17746  -1.16822  -1.15265  -1.12283  -1.12028
 Alpha  occ. eigenvalues --   -1.11964  -1.08830  -1.06568  -1.04838  -1.03790
 Alpha  occ. eigenvalues --   -1.03215  -1.00878  -0.99428  -0.95826  -0.93916
 Alpha  occ. eigenvalues --   -0.92979  -0.91329  -0.89634  -0.87462  -0.86460
 Alpha  occ. eigenvalues --   -0.83495  -0.81566  -0.81510  -0.81060  -0.77405
 Alpha  occ. eigenvalues --   -0.74968  -0.74587  -0.73460  -0.73113  -0.72512
 Alpha  occ. eigenvalues --   -0.70862  -0.69517  -0.69276  -0.68172  -0.67709
 Alpha  occ. eigenvalues --   -0.66523  -0.66288  -0.65790  -0.65707  -0.65577
 Alpha  occ. eigenvalues --   -0.65168  -0.63172  -0.62819  -0.61398  -0.61008
 Alpha  occ. eigenvalues --   -0.60881  -0.59999  -0.59434  -0.59209  -0.59082
 Alpha  occ. eigenvalues --   -0.58338  -0.57745  -0.57384  -0.56345  -0.55213
 Alpha  occ. eigenvalues --   -0.55184  -0.54582  -0.54193  -0.53903  -0.53458
 Alpha  occ. eigenvalues --   -0.53239  -0.52697  -0.52368  -0.52158  -0.51950
 Alpha  occ. eigenvalues --   -0.51525  -0.50955  -0.50747  -0.50065  -0.49828
 Alpha  occ. eigenvalues --   -0.49596  -0.49261  -0.48875  -0.48541  -0.48193
 Alpha  occ. eigenvalues --   -0.47988  -0.47753  -0.46847  -0.46485  -0.45899
 Alpha  occ. eigenvalues --   -0.44995  -0.44748  -0.44574  -0.43217  -0.42871
 Alpha  occ. eigenvalues --   -0.41671  -0.41486  -0.41135  -0.40926  -0.40439
 Alpha  occ. eigenvalues --   -0.40056  -0.39569  -0.39083  -0.38943  -0.38294
 Alpha  occ. eigenvalues --   -0.37918  -0.35818  -0.35627  -0.34513  -0.34175
 Alpha  occ. eigenvalues --   -0.33629  -0.32881  -0.32499  -0.31989  -0.31702
 Alpha  occ. eigenvalues --   -0.29879
 Alpha virt. eigenvalues --   -0.12692  -0.11484  -0.10165  -0.08524  -0.07803
 Alpha virt. eigenvalues --   -0.07727  -0.07519  -0.06165  -0.05763  -0.05050
 Alpha virt. eigenvalues --   -0.03154  -0.02208  -0.01200  -0.00915  -0.00450

 Mulliken charges:
               1
     1  N   -0.772234
     2  H    0.425112
     3  H    0.443065
     4  H    0.405589
     5  C   -0.123027
     6  H    0.217910
     7  C    0.635558
     8  C   -0.384494
     9  H    0.215410
    10  H    0.217347
    11  O   -0.508543
    12  C    0.609412
    13  N   -0.741708
    14  H    0.365904
    15  H    0.406009
    16  O   -0.540045
    17  N   -0.563154
    18  H    0.352987
    19  C   -0.107708
    20  H    0.219937
    21  C    0.641441
    22  C   -0.384658
    23  H    0.171979
    24  H    0.204636
    25  O   -0.607110
    26  C    0.115562
    27  C   -0.201032
    28  H    0.175908
    29  C   -0.191386
    30  H    0.131968
    31  C   -0.128617
    32  H    0.161741
    33  C   -0.107980
    34  H    0.149154
    35  C   -0.141826
    36  H    0.146571
    37  N   -0.589345
    38  H    0.407553
    39  C   -0.058496
    40  H    0.168580
    41  C    0.636903
    42  C   -0.406997
    43  H    0.169753
    44  H    0.230616
    45  O   -0.506904
    46  C    0.611744
    47  N   -0.741468
    48  H    0.357335
    49  H    0.352461
    50  O   -0.521541
    51  N   -0.619463
    52  H    0.361514
    53  C   -0.048370
    54  H    0.203319
    55  C    0.587415
    56  C   -0.289818
    57  H    0.182478
    58  H    0.137201
    59  O   -0.462631
    60  C   -0.275367
    61  H    0.158275
    62  H    0.153444
    63  C   -0.132811
    64  H    0.153568
    65  H    0.154269
    66  N   -0.588283
    67  H    0.326795
    68  N   -0.755277
    69  H    0.331745
    70  H    0.334495
    71  N   -0.692206
    72  H    0.277180
    73  C    0.619676
    74  O   -0.554548
    75  H    0.417526
 Sum of Mulliken charges =   1.00000

 Dipole moment (field-independent basis, Debye):
    X=             -7.7332    Y=             10.3316    Z=              3.2234  Tot=             13.3017
 Quadrupole moment (field-independent basis, Debye-Ang):
   XX=           -160.0076   YY=           -140.4487   ZZ=           -168.9249
   XY=            -48.0524   XZ=            -18.0634   YZ=             -6.7251

 Normal termination of Gaussian 16 at Tue May 31 13:04:22 2022.
