 Gaussian 16, Revision C.01,
 Gaussian 16:  ES64L-G16RevC.01  3-Jul-2019

 ----------------------------------------------------------------------
 # B3LYP/6-31G* empiricaldispersion=gd3 guess=read geom=check nosymm in
 tegral(ultrafinegrid)
 ----------------------------------------------------------------------

 -----------------------------------------------------
 Candidate Structure: Conf:34 Charge calc in gas phase
 -----------------------------------------------------
 Structure from the checkpoint file:  "conf-34.chk"
 Charge =  1 Multiplicity = 1

                          Input orientation:
 ---------------------------------------------------------------------
 Center     Atomic      Atomic             Coordinates (Angstroms)
 Number     Number       Type             X           Y           Z
 ---------------------------------------------------------------------
      1          7           0       -5.627535    2.513312    0.723627
      2          1           0       -6.016885    1.885255    0.006809
      3          1           0       -5.608838    1.967143    1.633014
      4          1           0       -6.186392    3.366792    0.787330
      5          6           0       -4.159348    2.728611    0.443701
      6          1           0       -3.976176    2.450409   -0.595660
      7          6           0       -3.498165    1.663141    1.360899
      8          6           0       -3.699910    4.174007    0.666340
      9          1           0       -4.440990    4.876174    0.260030
     10          1           0       -3.580970    4.401509    1.731974
     11          8           0       -4.211221    1.090131    2.201134
     12          6           0       -2.367406    4.394829   -0.090165
     13          7           0       -1.767963    5.573023    0.057373
     14          1           0       -0.869329    5.756281   -0.471221
     15          1           0       -2.161194    6.291133    0.650148
     16          8           0       -1.925609    3.479292   -0.803427
     17          7           0       -2.223757    1.407146    1.104499
     18          1           0       -1.764996    1.946785    0.362789
     19          6           0       -1.589773    0.134857    1.408936
     20          1           0       -1.632231   -0.054321    2.485543
     21          6           0       -0.126775    0.308972    0.968970
     22          6           0       -2.289409   -1.069353    0.646022
     23          1           0       -1.509081   -1.725840    0.247777
     24          1           0       -2.881528   -1.638373    1.367204
     25          8           0        0.232102    1.308583    0.353341
     26          6           0       -3.171720   -0.607187   -0.494360
     27          6           0       -4.568053   -0.633566   -0.379249
     28          1           0       -5.020335   -1.063962    0.510179
     29          6           0       -2.599657   -0.062792   -1.653899
     30          1           0       -1.520272   -0.078666   -1.768192
     31          6           0       -5.380533   -0.102083   -1.389241
     32          1           0       -6.463850   -0.187061   -1.314553
     33          6           0       -3.404602    0.490249   -2.650494
     34          1           0       -2.943012    0.922151   -3.533885
     35          6           0       -4.797812    0.481564   -2.520427
     36          1           0       -5.423069    0.892321   -3.308541
     37          7           0        0.727706   -0.703175    1.283238
     38          1           0        0.314896   -1.586380    1.556934
     39          6           0        1.972907   -0.769101    0.525179
     40          1           0        2.526386    0.152422    0.713151
     41          6           0        1.623840   -0.835927   -0.987796
     42          6           0        2.826485   -1.955041    0.984753
     43          1           0        2.420445   -2.901640    0.604840
     44          1           0        2.805316   -2.008303    2.081576
     45          8           0        0.538455   -1.284907   -1.365469
     46          6           0        4.289463   -1.783534    0.552432
     47          7           0        5.072456   -2.877674    0.713728
     48          1           0        6.049658   -2.808131    0.463438
     49          1           0        4.726743   -3.752874    1.077981
     50          8           0        4.721091   -0.720096    0.117838
     51          7           0        2.571916   -0.339395   -1.803636
     52          1           0        3.480727   -0.101297   -1.408951
     53          6           0        2.391550   -0.200898   -3.237135
     54          1           0        1.644142   -0.931286   -3.562792
     55          6           0        3.713412   -0.517056   -3.923532
     56          6           0        1.912466    1.224358   -3.615232
     57          1           0        2.583458    1.947743   -3.134213
     58          1           0        2.007092    1.350625   -4.700582
     59          8           0        4.782318   -0.614245   -3.365462
     60          6           0        0.468295    1.498252   -3.184293
     61          1           0       -0.210927    0.870523   -3.776780
     62          1           0        0.330210    1.216595   -2.136948
     63          6           0        0.061530    2.966853   -3.338052
     64          1           0        0.375080    3.362804   -4.308217
     65          1           0       -1.033555    3.053351   -3.288445
     66          7           0        0.655205    3.779889   -2.266852
     67          1           0        0.194736    3.594716   -1.380068
     68          7           0        1.555566    5.466094   -3.596399
     69          1           0        1.876129    6.422709   -3.665757
     70          1           0        2.232472    4.794172   -3.937471
     71          7           0        0.551548    5.962594   -1.489985
     72          1           0        0.953729    6.888346   -1.634060
     73          6           0        0.912169    5.125565   -2.415536
     74          8           0        3.547781   -0.643425   -5.258357
     75          1           0        4.430459   -0.813613   -5.639153
 ---------------------------------------------------------------------

 SCF Done:  E(RB3LYP) =  -1917.47373993     A.U. after    1 cycles

 Alpha  occ. eigenvalues --  -19.26822 -19.25117 -19.22215 -19.21799 -19.21208
 Alpha  occ. eigenvalues --  -19.19733 -19.19208 -14.58237 -14.46616 -14.45454
 Alpha  occ. eigenvalues --  -14.44075 -14.43912 -14.42978 -14.42318 -14.40652
 Alpha  occ. eigenvalues --  -14.36852 -10.41550 -10.40124 -10.39201 -10.38611
 Alpha  occ. eigenvalues --  -10.38518 -10.37706 -10.36305 -10.35992 -10.34148
 Alpha  occ. eigenvalues --  -10.33735 -10.31844 -10.31019 -10.29283 -10.29278
 Alpha  occ. eigenvalues --  -10.29195 -10.29060 -10.28958 -10.28796 -10.28436
 Alpha  occ. eigenvalues --  -10.28400 -10.27770 -10.26123 -10.25032  -1.17731
 Alpha  occ. eigenvalues --   -1.17525  -1.14084  -1.13772  -1.12117  -1.11657
 Alpha  occ. eigenvalues --   -1.10786  -1.08866  -1.04803  -1.04428  -1.02021
 Alpha  occ. eigenvalues --   -1.00010  -0.99905  -0.98677  -0.95593  -0.95190
 Alpha  occ. eigenvalues --   -0.92111  -0.91790  -0.88929  -0.87467  -0.86054
 Alpha  occ. eigenvalues --   -0.84039  -0.83847  -0.81574  -0.80703  -0.76953
 Alpha  occ. eigenvalues --   -0.75515  -0.74035  -0.72509  -0.71905  -0.70755
 Alpha  occ. eigenvalues --   -0.70095  -0.69153  -0.68093  -0.68031  -0.67169
 Alpha  occ. eigenvalues --   -0.67109  -0.66805  -0.66326  -0.65356  -0.64581
 Alpha  occ. eigenvalues --   -0.63031  -0.62023  -0.61797  -0.60947  -0.60607
 Alpha  occ. eigenvalues --   -0.60206  -0.58952  -0.58943  -0.58639  -0.57700
 Alpha  occ. eigenvalues --   -0.57165  -0.56437  -0.56189  -0.55597  -0.55398
 Alpha  occ. eigenvalues --   -0.55054  -0.54605  -0.54426  -0.53994  -0.53342
 Alpha  occ. eigenvalues --   -0.53030  -0.52729  -0.52575  -0.52078  -0.51652
 Alpha  occ. eigenvalues --   -0.51118  -0.50437  -0.50377  -0.49923  -0.49599
 Alpha  occ. eigenvalues --   -0.49328  -0.49097  -0.48355  -0.48331  -0.47781
 Alpha  occ. eigenvalues --   -0.47557  -0.46816  -0.46677  -0.46309  -0.45774
 Alpha  occ. eigenvalues --   -0.45292  -0.45084  -0.44230  -0.43453  -0.43117
 Alpha  occ. eigenvalues --   -0.42983  -0.42078  -0.41169  -0.40868  -0.39886
 Alpha  occ. eigenvalues --   -0.38856  -0.37656  -0.36841  -0.36546  -0.36133
 Alpha  occ. eigenvalues --   -0.35350  -0.35149  -0.34991  -0.34696  -0.34629
 Alpha  occ. eigenvalues --   -0.34149  -0.33772  -0.32986  -0.32759  -0.32509
 Alpha  occ. eigenvalues --   -0.30060
 Alpha virt. eigenvalues --   -0.11777  -0.10466  -0.10050  -0.08878  -0.08124
 Alpha virt. eigenvalues --   -0.07864  -0.06233  -0.05603  -0.05112  -0.04162
 Alpha virt. eigenvalues --   -0.03109  -0.01710  -0.00901  -0.00345  -0.00207

 Mulliken charges:
               1
     1  N   -0.764940
     2  H    0.405109
     3  H    0.424412
     4  H    0.401311
     5  C   -0.104175
     6  H    0.252954
     7  C    0.629427
     8  C   -0.403750
     9  H    0.185927
    10  H    0.204106
    11  O   -0.555430
    12  C    0.631491
    13  N   -0.773936
    14  H    0.434064
    15  H    0.337287
    16  O   -0.544693
    17  N   -0.621378
    18  H    0.433187
    19  C   -0.045937
    20  H    0.199163
    21  C    0.633982
    22  C   -0.392828
    23  H    0.201321
    24  H    0.170943
    25  O   -0.521072
    26  C    0.134594
    27  C   -0.186750
    28  H    0.152495
    29  C   -0.177412
    30  H    0.204817
    31  C   -0.201106
    32  H    0.146528
    33  C   -0.136821
    34  H    0.155823
    35  C   -0.143708
    36  H    0.151886
    37  N   -0.608404
    38  H    0.336868
    39  C   -0.034175
    40  H    0.213995
    41  C    0.619679
    42  C   -0.420100
    43  H    0.177976
    44  H    0.195064
    45  O   -0.556251
    46  C    0.630120
    47  N   -0.744467
    48  H    0.363600
    49  H    0.349424
    50  O   -0.507373
    51  N   -0.605389
    52  H    0.393381
    53  C   -0.049779
    54  H    0.197853
    55  C    0.574848
    56  C   -0.267729
    57  H    0.156162
    58  H    0.158897
    59  O   -0.449671
    60  C   -0.291175
    61  H    0.136587
    62  H    0.193176
    63  C   -0.153336
    64  H    0.157403
    65  H    0.151525
    66  N   -0.591209
    67  H    0.364947
    68  N   -0.740347
    69  H    0.334586
    70  H    0.339631
    71  N   -0.720233
    72  H    0.282236
    73  C    0.637880
    74  O   -0.564873
    75  H    0.421782
 Sum of Mulliken charges =   1.00000

 Dipole moment (field-independent basis, Debye):
    X=            -11.4582    Y=              8.6663    Z=             -0.9024  Tot=             14.3948
 Quadrupole moment (field-independent basis, Debye-Ang):
   XX=           -102.9170   YY=           -134.7733   ZZ=           -192.1767
   XY=            -64.7748   XZ=            -17.4323   YZ=            -17.2313

 Normal termination of Gaussian 16 at Tue May 31 12:28:10 2022.
