 Gaussian 16, Revision C.01,
 Gaussian 16:  ES64L-G16RevC.01  3-Jul-2019

 -------------------------------------------------------------------
 # B3LYP/6-31G* guess=read geom=check nosymm integral(ultrafinegrid)
 -------------------------------------------------------------------

 ------------------------------------------------------
 Candidate Structure: Conf:879 Charge calc in gas phase
 ------------------------------------------------------
 Structure from the checkpoint file:  "conf-879.chk"
 Charge =  1 Multiplicity = 1

                          Input orientation:
 ---------------------------------------------------------------------
 Center     Atomic      Atomic             Coordinates (Angstroms)
 Number     Number       Type             X           Y           Z
 ---------------------------------------------------------------------
      1          7           0       -4.855692    2.045540    3.925990
      2          1           0       -5.492666    2.404290    3.189689
      3          1           0       -5.065254    1.029280    4.070543
      4          1           0       -4.988811    2.585481    4.784223
      5          6           0       -3.423283    2.040342    3.428183
      6          1           0       -3.312799    2.838788    2.693170
      7          6           0       -3.330055    0.650242    2.749700
      8          6           0       -2.416162    2.251005    4.562364
      9          1           0       -1.450762    2.425356    4.075892
     10          1           0       -2.650811    3.183521    5.090813
     11          8           0       -4.013793   -0.271728    3.225831
     12          6           0       -2.293873    1.102604    5.571666
     13          1           0       -1.840043    0.214030    5.122955
     14          1           0       -3.270816    0.767489    5.948370
     15          6           0       -1.477274    1.520685    6.780314
     16          8           0       -1.211992    2.662284    7.086123
     17          8           0       -1.093409    0.450023    7.507732
     18          7           0       -2.528652    0.629499    1.695728
     19          1           0       -2.048595    1.530717    1.469207
     20          6           0       -2.383954   -0.484584    0.767717
     21          1           0       -2.555250   -1.412391    1.324810
     22          6           0       -0.903110   -0.453154    0.320355
     23          6           0       -3.418113   -0.377435   -0.394538
     24          1           0       -3.306138   -1.261303   -1.036218
     25          1           0       -3.169605    0.511934   -0.985389
     26          8           0       -0.014301   -0.207752    1.136532
     27          6           0       -4.840069   -0.290889    0.082881
     28          6           0       -5.693002   -1.340453    0.315262
     29          1           0       -5.547991   -2.398009    0.139685
     30          6           0       -5.543008    0.898841    0.500724
     31          6           0       -6.809754    0.483769    1.007541
     32          6           0       -5.216672    2.268570    0.510679
     33          1           0       -4.268730    2.613845    0.098783
     34          7           0       -6.873329   -0.883610    0.867771
     35          1           0       -7.662451   -1.462823    1.110443
     36          6           0       -7.372488    2.731778    1.582831
     37          1           0       -8.071477    3.460927    1.984004
     38          6           0       -7.730261    1.385599    1.553688
     39          1           0       -8.691175    1.052241    1.936731
     40          6           0       -6.130864    3.168925    1.059749
     41          1           0       -5.901981    4.231758    1.055467
     42          7           0       -0.637327   -0.655410   -0.995972
     43          1           0       -1.382891   -0.714716   -1.678670
     44          6           0        0.679055   -0.363155   -1.563864
     45          1           0        1.430568   -0.625529   -0.813726
     46          6           0        0.726840    1.163128   -1.856039
     47          6           0        0.876312   -1.183304   -2.853260
     48          1           0        1.820287   -0.847008   -3.309777
     49          8           0        0.638613    1.581503   -3.022790
     50          6           0        0.947582   -2.682974   -2.601646
     51          1           0        1.803006   -2.932580   -1.964592
     52          1           0        1.055829   -3.208807   -3.554660
     53          1           0        0.035926   -3.041212   -2.114011
     54          8           0       -0.212423   -0.933795   -3.739691
     55          1           0       -0.155128    0.025648   -3.919694
     56          7           0        0.841908    1.941704   -0.752519
     57          1           0        0.859818    1.410980    0.118972
     58          6           0        0.265980    3.299521   -0.547189
     59          1           0        0.859144    3.753765    0.252333
     60          6           0       -1.187272    3.055850   -0.006513
     61          6           0        0.261676    4.183775   -1.790592
     62          1           0       -0.154269    5.154310   -1.494469
     63          1           0       -0.446085    3.745706   -2.496856
     64          8           0       -2.070538    2.822219   -0.857705
     65          6           0        1.643949    4.385201   -2.443870
     66          1           0        2.131007    5.291132   -2.058776
     67          1           0        2.292032    3.532872   -2.212179
     68          6           0        1.493021    4.469741   -3.959976
     69          1           0        1.046741    3.525562   -4.289369
     70          1           0        0.850429    5.309663   -4.250552
     71          7           0        2.812467    4.645622   -4.610072
     72          1           0        3.620188    4.690015   -4.001337
     73          7           0        2.020158    4.373480   -6.767930
     74          1           0        2.097455    4.566251   -7.755795
     75          1           0        1.135618    4.027733   -6.424379
     76          7           0        4.232210    4.964029   -6.425249
     77          1           0        4.980612    5.276448   -5.823581
     78          1           0        4.482124    4.709168   -7.370088
     79          6           0        3.021406    4.653198   -5.921094
     80          8           0       -1.283841    3.010275    1.259303
     81          1           0       -0.597376    0.795507    8.274494
 ---------------------------------------------------------------------

 SCF Done:  E(RB3LYP) =  -2053.93219509     A.U. after    1 cycles

 Alpha  occ. eigenvalues --  -19.25782 -19.20305 -19.19764 -19.19641 -19.19606
 Alpha  occ. eigenvalues --  -19.18262 -19.13870 -19.13602 -14.53646 -14.52777
 Alpha  occ. eigenvalues --  -14.52713 -14.52373 -14.44506 -14.43067 -14.42377
 Alpha  occ. eigenvalues --  -14.41983 -10.48959 -10.38611 -10.36447 -10.36137
 Alpha  occ. eigenvalues --  -10.35707 -10.34290 -10.33425 -10.31723 -10.30318
 Alpha  occ. eigenvalues --  -10.30139 -10.29794 -10.28715 -10.28385 -10.28228
 Alpha  occ. eigenvalues --  -10.28166 -10.27927 -10.27653 -10.26036 -10.25833
 Alpha  occ. eigenvalues --  -10.25754 -10.25475 -10.25117 -10.24952 -10.24745
 Alpha  occ. eigenvalues --  -10.24519 -10.23260  -1.17423  -1.16773  -1.12119
 Alpha  occ. eigenvalues --   -1.11163  -1.10091  -1.07833  -1.07422  -1.07277
 Alpha  occ. eigenvalues --   -1.06902  -1.06387  -1.05706  -1.04416  -0.99845
 Alpha  occ. eigenvalues --   -0.99467  -0.98110  -0.98020  -0.90644  -0.89748
 Alpha  occ. eigenvalues --   -0.88873  -0.86957  -0.84586  -0.83242  -0.82548
 Alpha  occ. eigenvalues --   -0.80752  -0.80150  -0.79649  -0.78494  -0.77191
 Alpha  occ. eigenvalues --   -0.75727  -0.74310  -0.74161  -0.72240  -0.71089
 Alpha  occ. eigenvalues --   -0.68850  -0.68775  -0.67989  -0.66694  -0.66537
 Alpha  occ. eigenvalues --   -0.65978  -0.65888  -0.65621  -0.65135  -0.65029
 Alpha  occ. eigenvalues --   -0.64338  -0.62684  -0.62557  -0.61182  -0.60772
 Alpha  occ. eigenvalues --   -0.60020  -0.59786  -0.58853  -0.57860  -0.56744
 Alpha  occ. eigenvalues --   -0.56269  -0.55811  -0.55723  -0.55312  -0.54856
 Alpha  occ. eigenvalues --   -0.54378  -0.54315  -0.53964  -0.53623  -0.52887
 Alpha  occ. eigenvalues --   -0.52204  -0.51202  -0.50707  -0.50097  -0.49617
 Alpha  occ. eigenvalues --   -0.49297  -0.49275  -0.48881  -0.48851  -0.48441
 Alpha  occ. eigenvalues --   -0.48254  -0.47811  -0.47594  -0.47084  -0.46381
 Alpha  occ. eigenvalues --   -0.46196  -0.45620  -0.45195  -0.44898  -0.44552
 Alpha  occ. eigenvalues --   -0.44409  -0.44039  -0.43946  -0.43822  -0.43537
 Alpha  occ. eigenvalues --   -0.43207  -0.43036  -0.42798  -0.42462  -0.42218
 Alpha  occ. eigenvalues --   -0.41719  -0.41126  -0.40877  -0.40546  -0.40351
 Alpha  occ. eigenvalues --   -0.39742  -0.39154  -0.38066  -0.34955  -0.34474
 Alpha  occ. eigenvalues --   -0.34111  -0.34041  -0.33983  -0.33169  -0.32499
 Alpha  occ. eigenvalues --   -0.32029  -0.30762  -0.29506  -0.29307  -0.27901
 Alpha  occ. eigenvalues --   -0.27229  -0.26609
 Alpha virt. eigenvalues --   -0.12606  -0.09007  -0.08018  -0.07037  -0.06131
 Alpha virt. eigenvalues --   -0.05580  -0.04870  -0.04638  -0.04270  -0.04167
 Alpha virt. eigenvalues --   -0.03840  -0.03475  -0.00318   0.00401   0.01055

 Mulliken charges:
               1
     1  N   -0.767747
     2  H    0.419976
     3  H    0.413538
     4  H    0.392519
     5  C   -0.132061
     6  H    0.231597
     7  C    0.661450
     8  C   -0.293708
     9  H    0.226246
    10  H    0.176693
    11  O   -0.578522
    12  C   -0.371816
    13  H    0.214000
    14  H    0.169106
    15  C    0.582150
    16  O   -0.453634
    17  O   -0.559124
    18  N   -0.628655
    19  H    0.444250
    20  C   -0.039983
    21  H    0.194758
    22  C    0.609498
    23  C   -0.403508
    24  H    0.150409
    25  H    0.203635
    26  O   -0.534941
    27  C    0.077457
    28  C    0.023988
    29  H    0.162051
    30  C    0.047374
    31  C    0.323237
    32  C   -0.233075
    33  H    0.208133
    34  N   -0.686278
    35  H    0.337602
    36  C   -0.183206
    37  H    0.140021
    38  C   -0.172930
    39  H    0.139709
    40  C   -0.217149
    41  H    0.141257
    42  N   -0.599770
    43  H    0.359426
    44  C   -0.094246
    45  H    0.184935
    46  C    0.633996
    47  C    0.129994
    48  H    0.122036
    49  O   -0.580178
    50  C   -0.449075
    51  H    0.148033
    52  H    0.167053
    53  H    0.158431
    54  O   -0.651379
    55  H    0.412707
    56  N   -0.622651
    57  H    0.376475
    58  C   -0.030691
    59  H    0.148903
    60  C    0.577795
    61  C   -0.280282
    62  H    0.154657
    63  H    0.190747
    64  O   -0.560316
    65  C   -0.306379
    66  H    0.149012
    67  H    0.172163
    68  C   -0.162065
    69  H    0.215999
    70  H    0.184466
    71  N   -0.609502
    72  H    0.365320
    73  N   -0.757790
    74  H    0.384358
    75  H    0.400188
    76  N   -0.765454
    77  H    0.383106
    78  H    0.383473
    79  C    0.838861
    80  O   -0.625810
    81  H    0.419138
 Sum of Mulliken charges =   1.00000

 Dipole moment (field-independent basis, Debye):
    X=              1.4907    Y=             16.6758    Z=            -13.5423  Tot=             21.5337
 Quadrupole moment (field-independent basis, Debye-Ang):
   XX=           -106.6102   YY=           -155.7950   ZZ=            -56.7956
   XY=             53.3482   XZ=           -125.2422   YZ=            -93.4463

 Normal termination of Gaussian 16 at Thu May 26 18:09:22 2022.
