 Gaussian 16, Revision C.01,
 Gaussian 16:  ES64L-G16RevC.01  3-Jul-2019

 -------------------------------------------------------------------
 # B3LYP/6-31G* guess=read geom=check nosymm integral(ultrafinegrid)
 -------------------------------------------------------------------

 ------------------------------------------------------
 Candidate Structure: Conf:578 Charge calc in gas phase
 ------------------------------------------------------
 Structure from the checkpoint file:  "conf-578.chk"
 Charge =  1 Multiplicity = 1

                          Input orientation:
 ---------------------------------------------------------------------
 Center     Atomic      Atomic             Coordinates (Angstroms)
 Number     Number       Type             X           Y           Z
 ---------------------------------------------------------------------
      1          7           0       -6.047510    1.388269    3.463153
      2          1           0       -6.963205    1.770911    3.215655
      3          1           0       -5.901410    0.440950    2.964782
      4          1           0       -6.001261    1.274961    4.479282
      5          6           0       -4.879871    2.171451    2.892535
      6          1           0       -5.277768    3.073173    2.419480
      7          6           0       -4.329315    1.184695    1.816271
      8          6           0       -3.852695    2.508524    3.979835
      9          1           0       -3.586884    1.598819    4.532161
     10          1           0       -2.927119    2.827031    3.488322
     11          8           0       -4.817219    0.043331    1.800068
     12          6           0       -4.305790    3.598944    4.959172
     13          1           0       -5.319135    3.416059    5.348116
     14          1           0       -4.340654    4.584007    4.482404
     15          6           0       -3.382133    3.656298    6.169348
     16          8           0       -2.655141    2.754153    6.515898
     17          8           0       -3.502881    4.828187    6.816863
     18          7           0       -3.380481    1.655236    1.021952
     19          1           0       -2.917246    2.547289    1.214940
     20          6           0       -2.594683    0.863302    0.076812
     21          1           0       -2.661923   -0.188495    0.366348
     22          6           0       -1.156486    1.413003    0.233158
     23          6           0       -3.080061    1.049225   -1.390259
     24          1           0       -2.407287    0.462576   -2.030106
     25          1           0       -2.924732    2.100308   -1.662701
     26          8           0       -0.993658    2.524210    0.743679
     27          6           0       -4.507776    0.664511   -1.632499
     28          6           0       -5.540315    1.528904   -1.903411
     29          1           0       -5.524654    2.605669   -2.010858
     30          6           0       -5.071705   -0.665791   -1.651491
     31          6           0       -6.456392   -0.528065   -1.938668
     32          6           0       -4.543455   -1.956534   -1.471848
     33          1           0       -3.486358   -2.101727   -1.263209
     34          7           0       -6.717619    0.824787   -2.066269
     35          1           0       -7.580265    1.216173   -2.412880
     36          6           0       -6.759065   -2.890600   -1.867830
     37          1           0       -7.393730   -3.767904   -1.953151
     38          6           0       -7.312153   -1.628707   -2.050158
     39          1           0       -8.367463   -1.504798   -2.278605
     40          6           0       -5.388014   -3.053232   -1.581837
     41          1           0       -4.988153   -4.054596   -1.451274
     42          7           0       -0.176939    0.615544   -0.233519
     43          1           0       -0.410692   -0.174549   -0.837935
     44          6           0        1.197318    1.063962   -0.469903
     45          1           0        1.226885    2.152077   -0.368191
     46          6           0        1.525246    0.595400   -1.905420
     47          6           0        2.163154    0.426803    0.581033
     48          1           0        2.266481   -0.641195    0.325503
     49          8           0        0.888979   -0.354291   -2.387479
     50          6           0        3.536360    1.085813    0.612096
     51          1           0        4.067747    0.998979   -0.338944
     52          1           0        4.141143    0.611379    1.390210
     53          1           0        3.438018    2.147665    0.864416
     54          8           0        1.619306    0.566401    1.885727
     55          1           0        0.759734    0.116871    1.883954
     56          7           0        2.511438    1.246090   -2.530659
     57          1           0        3.091584    1.949959   -2.065302
     58          6           0        3.155559    0.796216   -3.761166
     59          1           0        3.214335   -0.299391   -3.745100
     60          6           0        4.608927    1.383093   -3.708721
     61          6           0        2.314657    1.211141   -4.994707
     62          1           0        2.331537    2.304704   -5.098611
     63          1           0        1.280937    0.932695   -4.766426
     64          8           0        5.422710    0.998854   -4.609694
     65          6           0        2.716191    0.528962   -6.318084
     66          1           0        3.090016   -0.479020   -6.099880
     67          1           0        1.826957    0.393647   -6.947104
     68          6           0        3.778377    1.298995   -7.122667
     69          1           0        3.331848    2.139432   -7.662010
     70          1           0        4.546785    1.698144   -6.459392
     71          7           0        4.450099    0.461541   -8.132874
     72          1           0        3.950245    0.288619   -8.995515
     73          7           0        5.891631   -0.546663   -6.608037
     74          1           0        6.740464   -1.079267   -6.470417
     75          1           0        5.553522    0.033159   -5.754120
     76          7           0        5.892179   -1.199337   -8.852176
     77          1           0        5.846662   -0.836406   -9.794600
     78          1           0        6.685918   -1.797263   -8.669948
     79          6           0        5.425309   -0.415862   -7.835158
     80          8           0        4.849537    2.184586   -2.791620
     81          1           0       -2.907873    4.796641    7.591398
 ---------------------------------------------------------------------

 SCF Done:  E(RB3LYP) =  -2053.91967594     A.U. after    1 cycles

 Alpha  occ. eigenvalues --  -19.29485 -19.26428 -19.24052 -19.20912 -19.19569
 Alpha  occ. eigenvalues --  -19.17233 -19.13230 -19.12431 -14.59327 -14.48633
 Alpha  occ. eigenvalues --  -14.46981 -14.46581 -14.45219 -14.44066 -14.44049
 Alpha  occ. eigenvalues --  -14.40117 -10.43021 -10.42566 -10.42346 -10.40588
 Alpha  occ. eigenvalues --  -10.37874 -10.34183 -10.33730 -10.33566 -10.32888
 Alpha  occ. eigenvalues --  -10.30992 -10.29574 -10.29462 -10.29428 -10.29244
 Alpha  occ. eigenvalues --  -10.28769 -10.28463 -10.26512 -10.25880 -10.25509
 Alpha  occ. eigenvalues --  -10.25326 -10.25254 -10.25234 -10.24915 -10.24487
 Alpha  occ. eigenvalues --  -10.24073 -10.21790  -1.20541  -1.18884  -1.13287
 Alpha  occ. eigenvalues --   -1.12676  -1.11732  -1.10915  -1.08968  -1.07288
 Alpha  occ. eigenvalues --   -1.06228  -1.05446  -1.05001  -1.00517  -1.00308
 Alpha  occ. eigenvalues --   -0.98889  -0.97770  -0.96252  -0.94512  -0.90589
 Alpha  occ. eigenvalues --   -0.89497  -0.87112  -0.85754  -0.84736  -0.82781
 Alpha  occ. eigenvalues --   -0.80189  -0.79624  -0.79385  -0.78584  -0.76781
 Alpha  occ. eigenvalues --   -0.75502  -0.74049  -0.73685  -0.72339  -0.71463
 Alpha  occ. eigenvalues --   -0.70258  -0.70169  -0.69009  -0.68114  -0.67277
 Alpha  occ. eigenvalues --   -0.66373  -0.66133  -0.65672  -0.64729  -0.64475
 Alpha  occ. eigenvalues --   -0.63545  -0.62921  -0.62454  -0.60760  -0.60517
 Alpha  occ. eigenvalues --   -0.60181  -0.59965  -0.59403  -0.58583  -0.58276
 Alpha  occ. eigenvalues --   -0.57736  -0.57589  -0.56418  -0.56157  -0.55302
 Alpha  occ. eigenvalues --   -0.54806  -0.54765  -0.54004  -0.53688  -0.53485
 Alpha  occ. eigenvalues --   -0.53286  -0.52645  -0.52010  -0.51461  -0.51432
 Alpha  occ. eigenvalues --   -0.50587  -0.50298  -0.49997  -0.49843  -0.49612
 Alpha  occ. eigenvalues --   -0.48934  -0.48814  -0.48409  -0.48208  -0.47693
 Alpha  occ. eigenvalues --   -0.47640  -0.47211  -0.46780  -0.45926  -0.45209
 Alpha  occ. eigenvalues --   -0.44770  -0.44636  -0.44306  -0.43492  -0.42910
 Alpha  occ. eigenvalues --   -0.42639  -0.42083  -0.41949  -0.41754  -0.41718
 Alpha  occ. eigenvalues --   -0.41173  -0.41013  -0.40173  -0.39976  -0.39943
 Alpha  occ. eigenvalues --   -0.38817  -0.38591  -0.37928  -0.37788  -0.37296
 Alpha  occ. eigenvalues --   -0.35397  -0.34889  -0.34673  -0.33949  -0.32584
 Alpha  occ. eigenvalues --   -0.30900  -0.30794  -0.29033  -0.28407  -0.27669
 Alpha  occ. eigenvalues --   -0.27423  -0.26848
 Alpha virt. eigenvalues --   -0.11641  -0.11138  -0.08937  -0.07967  -0.06904
 Alpha virt. eigenvalues --   -0.06657  -0.06002  -0.04132  -0.03945  -0.03901
 Alpha virt. eigenvalues --   -0.03301  -0.01649  -0.01299  -0.00825  -0.00159

 Mulliken charges:
               1
     1  N   -0.763451
     2  H    0.413196
     3  H    0.440265
     4  H    0.411636
     5  C   -0.110470
     6  H    0.213988
     7  C    0.656140
     8  C   -0.311223
     9  H    0.204996
    10  H    0.219814
    11  O   -0.532762
    12  C   -0.373612
    13  H    0.165713
    14  H    0.205899
    15  C    0.593962
    16  O   -0.437496
    17  O   -0.553303
    18  N   -0.588095
    19  H    0.370168
    20  C   -0.085381
    21  H    0.196791
    22  C    0.619915
    23  C   -0.370463
    24  H    0.185537
    25  H    0.162056
    26  O   -0.532967
    27  C    0.080116
    28  C   -0.019769
    29  H    0.150699
    30  C    0.098382
    31  C    0.302214
    32  C   -0.205912
    33  H    0.121609
    34  N   -0.689599
    35  H    0.334391
    36  C   -0.150228
    37  H    0.138810
    38  C   -0.164917
    39  H    0.132043
    40  C   -0.138965
    41  H    0.135527
    42  N   -0.629267
    43  H    0.361479
    44  C   -0.078481
    45  H    0.185270
    46  C    0.616971
    47  C    0.138940
    48  H    0.126336
    49  O   -0.568888
    50  C   -0.472894
    51  H    0.179009
    52  H    0.169663
    53  H    0.161171
    54  O   -0.613628
    55  H    0.389450
    56  N   -0.609611
    57  H    0.368167
    58  C   -0.063351
    59  H    0.156887
    60  C    0.602503
    61  C   -0.267052
    62  H    0.144501
    63  H    0.164928
    64  O   -0.626378
    65  C   -0.270292
    66  H    0.152696
    67  H    0.138852
    68  C   -0.190463
    69  H    0.166659
    70  H    0.229095
    71  N   -0.592041
    72  H    0.346282
    73  N   -0.773475
    74  H    0.349288
    75  H    0.453941
    76  N   -0.763201
    77  H    0.362168
    78  H    0.362181
    79  C    0.781757
    80  O   -0.546542
    81  H    0.432119
 Sum of Mulliken charges =   1.00000

 Dipole moment (field-independent basis, Debye):
    X=            -17.6079    Y=              4.7790    Z=             -6.3475  Tot=             19.3175
 Quadrupole moment (field-independent basis, Debye-Ang):
   XX=            -47.3191   YY=           -217.5416   ZZ=             -6.7746
   XY=            -84.5418   XZ=           -161.5125   YZ=             50.4039

 Normal termination of Gaussian 16 at Thu May 26 18:07:59 2022.
