 Gaussian 16, Revision C.01,
 Gaussian 16:  ES64L-G16RevC.01  3-Jul-2019

 -------------------------------------------------------------------
 # B3LYP/6-31G* guess=read geom=check nosymm integral(ultrafinegrid)
 -------------------------------------------------------------------

 ------------------------------------------------------
 Candidate Structure: Conf:304 Charge calc in gas phase
 ------------------------------------------------------
 Structure from the checkpoint file:  "conf-304.chk"
 Charge =  1 Multiplicity = 1

                          Input orientation:
 ---------------------------------------------------------------------
 Center     Atomic      Atomic             Coordinates (Angstroms)
 Number     Number       Type             X           Y           Z
 ---------------------------------------------------------------------
      1          7           0       -2.076125   -2.338822    3.359248
      2          1           0       -2.379451   -2.976205    2.611451
      3          1           0       -1.111970   -2.043954    3.084108
      4          1           0       -2.125171   -2.792219    4.295043
      5          6           0       -3.019138   -1.162209    3.360825
      6          1           0       -3.982513   -1.566000    3.687973
      7          6           0       -3.101458   -0.750110    1.865581
      8          6           0       -2.542696   -0.047143    4.314031
      9          1           0       -1.788800    0.568319    3.810638
     10          1           0       -3.408278    0.598072    4.505008
     11          8           0       -2.816171   -1.605318    1.022874
     12          6           0       -1.947118   -0.487799    5.676582
     13          1           0       -1.852031    0.393130    6.314480
     14          1           0       -0.935121   -0.883972    5.527841
     15          6           0       -2.731958   -1.565090    6.396742
     16          8           0       -2.877566   -2.702106    5.961479
     17          8           0       -3.249125   -1.165574    7.555276
     18          7           0       -3.407994    0.531670    1.563048
     19          1           0       -3.440433    1.180738    2.341619
     20          6           0       -2.752403    1.130328    0.373152
     21          1           0       -2.847382    0.414946   -0.444311
     22          6           0       -1.280826    1.298994    0.823653
     23          6           0       -3.358684    2.483873   -0.037385
     24          1           0       -3.302672    3.173424    0.813697
     25          1           0       -4.417803    2.342324   -0.282249
     26          8           0       -1.047342    1.853327    1.897579
     27          6           0       -2.568292    3.013442   -1.199496
     28          6           0       -1.458724    3.826029   -1.119414
     29          1           0       -1.042309    4.333431   -0.258363
     30          6           0       -2.655656    2.582941   -2.573215
     31          6           0       -1.558223    3.179811   -3.258237
     32          6           0       -3.538505    1.753214   -3.289708
     33          1           0       -4.394707    1.296113   -2.798489
     34          7           0       -0.857663    3.946559   -2.350534
     35          1           0        0.108323    4.285933   -2.465522
     36          6           0       -2.213337    2.128133   -5.300723
     37          1           0       -2.063259    1.937460   -6.359783
     38          6           0       -1.329731    2.958934   -4.622397
     39          1           0       -0.490924    3.426099   -5.131760
     40          6           0       -3.309636    1.532854   -4.641687
     41          1           0       -3.986392    0.896916   -5.205232
     42          7           0       -0.317304    0.717579    0.060374
     43          1           0       -0.566532    0.355524   -0.852320
     44          6           0        1.031141    0.503168    0.580944
     45          1           0        1.126934    1.204181    1.416485
     46          6           0        2.126028    0.836917   -0.459394
     47          6           0        1.208948   -0.948060    1.130545
     48          1           0        1.467603   -1.610192    0.296643
     49          8           0        3.102008    0.101479   -0.589432
     50          6           0        2.286798   -1.030712    2.197525
     51          1           0        3.240734   -0.708256    1.775926
     52          1           0        2.391345   -2.060922    2.552307
     53          1           0        2.036179   -0.388231    3.050301
     54          8           0       -0.027546   -1.419218    1.720987
     55          1           0       -0.691650   -1.490520    1.013640
     56          7           0        1.946679    1.983555   -1.157606
     57          1           0        1.118903    2.547005   -1.008360
     58          6           0        2.986484    2.526403   -2.039012
     59          1           0        3.945992    2.173524   -1.656968
     60          6           0        2.980346    4.071291   -2.007872
     61          6           0        2.792243    2.033506   -3.492485
     62          1           0        1.820149    2.387663   -3.856193
     63          1           0        2.745239    0.938793   -3.463600
     64          8           0        4.043132    4.664362   -1.822721
     65          6           0        3.913115    2.424641   -4.474696
     66          1           0        4.884427    2.151274   -4.042603
     67          1           0        3.808844    1.809193   -5.379986
     68          6           0        4.039433    3.896441   -4.901922
     69          1           0        4.174042    4.554997   -4.045465
     70          1           0        4.933034    3.997415   -5.531484
     71          7           0        2.892850    4.384289   -5.696551
     72          1           0        2.704131    3.885984   -6.557919
     73          7           0        2.185630    6.193260   -4.397522
     74          1           0        1.853931    7.148452   -4.394330
     75          1           0        2.160185    5.656902   -3.466545
     76          7           0        1.655456    6.075540   -6.664283
     77          1           0        2.027779    5.892118   -7.584945
     78          1           0        1.018268    6.853762   -6.577424
     79          6           0        2.256621    5.560766   -5.559205
     80          8           0        1.849977    4.618841   -2.333511
     81          1           0       -3.717162   -1.922787    7.961679
 ---------------------------------------------------------------------

 SCF Done:  E(RB3LYP) =  -2053.94636469     A.U. after    3 cycles

 Alpha  occ. eigenvalues --  -19.32854 -19.27862 -19.26018 -19.25954 -19.21893
 Alpha  occ. eigenvalues --  -19.18447 -19.16263 -19.14408 -14.56335 -14.48694
 Alpha  occ. eigenvalues --  -14.48329 -14.47764 -14.46688 -14.45110 -14.42806
 Alpha  occ. eigenvalues --  -14.42739 -10.45917 -10.43609 -10.43082 -10.39520
 Alpha  occ. eigenvalues --  -10.39095 -10.36064 -10.34004 -10.33944 -10.33658
 Alpha  occ. eigenvalues --  -10.33273 -10.32999 -10.31933 -10.30552 -10.28477
 Alpha  occ. eigenvalues --  -10.28335 -10.28075 -10.27809 -10.26433 -10.25408
 Alpha  occ. eigenvalues --  -10.25406 -10.25236 -10.25145 -10.25092 -10.25029
 Alpha  occ. eigenvalues --  -10.24874 -10.24462  -1.24133  -1.18237  -1.15100
 Alpha  occ. eigenvalues --   -1.14038  -1.12603  -1.11934  -1.11135  -1.10371
 Alpha  occ. eigenvalues --   -1.08560  -1.05223  -1.03711  -1.02509  -1.01479
 Alpha  occ. eigenvalues --   -1.00175  -0.99193  -0.98365  -0.94183  -0.90340
 Alpha  occ. eigenvalues --   -0.89682  -0.87111  -0.87021  -0.86380  -0.83328
 Alpha  occ. eigenvalues --   -0.81751  -0.79817  -0.79342  -0.79240  -0.78016
 Alpha  occ. eigenvalues --   -0.75161  -0.74258  -0.73168  -0.72897  -0.72174
 Alpha  occ. eigenvalues --   -0.71222  -0.69952  -0.69343  -0.68826  -0.68473
 Alpha  occ. eigenvalues --   -0.68343  -0.67357  -0.65981  -0.65450  -0.64970
 Alpha  occ. eigenvalues --   -0.64561  -0.63708  -0.63249  -0.62157  -0.61833
 Alpha  occ. eigenvalues --   -0.61529  -0.61056  -0.60506  -0.60347  -0.59688
 Alpha  occ. eigenvalues --   -0.59548  -0.58753  -0.58459  -0.57329  -0.56350
 Alpha  occ. eigenvalues --   -0.56265  -0.55645  -0.54979  -0.54700  -0.53760
 Alpha  occ. eigenvalues --   -0.53618  -0.53499  -0.53438  -0.52664  -0.52453
 Alpha  occ. eigenvalues --   -0.51704  -0.51456  -0.50646  -0.50481  -0.50260
 Alpha  occ. eigenvalues --   -0.50154  -0.49553  -0.49404  -0.49115  -0.48575
 Alpha  occ. eigenvalues --   -0.48339  -0.47729  -0.47496  -0.47254  -0.46688
 Alpha  occ. eigenvalues --   -0.46455  -0.46201  -0.46011  -0.45308  -0.45111
 Alpha  occ. eigenvalues --   -0.44996  -0.44793  -0.44377  -0.44007  -0.43242
 Alpha  occ. eigenvalues --   -0.42629  -0.41787  -0.41633  -0.40548  -0.40269
 Alpha  occ. eigenvalues --   -0.40055  -0.39984  -0.39464  -0.39290  -0.38789
 Alpha  occ. eigenvalues --   -0.38473  -0.36291  -0.35906  -0.35354  -0.34004
 Alpha  occ. eigenvalues --   -0.32874  -0.32191  -0.31516  -0.30703  -0.28631
 Alpha  occ. eigenvalues --   -0.27778  -0.26848
 Alpha virt. eigenvalues --   -0.13325  -0.12840  -0.08740  -0.08579  -0.07615
 Alpha virt. eigenvalues --   -0.06706  -0.05458  -0.04966  -0.03941  -0.03555
 Alpha virt. eigenvalues --   -0.03079  -0.01708  -0.01463  -0.01072  -0.00556

 Mulliken charges:
               1
     1  N   -0.776864
     2  H    0.412473
     3  H    0.433194
     4  H    0.428923
     5  C   -0.114647
     6  H    0.229182
     7  C    0.643495
     8  C   -0.343155
     9  H    0.237281
    10  H    0.190954
    11  O   -0.536482
    12  C   -0.383594
    13  H    0.221939
    14  H    0.200321
    15  C    0.609520
    16  O   -0.490382
    17  O   -0.523272
    18  N   -0.577392
    19  H    0.354252
    20  C   -0.066532
    21  H    0.190980
    22  C    0.623403
    23  C   -0.364266
    24  H    0.164276
    25  H    0.172890
    26  O   -0.539837
    27  C    0.026137
    28  C   -0.018270
    29  H    0.168520
    30  C    0.075134
    31  C    0.292824
    32  C   -0.217127
    33  H    0.122666
    34  N   -0.701167
    35  H    0.389261
    36  C   -0.152175
    37  H    0.127600
    38  C   -0.165008
    39  H    0.116070
    40  C   -0.139633
    41  H    0.132610
    42  N   -0.630647
    43  H    0.352366
    44  C   -0.082125
    45  H    0.209826
    46  C    0.614020
    47  C    0.141924
    48  H    0.161879
    49  O   -0.525784
    50  C   -0.472106
    51  H    0.208592
    52  H    0.157525
    53  H    0.144178
    54  O   -0.693315
    55  H    0.423370
    56  N   -0.624489
    57  H    0.349931
    58  C   -0.003270
    59  H    0.182072
    60  C    0.568172
    61  C   -0.274921
    62  H    0.140832
    63  H    0.158938
    64  O   -0.523696
    65  C   -0.285894
    66  H    0.175666
    67  H    0.136184
    68  C   -0.179427
    69  H    0.238441
    70  H    0.169161
    71  N   -0.589819
    72  H    0.344405
    73  N   -0.759992
    74  H    0.349756
    75  H    0.448197
    76  N   -0.761657
    77  H    0.365639
    78  H    0.367806
    79  C    0.762947
    80  O   -0.657231
    81  H    0.438441
 Sum of Mulliken charges =   1.00000

 Dipole moment (field-independent basis, Debye):
    X=             -8.0710    Y=              4.4245    Z=             -0.4142  Tot=              9.2135
 Quadrupole moment (field-independent basis, Debye-Ang):
   XX=           -221.8586   YY=           -170.7977   ZZ=            -45.6363
   XY=             19.7311   XZ=            -78.5996   YZ=           -109.1385

 Normal termination of Gaussian 16 at Thu May 26 18:08:44 2022.
