 Gaussian 16, Revision C.01,
 Gaussian 16:  ES64L-G16RevC.01  3-Jul-2019

 -------------------------------------------------------------------
 # B3LYP/6-31G* guess=read geom=check nosymm integral(ultrafinegrid)
 -------------------------------------------------------------------

 ------------------------------------------------------
 Candidate Structure: Conf:126 Charge calc in gas phase
 ------------------------------------------------------
 Structure from the checkpoint file:  "conf-126.chk"
 Charge =  1 Multiplicity = 1

                          Input orientation:
 ---------------------------------------------------------------------
 Center     Atomic      Atomic             Coordinates (Angstroms)
 Number     Number       Type             X           Y           Z
 ---------------------------------------------------------------------
      1          7           0       -0.734664   -0.474406    3.221042
      2          1           0       -0.281523   -0.670471    4.116491
      3          1           0       -0.457342   -1.168383    2.508553
      4          1           0       -0.421523    0.474188    2.831192
      5          6           0       -2.249870   -0.542565    3.287176
      6          1           0       -2.493655   -1.538524    3.673213
      7          6           0       -2.607156   -0.490063    1.775866
      8          6           0       -2.832730    0.547255    4.181399
      9          1           0       -2.616028    1.535936    3.759419
     10          1           0       -3.923075    0.439151    4.176052
     11          8           0       -1.867353   -1.110061    1.011232
     12          6           0       -2.375314    0.483987    5.643698
     13          1           0       -1.333170    0.797466    5.778128
     14          1           0       -2.450462   -0.538151    6.041510
     15          6           0       -3.248879    1.370138    6.521546
     16          8           0       -4.307600    1.844781    6.179986
     17          8           0       -2.697561    1.540811    7.736689
     18          7           0       -3.618429    0.306613    1.380138
     19          1           0       -4.110560    0.848864    2.078861
     20          6           0       -3.560190    0.933495    0.043179
     21          1           0       -3.397028    0.138526   -0.686215
     22          6           0       -2.344689    1.877174    0.146124
     23          6           0       -4.858573    1.707054   -0.255843
     24          1           0       -4.767206    2.095547   -1.279233
     25          1           0       -4.888972    2.583335    0.402561
     26          8           0       -2.370838    2.815061    0.965682
     27          6           0       -6.105939    0.890845   -0.097352
     28          6           0       -7.087726    1.096338    0.842911
     29          1           0       -7.168188    1.867972    1.597602
     30          6           0       -6.518840   -0.250816   -0.879241
     31          6           0       -7.763371   -0.689094   -0.350004
     32          6           0       -5.972378   -0.937961   -1.978621
     33          1           0       -5.031039   -0.621846   -2.421792
     34          7           0       -8.078618    0.147943    0.703205
     35          1           0       -8.936981    0.122273    1.231946
     36          6           0       -7.891159   -2.440035   -1.961208
     37          1           0       -8.406770   -3.290404   -2.397772
     38          6           0       -8.459990   -1.780826   -0.878473
     39          1           0       -9.411725   -2.099862   -0.462351
     40          6           0       -6.660203   -2.021979   -2.507523
     41          1           0       -6.248300   -2.556560   -3.358561
     42          7           0       -1.255959    1.551870   -0.560628
     43          1           0       -1.218460    0.732466   -1.165118
     44          6           0        0.013031    2.263354   -0.463665
     45          1           0       -0.184625    3.340933   -0.453110
     46          6           0        0.802959    1.845374   -1.730640
     47          6           0        0.807286    1.877373    0.823295
     48          1           0        1.153239    0.843496    0.702088
     49          8           0        0.559301    0.751729   -2.249124
     50          6           0        1.982666    2.805253    1.113036
     51          1           0        2.728416    2.803584    0.313434
     52          1           0        2.474108    2.490644    2.038605
     53          1           0        1.631989    3.834503    1.252589
     54          8           0       -0.070865    1.858674    1.982528
     55          1           0       -0.823581    2.475817    1.811691
     56          7           0        1.719745    2.717576   -2.165146
     57          1           0        1.976932    3.554078   -1.636129
     58          6           0        2.743663    2.406670   -3.161381
     59          1           0        2.984821    1.340573   -3.092453
     60          6           0        3.992458    3.248954   -2.732068
     61          6           0        2.200299    2.702995   -4.592651
     62          1           0        2.216341    3.787151   -4.768492
     63          1           0        1.144869    2.416278   -4.564059
     64          8           0        5.089901    2.954228   -3.315138
     65          6           0        2.852175    1.945703   -5.780772
     66          1           0        3.388054    1.058744   -5.419177
     67          1           0        2.060260    1.566475   -6.436362
     68          6           0        3.798189    2.763124   -6.674449
     69          1           0        4.101535    2.150880   -7.534375
     70          1           0        3.283395    3.652162   -7.062549
     71          7           0        4.970996    3.169087   -5.900697
     72          1           0        5.020709    2.791818   -4.922012
     73          7           0        5.640885    4.993368   -7.196227
     74          1           0        6.144286    5.864119   -7.278202
     75          1           0        5.425606    4.510164   -8.055554
     76          7           0        6.298307    4.780447   -4.960184
     77          1           0        6.100726    4.318712   -4.054962
     78          1           0        7.001879    5.498651   -5.038313
     79          6           0        5.643649    4.308735   -6.027646
     80          8           0        3.816117    4.125317   -1.869919
     81          1           0       -3.311244    2.091524    8.260580
 ---------------------------------------------------------------------

 SCF Done:  E(RB3LYP) =  -2053.95188879     A.U. after    1 cycles

 Alpha  occ. eigenvalues --  -19.29314 -19.26054 -19.24546 -19.23929 -19.21894
 Alpha  occ. eigenvalues --  -19.19340 -19.15764 -19.15049 -14.56701 -14.48104
 Alpha  occ. eigenvalues --  -14.47308 -14.46028 -14.44859 -14.44637 -14.43929
 Alpha  occ. eigenvalues --  -14.42441 -10.42382 -10.42030 -10.41811 -10.39026
 Alpha  occ. eigenvalues --  -10.38936 -10.36630 -10.34403 -10.33689 -10.33318
 Alpha  occ. eigenvalues --  -10.32744 -10.32740 -10.32453 -10.31085 -10.28973
 Alpha  occ. eigenvalues --  -10.28580 -10.28244 -10.28182 -10.26686 -10.25815
 Alpha  occ. eigenvalues --  -10.25664 -10.25484 -10.24943 -10.24889 -10.24833
 Alpha  occ. eigenvalues --  -10.24385 -10.24043  -1.20374  -1.17173  -1.14295
 Alpha  occ. eigenvalues --   -1.12222  -1.11565  -1.11203  -1.10758  -1.10729
 Alpha  occ. eigenvalues --   -1.08625  -1.04705  -1.04426  -1.02112  -1.00960
 Alpha  occ. eigenvalues --   -0.99752  -0.98724  -0.98594  -0.93559  -0.90139
 Alpha  occ. eigenvalues --   -0.89140  -0.87440  -0.86389  -0.86166  -0.83639
 Alpha  occ. eigenvalues --   -0.81512  -0.79901  -0.79605  -0.78356  -0.77627
 Alpha  occ. eigenvalues --   -0.75079  -0.74086  -0.72570  -0.72053  -0.71292
 Alpha  occ. eigenvalues --   -0.70502  -0.69986  -0.68890  -0.68545  -0.68337
 Alpha  occ. eigenvalues --   -0.68130  -0.67079  -0.65888  -0.65060  -0.64640
 Alpha  occ. eigenvalues --   -0.64566  -0.63077  -0.62723  -0.61365  -0.60941
 Alpha  occ. eigenvalues --   -0.60406  -0.60058  -0.59787  -0.59484  -0.58955
 Alpha  occ. eigenvalues --   -0.58570  -0.57721  -0.57509  -0.56909  -0.56094
 Alpha  occ. eigenvalues --   -0.55180  -0.55037  -0.54737  -0.54141  -0.53326
 Alpha  occ. eigenvalues --   -0.53137  -0.52798  -0.52688  -0.52148  -0.51627
 Alpha  occ. eigenvalues --   -0.51380  -0.51122  -0.50280  -0.50139  -0.50006
 Alpha  occ. eigenvalues --   -0.49384  -0.49210  -0.48967  -0.48812  -0.48321
 Alpha  occ. eigenvalues --   -0.48193  -0.47959  -0.47703  -0.47313  -0.47045
 Alpha  occ. eigenvalues --   -0.46935  -0.46816  -0.46290  -0.45661  -0.45629
 Alpha  occ. eigenvalues --   -0.45291  -0.44422  -0.43666  -0.42969  -0.42219
 Alpha  occ. eigenvalues --   -0.41583  -0.41489  -0.41453  -0.40485  -0.39690
 Alpha  occ. eigenvalues --   -0.39485  -0.39053  -0.38708  -0.38198  -0.37827
 Alpha  occ. eigenvalues --   -0.37612  -0.36271  -0.34896  -0.34660  -0.33731
 Alpha  occ. eigenvalues --   -0.33516  -0.33115  -0.30856  -0.30111  -0.29328
 Alpha  occ. eigenvalues --   -0.28524  -0.26925
 Alpha virt. eigenvalues --   -0.12403  -0.09068  -0.08636  -0.07562  -0.07174
 Alpha virt. eigenvalues --   -0.06617  -0.05663  -0.03694  -0.03270  -0.02509
 Alpha virt. eigenvalues --   -0.02080  -0.01243  -0.01121  -0.00846  -0.00629

 Mulliken charges:
               1
     1  N   -0.777525
     2  H    0.398017
     3  H    0.417574
     4  H    0.457228
     5  C   -0.120146
     6  H    0.219704
     7  C    0.646111
     8  C   -0.310397
     9  H    0.197095
    10  H    0.208135
    11  O   -0.522279
    12  C   -0.389023
    13  H    0.183402
    14  H    0.195906
    15  C    0.600312
    16  O   -0.443710
    17  O   -0.556260
    18  N   -0.577828
    19  H    0.356804
    20  C   -0.049543
    21  H    0.196028
    22  C    0.623919
    23  C   -0.403105
    24  H    0.179436
    25  H    0.177846
    26  O   -0.585265
    27  C    0.071203
    28  C   -0.012759
    29  H    0.157577
    30  C    0.087939
    31  C    0.311075
    32  C   -0.211870
    33  H    0.118817
    34  N   -0.686375
    35  H    0.337572
    36  C   -0.149447
    37  H    0.139667
    38  C   -0.159470
    39  H    0.136070
    40  C   -0.137429
    41  H    0.134089
    42  N   -0.587677
    43  H    0.375065
    44  C   -0.098852
    45  H    0.186754
    46  C    0.611843
    47  C    0.151959
    48  H    0.146428
    49  O   -0.545807
    50  C   -0.468454
    51  H    0.194964
    52  H    0.159856
    53  H    0.163712
    54  O   -0.710495
    55  H    0.449139
    56  N   -0.607707
    57  H    0.362924
    58  C   -0.068773
    59  H    0.172982
    60  C    0.602928
    61  C   -0.269996
    62  H    0.145838
    63  H    0.169966
    64  O   -0.631497
    65  C   -0.306399
    66  H    0.170617
    67  H    0.163141
    68  C   -0.145303
    69  H    0.163860
    70  H    0.162905
    71  N   -0.613766
    72  H    0.413951
    73  N   -0.756838
    74  H    0.364675
    75  H    0.372027
    76  N   -0.778695
    77  H    0.418208
    78  H    0.351653
    79  C    0.774979
    80  O   -0.549758
    81  H    0.430547
 Sum of Mulliken charges =   1.00000

 Dipole moment (field-independent basis, Debye):
    X=             -0.7616    Y=              7.4902    Z=             -0.5951  Tot=              7.5523
 Quadrupole moment (field-independent basis, Debye-Ang):
   XX=           -126.2472   YY=           -197.6091   ZZ=            -57.0213
   XY=             53.2867   XZ=           -109.4129   YZ=            -72.9075

 Normal termination of Gaussian 16 at Thu May 26 18:08:02 2022.
