 Gaussian 16, Revision C.01,
 Gaussian 16:  ES64L-G16RevC.01  3-Jul-2019

 -------------------------------------------------------------------
 # B3LYP/6-31G* guess=read geom=check nosymm integral(ultrafinegrid)
 -------------------------------------------------------------------

 ------------------------------------------------------
 Candidate Structure: Conf:197 Charge calc in gas phase
 ------------------------------------------------------
 Structure from the checkpoint file:  "conf-197.chk"
 Charge =  1 Multiplicity = 1

                          Input orientation:
 ---------------------------------------------------------------------
 Center     Atomic      Atomic             Coordinates (Angstroms)
 Number     Number       Type             X           Y           Z
 ---------------------------------------------------------------------
      1          7           0       -4.996111    1.262155    3.730843
      2          1           0       -5.485372    0.724265    2.983411
      3          1           0       -4.768716    0.595995    4.475438
      4          1           0       -5.525908    2.064358    4.127976
      5          6           0       -3.764316    1.803304    3.050878
      6          1           0       -4.110790    2.695229    2.517963
      7          6           0       -3.441734    0.741747    1.966622
      8          6           0       -2.652829    2.184200    4.038401
      9          1           0       -2.104795    1.290764    4.359428
     10          1           0       -1.938232    2.806733    3.489866
     11          8           0       -4.358097   -0.017131    1.629501
     12          6           0       -3.101028    2.948687    5.313254
     13          1           0       -2.219819    3.374006    5.797471
     14          1           0       -3.552787    2.252111    6.031069
     15          6           0       -4.131694    4.036330    5.073040
     16          8           0       -5.263970    3.824581    4.653163
     17          8           0       -3.693133    5.254345    5.376838
     18          7           0       -2.213698    0.789458    1.459158
     19          1           0       -1.469002    1.326106    1.902850
     20          6           0       -1.708964   -0.011097    0.351334
     21          1           0       -2.241401   -0.966772    0.335579
     22          6           0       -0.204446   -0.173736    0.654776
     23          6           0       -1.870221    0.729148   -1.019507
     24          1           0       -1.614787    0.011238   -1.807555
     25          1           0       -1.117913    1.527415   -1.057749
     26          8           0        0.296881    0.489294    1.576119
     27          6           0       -3.239316    1.296897   -1.253261
     28          6           0       -4.300827    0.684370   -1.873892
     29          1           0       -4.362337   -0.295755   -2.327591
     30          6           0       -3.712155    2.596410   -0.836684
     31          6           0       -5.076022    2.697740   -1.233866
     32          6           0       -3.112682    3.687260   -0.172389
     33          1           0       -2.060730    3.653284    0.107929
     34          7           0       -5.402190    1.516535   -1.864913
     35          1           0       -6.299413    1.295131   -2.269182
     36          6           0       -5.233434    4.898289   -0.323084
     37          1           0       -5.803631    5.799582   -0.116530
     38          6           0       -5.846553    3.839949   -0.984041
     39          1           0       -6.885746    3.900466   -1.296667
     40          6           0       -3.879692    4.824460    0.075321
     41          1           0       -3.427117    5.676008    0.577547
     42          7           0        0.520273   -0.915043   -0.194745
     43          1           0        0.064818   -1.605738   -0.779484
     44          6           0        1.985247   -1.025287   -0.104580
     45          1           0        2.245249   -1.046032    0.960631
     46          6           0        2.696898    0.204487   -0.767418
     47          6           0        2.443662   -2.331858   -0.786481
     48          1           0        2.533110   -2.137815   -1.863337
     49          8           0        3.625407    0.037568   -1.556124
     50          6           0        3.789153   -2.810095   -0.251386
     51          1           0        4.555329   -2.050832   -0.425807
     52          1           0        4.100803   -3.726857   -0.766948
     53          1           0        3.721475   -3.025627    0.820850
     54          8           0        1.404412   -3.297198   -0.551999
     55          1           0        1.676576   -4.121419   -0.984410
     56          7           0        2.187423    1.398867   -0.400872
     57          1           0        1.489150    1.404092    0.332835
     58          6           0        2.552273    2.720051   -0.917266
     59          1           0        3.545023    3.006780   -0.552009
     60          6           0        1.511449    3.744885   -0.391519
     61          6           0        2.545561    2.755139   -2.464665
     62          1           0        1.539544    2.480818   -2.807196
     63          1           0        3.227476    1.977788   -2.816945
     64          8           0        1.911428    4.842285    0.007371
     65          6           0        2.981189    4.097698   -3.081415
     66          1           0        3.862755    4.479069   -2.550768
     67          1           0        3.310714    3.916898   -4.114713
     68          6           0        1.958009    5.245060   -3.099271
     69          1           0        1.619368    5.496636   -2.095096
     70          1           0        2.436967    6.141353   -3.512867
     71          7           0        0.779686    4.963726   -3.941124
     72          1           0        0.957519    4.785888   -4.921828
     73          7           0       -0.901260    4.927333   -2.317078
     74          1           0       -1.882197    5.071178   -2.110960
     75          1           0       -0.357547    4.394888   -1.556880
     76          7           0       -1.430640    5.076036   -4.584079
     77          1           0       -1.206130    5.591858   -5.423269
     78          1           0       -2.411667    5.004034   -4.356916
     79          6           0       -0.511094    4.992401   -3.579554
     80          8           0        0.279097    3.378042   -0.549711
     81          1           0       -4.417247    5.892296    5.215609
 ---------------------------------------------------------------------

 SCF Done:  E(RB3LYP) =  -2053.93216512     A.U. after    1 cycles

 Alpha  occ. eigenvalues --  -19.32933 -19.27995 -19.24153 -19.21771 -19.21097
 Alpha  occ. eigenvalues --  -19.16546 -19.14437 -19.13148 -14.57594 -14.47518
 Alpha  occ. eigenvalues --  -14.47277 -14.47008 -14.46541 -14.44793 -14.44230
 Alpha  occ. eigenvalues --  -14.40026 -10.46101 -10.42798 -10.41501 -10.38854
 Alpha  occ. eigenvalues --  -10.37999 -10.34371 -10.33982 -10.33965 -10.33374
 Alpha  occ. eigenvalues --  -10.31549 -10.30609 -10.30523 -10.30318 -10.30151
 Alpha  occ. eigenvalues --  -10.29602 -10.27752 -10.27638 -10.27123 -10.26991
 Alpha  occ. eigenvalues --  -10.26928 -10.26872 -10.26592 -10.26464 -10.25181
 Alpha  occ. eigenvalues --  -10.23404 -10.23234  -1.24240  -1.16764  -1.15151
 Alpha  occ. eigenvalues --   -1.13199  -1.11745  -1.11185  -1.09155  -1.08166
 Alpha  occ. eigenvalues --   -1.06934  -1.06400  -1.04187  -1.00863  -1.00778
 Alpha  occ. eigenvalues --   -0.99083  -0.97956  -0.96357  -0.94368  -0.92373
 Alpha  occ. eigenvalues --   -0.89596  -0.87453  -0.85850  -0.85285  -0.83474
 Alpha  occ. eigenvalues --   -0.82039  -0.80513  -0.80254  -0.79313  -0.77041
 Alpha  occ. eigenvalues --   -0.75536  -0.74092  -0.73532  -0.72463  -0.72066
 Alpha  occ. eigenvalues --   -0.70932  -0.70568  -0.69334  -0.68621  -0.67973
 Alpha  occ. eigenvalues --   -0.67608  -0.66891  -0.66495  -0.64848  -0.64582
 Alpha  occ. eigenvalues --   -0.63838  -0.63417  -0.62182  -0.62111  -0.61166
 Alpha  occ. eigenvalues --   -0.60743  -0.60559  -0.60263  -0.59492  -0.58679
 Alpha  occ. eigenvalues --   -0.58514  -0.57467  -0.56882  -0.56583  -0.56456
 Alpha  occ. eigenvalues --   -0.55721  -0.55559  -0.54640  -0.54337  -0.53987
 Alpha  occ. eigenvalues --   -0.53391  -0.53078  -0.52248  -0.51973  -0.51811
 Alpha  occ. eigenvalues --   -0.51348  -0.51184  -0.50705  -0.50520  -0.50072
 Alpha  occ. eigenvalues --   -0.49798  -0.49399  -0.49089  -0.48924  -0.48564
 Alpha  occ. eigenvalues --   -0.48256  -0.47813  -0.47062  -0.46744  -0.46527
 Alpha  occ. eigenvalues --   -0.45280  -0.45079  -0.45057  -0.44877  -0.44086
 Alpha  occ. eigenvalues --   -0.43945  -0.43247  -0.43161  -0.43054  -0.42320
 Alpha  occ. eigenvalues --   -0.42130  -0.41796  -0.41558  -0.41000  -0.39873
 Alpha  occ. eigenvalues --   -0.39325  -0.38915  -0.38715  -0.37951  -0.37217
 Alpha  occ. eigenvalues --   -0.36060  -0.35362  -0.35037  -0.35004  -0.33866
 Alpha  occ. eigenvalues --   -0.31023  -0.30272  -0.30049  -0.29526  -0.28966
 Alpha  occ. eigenvalues --   -0.28652  -0.26747
 Alpha virt. eigenvalues --   -0.13211  -0.10520  -0.09837  -0.08021  -0.07737
 Alpha virt. eigenvalues --   -0.07361  -0.06180  -0.04152  -0.03675  -0.02999
 Alpha virt. eigenvalues --   -0.02746  -0.01960  -0.00853  -0.00729  -0.00335

 Mulliken charges:
               1
     1  N   -0.756673
     2  H    0.422850
     3  H    0.398382
     4  H    0.434244
     5  C   -0.130903
     6  H    0.247599
     7  C    0.667806
     8  C   -0.327595
     9  H    0.199069
    10  H    0.220286
    11  O   -0.547501
    12  C   -0.380020
    13  H    0.226876
    14  H    0.186383
    15  C    0.612636
    16  O   -0.493407
    17  O   -0.520607
    18  N   -0.609097
    19  H    0.381258
    20  C   -0.060478
    21  H    0.188508
    22  C    0.633267
    23  C   -0.391566
    24  H    0.151177
    25  H    0.221867
    26  O   -0.558973
    27  C    0.076500
    28  C    0.015561
    29  H    0.163687
    30  C    0.053380
    31  C    0.310653
    32  C   -0.287030
    33  H    0.185939
    34  N   -0.686503
    35  H    0.338838
    36  C   -0.158933
    37  H    0.139283
    38  C   -0.170388
    39  H    0.139963
    40  C   -0.179649
    41  H    0.137959
    42  N   -0.597973
    43  H    0.356301
    44  C   -0.075783
    45  H    0.192794
    46  C    0.630293
    47  C    0.127538
    48  H    0.153163
    49  O   -0.531218
    50  C   -0.477818
    51  H    0.194337
    52  H    0.144885
    53  H    0.155153
    54  O   -0.655321
    55  H    0.404569
    56  N   -0.664234
    57  H    0.385894
    58  C    0.048548
    59  H    0.157968
    60  C    0.519874
    61  C   -0.297982
    62  H    0.128957
    63  H    0.190396
    64  O   -0.536433
    65  C   -0.280301
    66  H    0.174000
    67  H    0.132756
    68  C   -0.178904
    69  H    0.233761
    70  H    0.166833
    71  N   -0.590000
    72  H    0.345304
    73  N   -0.778799
    74  H    0.347918
    75  H    0.452166
    76  N   -0.762420
    77  H    0.361192
    78  H    0.362669
    79  C    0.762455
    80  O   -0.635047
    81  H    0.437864
 Sum of Mulliken charges =   1.00000

 Dipole moment (field-independent basis, Debye):
    X=            -20.7744    Y=             10.8934    Z=              1.7672  Tot=             23.5237
 Quadrupole moment (field-independent basis, Debye-Ang):
   XX=           -154.1773   YY=           -165.9557   ZZ=           -115.2509
   XY=            -59.0619   XZ=            -44.1781   YZ=            -19.5437

 Normal termination of Gaussian 16 at Thu May 26 18:08:10 2022.
