 Gaussian 16, Revision C.01,
 Gaussian 16:  ES64L-G16RevC.01  3-Jul-2019

 -------------------------------------------------------------------
 # B3LYP/6-31G* guess=read geom=check nosymm integral(ultrafinegrid)
 -------------------------------------------------------------------

 ------------------------------------------------------
 Candidate Structure: Conf:883 Charge calc in gas phase
 ------------------------------------------------------
 Structure from the checkpoint file:  "conf-883.chk"
 Charge =  1 Multiplicity = 1

                          Input orientation:
 ---------------------------------------------------------------------
 Center     Atomic      Atomic             Coordinates (Angstroms)
 Number     Number       Type             X           Y           Z
 ---------------------------------------------------------------------
      1          7           0       -4.084295   -1.998145    3.694103
      2          1           0       -5.049067   -2.192820    3.411364
      3          1           0       -3.419746   -2.363008    2.939394
      4          1           0       -3.906104   -2.449608    4.595024
      5          6           0       -3.746217   -0.517370    3.677593
      6          1           0       -4.663868    0.061480    3.772637
      7          6           0       -3.085671   -0.361384    2.282856
      8          6           0       -2.768185   -0.233678    4.838260
      9          1           0       -3.300792   -0.409844    5.782489
     10          1           0       -1.949241   -0.961484    4.778452
     11          8           0       -2.608198   -1.389796    1.774911
     12          6           0       -2.118453    1.164991    4.860126
     13          1           0       -1.481433    1.291520    3.969898
     14          1           0       -1.472379    1.235128    5.738289
     15          6           0       -3.109695    2.303431    4.864544
     16          8           0       -4.049336    2.404898    4.085759
     17          8           0       -2.850044    3.226341    5.796343
     18          7           0       -3.071618    0.855789    1.758715
     19          1           0       -3.521079    1.604646    2.284447
     20          6           0       -2.251242    1.192966    0.597618
     21          1           0       -2.522139    0.524597   -0.224817
     22          6           0       -0.761915    0.996499    0.970960
     23          6           0       -2.515920    2.661483    0.181050
     24          1           0       -1.864204    2.861197   -0.676583
     25          1           0       -2.184619    3.314563    0.999462
     26          8           0       -0.361873    1.161250    2.128726
     27          6           0       -3.945274    2.931987   -0.178676
     28          6           0       -4.899740    3.526566    0.612418
     29          1           0       -4.809439    3.946838    1.605604
     30          6           0       -4.599213    2.570304   -1.414915
     31          6           0       -5.957670    2.969926   -1.297945
     32          6           0       -4.158262    1.973285   -2.611702
     33          1           0       -3.115203    1.694719   -2.751138
     34          7           0       -6.112312    3.540466   -0.047679
     35          1           0       -6.949782    3.991524    0.286334
     36          6           0       -6.426691    2.174911   -3.492893
     37          1           0       -7.118981    2.011885   -4.314211
     38          6           0       -6.884923    2.778142   -2.327757
     39          1           0       -7.920333    3.092113   -2.224851
     40          6           0       -5.079302    1.782248   -3.633993
     41          1           0       -4.754620    1.328578   -4.566091
     42          7           0        0.015056    0.686499   -0.078145
     43          1           0       -0.398855    0.685882   -1.010171
     44          6           0        1.469022    0.558631   -0.037879
     45          1           0        1.833068    1.161629    0.803147
     46          6           0        1.976578    1.143609   -1.381019
     47          6           0        1.947803   -0.905884    0.141254
     48          1           0        3.049875   -0.864870    0.147322
     49          8           0        2.546313    0.443315   -2.215156
     50          6           0        1.464088   -1.532196    1.442451
     51          1           0        1.764289   -0.936726    2.310467
     52          1           0        1.887895   -2.536995    1.533127
     53          1           0        0.373303   -1.619187    1.435909
     54          8           0        1.484901   -1.724470   -0.917505
     55          1           0        1.903600   -1.359052   -1.718968
     56          7           0        1.703783    2.469412   -1.570215
     57          1           0        1.126711    2.866389   -0.839812
     58          6           0        1.383291    3.008935   -2.898955
     59          1           0        1.208451    4.079551   -2.732642
     60          6           0        0.013846    2.419305   -3.414308
     61          6           0        2.546234    2.840661   -3.923003
     62          1           0        2.177668    2.272109   -4.781638
     63          1           0        3.314260    2.213648   -3.469683
     64          8           0       -0.370092    2.859924   -4.546994
     65          6           0        3.237601    4.123368   -4.431445
     66          1           0        3.782494    4.616767   -3.614599
     67          1           0        3.994336    3.799281   -5.157761
     68          6           0        2.323025    5.182455   -5.105182
     69          1           0        1.900020    5.867640   -4.367326
     70          1           0        2.907243    5.805580   -5.792222
     71          7           0        1.169220    4.589342   -5.778375
     72          1           0        0.498991    4.129388   -5.108652
     73          7           0        2.191637    4.038955   -7.819023
     74          1           0        2.132267    3.561202   -8.706807
     75          1           0        2.643754    4.942126   -7.850018
     76          7           0        0.339108    2.857345   -6.990356
     77          1           0       -0.110812    2.568672   -6.114850
     78          1           0        0.316371    2.247488   -7.790071
     79          6           0        1.243987    3.830369   -6.871230
     80          8           0       -0.606402    1.626873   -2.684307
     81          1           0       -3.505554    3.944456    5.695478
 ---------------------------------------------------------------------

 SCF Done:  E(RB3LYP) =  -2053.93948894     A.U. after    1 cycles

 Alpha  occ. eigenvalues --  -19.30864 -19.25637 -19.24905 -19.19131 -19.18973
 Alpha  occ. eigenvalues --  -19.17341 -19.17129 -19.16671 -14.58899 -14.47535
 Alpha  occ. eigenvalues --  -14.47231 -14.44647 -14.44055 -14.44019 -14.42547
 Alpha  occ. eigenvalues --  -14.42341 -10.43792 -10.42164 -10.41378 -10.39280
 Alpha  occ. eigenvalues --  -10.36095 -10.35710 -10.34766 -10.33861 -10.31919
 Alpha  occ. eigenvalues --  -10.31214 -10.30881 -10.29779 -10.29313 -10.28583
 Alpha  occ. eigenvalues --  -10.28324 -10.27485 -10.27394 -10.26462 -10.25273
 Alpha  occ. eigenvalues --  -10.24757 -10.24188 -10.23899 -10.23632 -10.23251
 Alpha  occ. eigenvalues --  -10.22946 -10.21986  -1.22016  -1.17490  -1.12813
 Alpha  occ. eigenvalues --   -1.12493  -1.11428  -1.11040  -1.10446  -1.09733
 Alpha  occ. eigenvalues --   -1.05324  -1.04166  -1.03782  -1.02061  -1.00311
 Alpha  occ. eigenvalues --   -0.99756  -0.99063  -0.98217  -0.93591  -0.89235
 Alpha  occ. eigenvalues --   -0.88292  -0.86491  -0.85968  -0.83970  -0.82010
 Alpha  occ. eigenvalues --   -0.80761  -0.78907  -0.78700  -0.77764  -0.76955
 Alpha  occ. eigenvalues --   -0.75048  -0.73571  -0.72769  -0.72657  -0.72614
 Alpha  occ. eigenvalues --   -0.70312  -0.69127  -0.68126  -0.67728  -0.67643
 Alpha  occ. eigenvalues --   -0.66523  -0.65012  -0.64645  -0.64204  -0.63850
 Alpha  occ. eigenvalues --   -0.62979  -0.62593  -0.61707  -0.61130  -0.60857
 Alpha  occ. eigenvalues --   -0.60714  -0.59360  -0.59211  -0.58783  -0.58447
 Alpha  occ. eigenvalues --   -0.58292  -0.57815  -0.56150  -0.55821  -0.55452
 Alpha  occ. eigenvalues --   -0.55234  -0.54042  -0.53635  -0.53443  -0.53115
 Alpha  occ. eigenvalues --   -0.52696  -0.52351  -0.51853  -0.51568  -0.51109
 Alpha  occ. eigenvalues --   -0.50400  -0.50088  -0.49520  -0.49401  -0.49119
 Alpha  occ. eigenvalues --   -0.48829  -0.48715  -0.48561  -0.48322  -0.48010
 Alpha  occ. eigenvalues --   -0.47497  -0.47252  -0.46879  -0.46611  -0.46337
 Alpha  occ. eigenvalues --   -0.45460  -0.44847  -0.44683  -0.43698  -0.43382
 Alpha  occ. eigenvalues --   -0.42987  -0.42887  -0.42501  -0.42069  -0.41705
 Alpha  occ. eigenvalues --   -0.41409  -0.40538  -0.40422  -0.39424  -0.39251
 Alpha  occ. eigenvalues --   -0.38703  -0.38590  -0.38170  -0.37604  -0.37260
 Alpha  occ. eigenvalues --   -0.35477  -0.34361  -0.33550  -0.33488  -0.32755
 Alpha  occ. eigenvalues --   -0.32559  -0.31670  -0.30636  -0.30162  -0.29729
 Alpha  occ. eigenvalues --   -0.27725  -0.26090
 Alpha virt. eigenvalues --   -0.11292  -0.10583  -0.09380  -0.07340  -0.06696
 Alpha virt. eigenvalues --   -0.05884  -0.05153  -0.04781  -0.04002  -0.02862
 Alpha virt. eigenvalues --   -0.02693  -0.02620  -0.01683  -0.00439  -0.00238

 Mulliken charges:
               1
     1  N   -0.756802
     2  H    0.416018
     3  H    0.433209
     4  H    0.409233
     5  C   -0.114713
     6  H    0.228270
     7  C    0.653203
     8  C   -0.303775
     9  H    0.176873
    10  H    0.192276
    11  O   -0.544433
    12  C   -0.404462
    13  H    0.272083
    14  H    0.202365
    15  C    0.601452
    16  O   -0.495937
    17  O   -0.532479
    18  N   -0.604170
    19  H    0.390043
    20  C   -0.047080
    21  H    0.203907
    22  C    0.633187
    23  C   -0.412125
    24  H    0.189955
    25  H    0.151776
    26  O   -0.557921
    27  C    0.066400
    28  C   -0.016290
    29  H    0.151870
    30  C    0.068443
    31  C    0.310208
    32  C   -0.224834
    33  H    0.179245
    34  N   -0.690466
    35  H    0.331830
    36  C   -0.147510
    37  H    0.132103
    38  C   -0.166211
    39  H    0.128020
    40  C   -0.148078
    41  H    0.130231
    42  N   -0.610440
    43  H    0.403160
    44  C   -0.089809
    45  H    0.173501
    46  C    0.598130
    47  C    0.160127
    48  H    0.125297
    49  O   -0.528383
    50  C   -0.460069
    51  H    0.141036
    52  H    0.157710
    53  H    0.160048
    54  O   -0.645098
    55  H    0.417863
    56  N   -0.572784
    57  H    0.330862
    58  C   -0.084490
    59  H    0.149106
    60  C    0.627866
    61  C   -0.285312
    62  H    0.149901
    63  H    0.203335
    64  O   -0.626765
    65  C   -0.288281
    66  H    0.159392
    67  H    0.153685
    68  C   -0.175279
    69  H    0.179174
    70  H    0.154874
    71  N   -0.591892
    72  H    0.404424
    73  N   -0.751844
    74  H    0.364051
    75  H    0.369741
    76  N   -0.763736
    77  H    0.432343
    78  H    0.348401
    79  C    0.747938
    80  O   -0.550266
    81  H    0.427565
 Sum of Mulliken charges =   1.00000

 Dipole moment (field-independent basis, Debye):
    X=            -11.4465    Y=              8.9409    Z=              2.1481  Tot=             14.6825
 Quadrupole moment (field-independent basis, Debye-Ang):
   XX=           -147.2250   YY=           -173.2019   ZZ=            -40.3403
   XY=             30.3661   XZ=           -104.1050   YZ=            -70.1427

 Normal termination of Gaussian 16 at Thu May 26 18:09:19 2022.
