 Gaussian 16, Revision C.01,
 Gaussian 16:  ES64L-G16RevC.01  3-Jul-2019

 -------------------------------------------------------------------
 # B3LYP/6-31G* guess=read geom=check nosymm integral(ultrafinegrid)
 -------------------------------------------------------------------

 ------------------------------------------------------
 Candidate Structure: Conf:684 Charge calc in gas phase
 ------------------------------------------------------
 Structure from the checkpoint file:  "conf-684.chk"
 Charge =  1 Multiplicity = 1

                          Input orientation:
 ---------------------------------------------------------------------
 Center     Atomic      Atomic             Coordinates (Angstroms)
 Number     Number       Type             X           Y           Z
 ---------------------------------------------------------------------
      1          7           0       -5.486325    1.401937    3.600158
      2          1           0       -6.385709    1.861040    3.437089
      3          1           0       -5.418344    0.495665    3.017279
      4          1           0       -5.403438    1.191376    4.598357
      5          6           0       -4.295748    2.167428    3.050544
      6          1           0       -4.676575    3.088484    2.599852
      7          6           0       -3.778508    1.202335    1.937478
      8          6           0       -3.261077    2.470938    4.138090
      9          1           0       -2.951217    1.537289    4.624041
     10          1           0       -2.357719    2.852563    3.652569
     11          8           0       -4.358822    0.105586    1.828392
     12          6           0       -3.730177    3.490801    5.181677
     13          1           0       -4.623799    3.163211    5.730865
     14          1           0       -3.999926    4.446024    4.713408
     15          6           0       -2.635781    3.756738    6.206091
     16          8           0       -1.544351    3.237590    6.190028
     17          8           0       -3.046287    4.644343    7.129590
     18          7           0       -2.765952    1.627497    1.205742
     19          1           0       -2.316303    2.539112    1.338681
     20          6           0       -2.116006    0.880489    0.122036
     21          1           0       -1.989931   -0.159499    0.435777
     22          6           0       -0.744833    1.583277   -0.019466
     23          6           0       -2.979498    0.933197   -1.170413
     24          1           0       -3.151142    1.987876   -1.414468
     25          1           0       -3.953860    0.501943   -0.911869
     26          8           0       -0.642591    2.755912    0.361506
     27          6           0       -2.379819    0.229261   -2.352622
     28          6           0       -2.303297   -1.130213   -2.559412
     29          1           0       -2.645356   -1.946958   -1.937284
     30          6           0       -1.794554    0.852722   -3.515129
     31          6           0       -1.389397   -0.192082   -4.388210
     32          6           0       -1.586382    2.186579   -3.909571
     33          1           0       -1.881588    3.010396   -3.264088
     34          7           0       -1.721509   -1.384462   -3.780371
     35          1           0       -1.472927   -2.300376   -4.121673
     36          6           0       -0.605916    1.386455   -5.992406
     37          1           0       -0.155475    1.618081   -6.953456
     38          6           0       -0.796956    0.058387   -5.630327
     39          1           0       -0.505213   -0.754362   -6.290087
     40          6           0       -0.995210    2.440835   -5.139595
     41          1           0       -0.831584    3.467143   -5.455479
     42          7           0        0.256115    0.835853   -0.508946
     43          1           0        0.049512   -0.026461   -1.022601
     44          6           0        1.572164    1.365057   -0.865820
     45          1           0        1.474947    2.419338   -1.147143
     46          6           0        2.037468    0.512928   -2.073550
     47          6           0        2.596131    1.231367    0.298089
     48          1           0        3.564276    1.567755   -0.088191
     49          8           0        1.410626   -0.503816   -2.392719
     50          6           0        2.246512    2.057586    1.535443
     51          1           0        2.128437    3.118532    1.293785
     52          1           0        3.045148    1.946480    2.275048
     53          1           0        1.309837    1.714754    1.989396
     54          8           0        2.796806   -0.137718    0.623257
     55          1           0        1.946871   -0.484475    0.941011
     56          7           0        3.140396    0.958426   -2.687799
     57          1           0        3.678557    1.754472   -2.341865
     58          6           0        3.909238    0.203909   -3.672819
     59          1           0        3.868068   -0.859441   -3.414989
     60          6           0        5.376012    0.722517   -3.530280
     61          6           0        3.294787    0.407459   -5.091675
     62          1           0        3.563034    1.409024   -5.455332
     63          1           0        2.211736    0.420095   -4.940093
     64          8           0        5.543439    1.812563   -2.964256
     65          6           0        3.596877   -0.663644   -6.172114
     66          1           0        3.890952   -1.609716   -5.698976
     67          1           0        2.671990   -0.880231   -6.720160
     68          6           0        4.644557   -0.296120   -7.235818
     69          1           0        4.669711   -1.080011   -8.005242
     70          1           0        4.367688    0.645716   -7.728350
     71          7           0        5.959107   -0.159429   -6.609999
     72          1           0        6.001752   -0.406910   -5.589471
     73          7           0        6.935592    1.272007   -8.178852
     74          1           0        7.686379    1.900601   -8.424508
     75          1           0        6.514668    0.765768   -8.944195
     76          7           0        7.777245    1.086488   -5.997374
     77          1           0        7.523616    0.840855   -5.017659
     78          1           0        8.554776    1.694816   -6.202541
     79          6           0        6.894329    0.729622   -6.934689
     80          8           0        6.282483   -0.026484   -4.040853
     81          1           0       -2.306001    4.782490    7.752081
 ---------------------------------------------------------------------

 SCF Done:  E(RB3LYP) =  -2053.93034435     A.U. after    1 cycles

 Alpha  occ. eigenvalues --  -19.29853 -19.27139 -19.24518 -19.20959 -19.19736
 Alpha  occ. eigenvalues --  -19.16886 -19.13887 -19.13054 -14.59925 -14.49290
 Alpha  occ. eigenvalues --  -14.46144 -14.44425 -14.43790 -14.43382 -14.42587
 Alpha  occ. eigenvalues --  -14.39787 -10.43694 -10.43009 -10.41242 -10.40702
 Alpha  occ. eigenvalues --  -10.37875 -10.34379 -10.33878 -10.33878 -10.33469
 Alpha  occ. eigenvalues --  -10.31284 -10.29915 -10.29740 -10.29358 -10.28850
 Alpha  occ. eigenvalues --  -10.28493 -10.27994 -10.26427 -10.25398 -10.25362
 Alpha  occ. eigenvalues --  -10.24924 -10.24724 -10.24647 -10.24434 -10.23983
 Alpha  occ. eigenvalues --  -10.23842 -10.23027  -1.20944  -1.19478  -1.13807
 Alpha  occ. eigenvalues --   -1.12756  -1.12187  -1.09473  -1.08819  -1.07254
 Alpha  occ. eigenvalues --   -1.06644  -1.05889  -1.04377  -1.00137  -0.99297
 Alpha  occ. eigenvalues --   -0.97973  -0.97360  -0.96283  -0.95130  -0.90162
 Alpha  occ. eigenvalues --   -0.89520  -0.87424  -0.85326  -0.84404  -0.82761
 Alpha  occ. eigenvalues --   -0.79650  -0.79450  -0.79404  -0.78613  -0.76997
 Alpha  occ. eigenvalues --   -0.75845  -0.74372  -0.73135  -0.72683  -0.71148
 Alpha  occ. eigenvalues --   -0.70665  -0.70572  -0.68489  -0.68300  -0.66899
 Alpha  occ. eigenvalues --   -0.65908  -0.65655  -0.65369  -0.64867  -0.63957
 Alpha  occ. eigenvalues --   -0.63224  -0.63033  -0.62323  -0.61123  -0.60375
 Alpha  occ. eigenvalues --   -0.60239  -0.59682  -0.58646  -0.58218  -0.58123
 Alpha  occ. eigenvalues --   -0.57831  -0.56956  -0.56482  -0.55750  -0.54982
 Alpha  occ. eigenvalues --   -0.54901  -0.54390  -0.54046  -0.53491  -0.53369
 Alpha  occ. eigenvalues --   -0.52937  -0.52759  -0.52221  -0.51275  -0.50935
 Alpha  occ. eigenvalues --   -0.50591  -0.50325  -0.49801  -0.49491  -0.49136
 Alpha  occ. eigenvalues --   -0.49036  -0.48939  -0.48839  -0.48525  -0.48342
 Alpha  occ. eigenvalues --   -0.48002  -0.47207  -0.46299  -0.46118  -0.45958
 Alpha  occ. eigenvalues --   -0.45388  -0.45057  -0.44297  -0.44241  -0.43387
 Alpha  occ. eigenvalues --   -0.42438  -0.42148  -0.42115  -0.41929  -0.41431
 Alpha  occ. eigenvalues --   -0.41284  -0.40461  -0.40015  -0.39729  -0.39338
 Alpha  occ. eigenvalues --   -0.39121  -0.38640  -0.38225  -0.37900  -0.36672
 Alpha  occ. eigenvalues --   -0.35196  -0.34620  -0.33537  -0.33203  -0.32474
 Alpha  occ. eigenvalues --   -0.30916  -0.30659  -0.28990  -0.28370  -0.28018
 Alpha  occ. eigenvalues --   -0.27323  -0.26727
 Alpha virt. eigenvalues --   -0.12405  -0.11700  -0.09449  -0.07446  -0.06997
 Alpha virt. eigenvalues --   -0.06560  -0.05347  -0.04553  -0.03437  -0.02489
 Alpha virt. eigenvalues --   -0.02255  -0.02043  -0.01426  -0.01061  -0.00815

 Mulliken charges:
               1
     1  N   -0.764146
     2  H    0.415291
     3  H    0.439081
     4  H    0.411202
     5  C   -0.109309
     6  H    0.218232
     7  C    0.659760
     8  C   -0.302106
     9  H    0.194323
    10  H    0.221700
    11  O   -0.551177
    12  C   -0.376391
    13  H    0.168856
    14  H    0.204423
    15  C    0.597432
    16  O   -0.435868
    17  O   -0.556963
    18  N   -0.610361
    19  H    0.375724
    20  C   -0.057016
    21  H    0.186436
    22  C    0.631697
    23  C   -0.351328
    24  H    0.163581
    25  H    0.174378
    26  O   -0.553111
    27  C    0.033428
    28  C    0.004153
    29  H    0.156834
    30  C    0.090280
    31  C    0.338290
    32  C   -0.212502
    33  H    0.125327
    34  N   -0.681503
    35  H    0.339397
    36  C   -0.151075
    37  H    0.129460
    38  C   -0.157878
    39  H    0.131104
    40  C   -0.137246
    41  H    0.131370
    42  N   -0.631788
    43  H    0.375779
    44  C   -0.087144
    45  H    0.180146
    46  C    0.655159
    47  C    0.127515
    48  H    0.169483
    49  O   -0.566624
    50  C   -0.448900
    51  H    0.157694
    52  H    0.168433
    53  H    0.126936
    54  O   -0.610517
    55  H    0.385070
    56  N   -0.618178
    57  H    0.359033
    58  C   -0.050352
    59  H    0.169524
    60  C    0.597973
    61  C   -0.280654
    62  H    0.140128
    63  H    0.182195
    64  O   -0.549000
    65  C   -0.304168
    66  H    0.168022
    67  H    0.149213
    68  C   -0.143404
    69  H    0.158054
    70  H    0.159057
    71  N   -0.612076
    72  H    0.412167
    73  N   -0.755233
    74  H    0.360488
    75  H    0.367997
    76  N   -0.774434
    77  H    0.420209
    78  H    0.347589
    79  C    0.768537
    80  O   -0.640654
    81  H    0.432941
 Sum of Mulliken charges =   1.00000

 Dipole moment (field-independent basis, Debye):
    X=            -12.5601    Y=              8.4190    Z=             -1.0295  Tot=             15.1557
 Quadrupole moment (field-independent basis, Debye-Ang):
   XX=            -83.2548   YY=           -211.0895   ZZ=            -26.7598
   XY=            -18.0818   XZ=           -176.2229   YZ=             27.7021

 Normal termination of Gaussian 16 at Thu May 26 18:08:05 2022.
