 Gaussian 16, Revision C.01,
 Gaussian 16:  ES64L-G16RevC.01  3-Jul-2019

 -------------------------------------------------------------------
 # B3LYP/6-31G* guess=read geom=check nosymm integral(ultrafinegrid)
 -------------------------------------------------------------------

 ------------------------------------------------------
 Candidate Structure: Conf:538 Charge calc in gas phase
 ------------------------------------------------------
 Structure from the checkpoint file:  "conf-538.chk"
 Charge =  1 Multiplicity = 1

                          Input orientation:
 ---------------------------------------------------------------------
 Center     Atomic      Atomic             Coordinates (Angstroms)
 Number     Number       Type             X           Y           Z
 ---------------------------------------------------------------------
      1          7           0       -5.465968   -1.808161    1.344711
      2          1           0       -6.063023   -1.087043    1.802727
      3          1           0       -5.782046   -1.838741    0.350531
      4          1           0       -5.575114   -2.709974    1.816331
      5          6           0       -4.030330   -1.335094    1.260253
      6          1           0       -3.823988   -0.777644    2.176136
      7          6           0       -4.072376   -0.387773    0.033665
      8          6           0       -3.054723   -2.510559    1.128151
      9          1           0       -2.044664   -2.100736    1.239319
     10          1           0       -3.184969   -3.191293    1.978006
     11          8           0       -4.948200   -0.588260   -0.820577
     12          6           0       -3.141924   -3.305008   -0.181718
     13          1           0       -2.764221   -2.733168   -1.034476
     14          1           0       -4.175408   -3.574264   -0.441992
     15          6           0       -2.366815   -4.608310   -0.068033
     16          8           0       -2.030745   -5.122863    0.974429
     17          8           0       -2.122063   -5.140260   -1.281192
     18          7           0       -3.163839    0.582416    0.021093
     19          1           0       -2.470904    0.656483    0.775852
     20          6           0       -3.227950    1.753456   -0.877987
     21          1           0       -3.332430    1.390833   -1.906673
     22          6           0       -1.855160    2.438456   -0.687880
     23          6           0       -4.422019    2.686235   -0.536261
     24          1           0       -5.306405    2.300263   -1.052500
     25          1           0       -4.196643    3.664514   -0.971580
     26          8           0       -1.741935    3.518856   -0.111101
     27          6           0       -4.721495    2.816755    0.935034
     28          6           0       -4.068975    3.608675    1.850367
     29          1           0       -3.254852    4.298850    1.686250
     30          6           0       -5.722071    2.088675    1.679827
     31          6           0       -5.602306    2.476308    3.047715
     32          6           0       -6.729368    1.165941    1.334043
     33          1           0       -6.891221    0.895000    0.294137
     34          7           0       -4.589268    3.403492    3.113148
     35          1           0       -4.303616    3.900820    3.943594
     36          6           0       -7.371064    1.005276    3.691071
     37          1           0       -8.023614    0.582847    4.449299
     38          6           0       -6.411040    1.940198    4.057196
     39          1           0       -6.298732    2.249647    5.092634
     40          6           0       -7.536924    0.626041    2.338424
     41          1           0       -8.355467   -0.039549    2.071119
     42          7           0       -0.809927    1.687508   -1.101296
     43          1           0       -0.950719    0.810601   -1.596304
     44          6           0        0.498564    1.765581   -0.476945
     45          1           0        0.790558    2.814543   -0.380461
     46          6           0        1.463925    0.979231   -1.389217
     47          6           0        0.470905    1.082023    0.944853
     48          1           0        0.532121   -0.000981    0.790479
     49          8           0        1.006633    0.051888   -2.078285
     50          6           0        1.593181    1.554907    1.860451
     51          1           0        2.590749    1.371461    1.442254
     52          1           0        1.521106    1.038840    2.822911
     53          1           0        1.504819    2.634623    2.043425
     54          8           0       -0.812409    1.255580    1.592580
     55          1           0       -0.918376    2.206010    1.772116
     56          7           0        2.747114    1.345102   -1.319110
     57          1           0        3.071208    1.964176   -0.553197
     58          6           0        3.883517    0.477287   -1.623621
     59          1           0        3.569767   -0.570132   -1.537700
     60          6           0        4.974101    0.776614   -0.496741
     61          6           0        4.505481    0.708671   -2.999686
     62          1           0        5.474626    0.197240   -2.970039
     63          1           0        4.706362    1.782311   -3.122654
     64          8           0        4.593817    1.608101    0.378289
     65          6           0        3.662833    0.200624   -4.175044
     66          1           0        3.465892   -0.872416   -4.052937
     67          1           0        2.688067    0.705033   -4.192854
     68          6           0        4.396886    0.432827   -5.494441
     69          1           0        4.580119    1.504916   -5.643933
     70          1           0        5.360711   -0.089591   -5.483345
     71          7           0        3.605883   -0.085364   -6.634387
     72          1           0        2.629452   -0.281783   -6.449581
     73          7           0        5.270367    0.188138   -8.224314
     74          1           0        5.736378   -0.167740   -9.046701
     75          1           0        5.824556    0.732820   -7.579071
     76          7           0        3.316365   -0.914677   -8.788296
     77          1           0        2.446322   -1.359051   -8.533184
     78          1           0        3.505615   -0.809012   -9.774782
     79          6           0        4.057896   -0.265257   -7.868604
     80          8           0        6.043883    0.170392   -0.640283
     81          1           0       -1.647552   -5.981048   -1.132083
 ---------------------------------------------------------------------

 SCF Done:  E(RB3LYP) =  -2053.88524407     A.U. after    3 cycles

 Alpha  occ. eigenvalues --  -19.28688 -19.24329 -19.23481 -19.23213 -19.19618
 Alpha  occ. eigenvalues --  -19.16726 -19.08458 -19.07346 -14.57624 -14.52685
 Alpha  occ. eigenvalues --  -14.52628 -14.52310 -14.47031 -14.46381 -14.42858
 Alpha  occ. eigenvalues --  -14.38684 -10.48858 -10.41634 -10.41185 -10.38550
 Alpha  occ. eigenvalues --  -10.36811 -10.34365 -10.33567 -10.32777 -10.32241
 Alpha  occ. eigenvalues --  -10.31343 -10.31162 -10.30723 -10.29683 -10.29447
 Alpha  occ. eigenvalues --  -10.28060 -10.27851 -10.27755 -10.27507 -10.27437
 Alpha  occ. eigenvalues --  -10.27353 -10.26928 -10.26438 -10.26344 -10.23974
 Alpha  occ. eigenvalues --  -10.23165 -10.22228  -1.19713  -1.17327  -1.16685
 Alpha  occ. eigenvalues --   -1.11914  -1.11532  -1.10830  -1.09701  -1.08009
 Alpha  occ. eigenvalues --   -1.06316  -1.06304  -1.05608  -1.03916  -1.01483
 Alpha  occ. eigenvalues --   -0.99403  -0.95781  -0.93035  -0.92734  -0.92715
 Alpha  occ. eigenvalues --   -0.88953  -0.88881  -0.86543  -0.84530  -0.83461
 Alpha  occ. eigenvalues --   -0.82421  -0.81611  -0.80439  -0.78821  -0.77612
 Alpha  occ. eigenvalues --   -0.77159  -0.75403  -0.74452  -0.72817  -0.72105
 Alpha  occ. eigenvalues --   -0.70979  -0.70519  -0.70385  -0.69445  -0.68433
 Alpha  occ. eigenvalues --   -0.68169  -0.67798  -0.66891  -0.65842  -0.65801
 Alpha  occ. eigenvalues --   -0.64952  -0.64545  -0.63544  -0.62335  -0.61404
 Alpha  occ. eigenvalues --   -0.60660  -0.60343  -0.59947  -0.58897  -0.58291
 Alpha  occ. eigenvalues --   -0.57903  -0.57392  -0.57071  -0.56811  -0.56534
 Alpha  occ. eigenvalues --   -0.56001  -0.55686  -0.55486  -0.54169  -0.53852
 Alpha  occ. eigenvalues --   -0.53202  -0.52359  -0.52101  -0.51761  -0.51393
 Alpha  occ. eigenvalues --   -0.51289  -0.50801  -0.50294  -0.49710  -0.49450
 Alpha  occ. eigenvalues --   -0.49042  -0.48701  -0.48614  -0.48331  -0.47785
 Alpha  occ. eigenvalues --   -0.47320  -0.46881  -0.46434  -0.46200  -0.46001
 Alpha  occ. eigenvalues --   -0.45527  -0.45023  -0.44708  -0.43818  -0.43500
 Alpha  occ. eigenvalues --   -0.43116  -0.43074  -0.42520  -0.41979  -0.41916
 Alpha  occ. eigenvalues --   -0.41131  -0.40928  -0.40678  -0.40152  -0.39580
 Alpha  occ. eigenvalues --   -0.38930  -0.38754  -0.37802  -0.37051  -0.36916
 Alpha  occ. eigenvalues --   -0.36289  -0.36210  -0.35577  -0.33709  -0.32444
 Alpha  occ. eigenvalues --   -0.31403  -0.30712  -0.29959  -0.28791  -0.23555
 Alpha  occ. eigenvalues --   -0.23290  -0.21571
 Alpha virt. eigenvalues --   -0.12643  -0.10705  -0.10052  -0.08951  -0.08837
 Alpha virt. eigenvalues --   -0.07836  -0.06898  -0.06751  -0.04748  -0.04051
 Alpha virt. eigenvalues --   -0.03351  -0.03322  -0.02658  -0.02377  -0.01908

 Mulliken charges:
               1
     1  N   -0.757897
     2  H    0.410608
     3  H    0.416861
     4  H    0.402583
     5  C   -0.133911
     6  H    0.222678
     7  C    0.681405
     8  C   -0.291844
     9  H    0.210875
    10  H    0.196627
    11  O   -0.560564
    12  C   -0.375795
    13  H    0.210500
    14  H    0.174270
    15  C    0.588551
    16  O   -0.443228
    17  O   -0.557501
    18  N   -0.646906
    19  H    0.401374
    20  C   -0.032067
    21  H    0.181603
    22  C    0.572671
    23  C   -0.363048
    24  H    0.166758
    25  H    0.189529
    26  O   -0.527687
    27  C    0.055269
    28  C    0.009591
    29  H    0.199132
    30  C    0.076365
    31  C    0.314688
    32  C   -0.270802
    33  H    0.160119
    34  N   -0.682906
    35  H    0.344973
    36  C   -0.151584
    37  H    0.148988
    38  C   -0.157219
    39  H    0.150847
    40  C   -0.205219
    41  H    0.142686
    42  N   -0.576146
    43  H    0.340983
    44  C   -0.086021
    45  H    0.182826
    46  C    0.599531
    47  C    0.126346
    48  H    0.149790
    49  O   -0.586468
    50  C   -0.499069
    51  H    0.232837
    52  H    0.159028
    53  H    0.142969
    54  O   -0.652924
    55  H    0.411052
    56  N   -0.592787
    57  H    0.359342
    58  C   -0.085767
    59  H    0.144127
    60  C    0.588451
    61  C   -0.264084
    62  H    0.178427
    63  H    0.137078
    64  O   -0.602302
    65  C   -0.307964
    66  H    0.159708
    67  H    0.167229
    68  C   -0.152069
    69  H    0.184819
    70  H    0.186892
    71  N   -0.603034
    72  H    0.368058
    73  N   -0.755652
    74  H    0.384845
    75  H    0.399283
    76  N   -0.764785
    77  H    0.382590
    78  H    0.383668
    79  C    0.832472
    80  O   -0.570990
    81  H    0.426339
 Sum of Mulliken charges =   1.00000

 Dipole moment (field-independent basis, Debye):
    X=            -13.5388    Y=             -6.1315    Z=            -24.0028  Tot=             28.2317
 Quadrupole moment (field-independent basis, Debye-Ang):
   XX=           -164.1066   YY=           -215.1032   ZZ=             45.3712
   XY=             13.4721   XZ=           -172.3645   YZ=             22.4565

 Normal termination of Gaussian 16 at Thu May 26 18:08:30 2022.
