 Gaussian 16, Revision C.01,
 Gaussian 16:  ES64L-G16RevC.01  3-Jul-2019

 -------------------------------------------------------------------
 # B3LYP/6-31G* guess=read geom=check nosymm integral(ultrafinegrid)
 -------------------------------------------------------------------

 ------------------------------------------------------
 Candidate Structure: Conf:535 Charge calc in gas phase
 ------------------------------------------------------
 Structure from the checkpoint file:  "conf-535.chk"
 Charge =  1 Multiplicity = 1

                          Input orientation:
 ---------------------------------------------------------------------
 Center     Atomic      Atomic             Coordinates (Angstroms)
 Number     Number       Type             X           Y           Z
 ---------------------------------------------------------------------
      1          7           0       -6.131655    1.049824    3.064626
      2          1           0       -6.856971    1.724472    2.808783
      3          1           0       -6.177241    0.196589    2.410077
      4          1           0       -6.280127    0.767260    4.037438
      5          6           0       -4.719698    1.535599    2.790734
      6          1           0       -4.785959    2.565557    2.429579
      7          6           0       -4.261536    0.582481    1.642809
      8          6           0       -3.838569    1.448176    4.042824
      9          1           0       -3.838036    0.411463    4.406625
     10          1           0       -2.807405    1.665361    3.748791
     11          8           0       -5.041594   -0.336968    1.331193
     12          6           0       -4.255657    2.419804    5.161970
     13          1           0       -5.282215    2.255182    5.505184
     14          1           0       -4.185715    3.452849    4.797317
     15          6           0       -3.375103    2.292976    6.398263
     16          8           0       -3.784188    2.094562    7.515272
     17          8           0       -2.070956    2.434243    6.076904
     18          7           0       -3.082580    0.833789    1.105941
     19          1           0       -2.441149    1.547116    1.474833
     20          6           0       -2.399587   -0.001070    0.112654
     21          1           0       -2.476746   -1.048051    0.424698
     22          6           0       -0.923652    0.471633    0.215753
     23          6           0       -3.016623    0.136486   -1.313103
     24          1           0       -2.669439    1.071491   -1.767544
     25          1           0       -4.101135    0.229808   -1.180514
     26          8           0       -0.645724    1.400589    0.982913
     27          6           0       -2.721278   -1.037052   -2.200860
     28          6           0       -1.869178   -1.073000   -3.282313
     29          1           0       -1.218252   -0.307432   -3.678665
     30          6           0       -3.300173   -2.357357   -2.088099
     31          6           0       -2.745308   -3.143315   -3.134431
     32          6           0       -4.233334   -2.947015   -1.215594
     33          1           0       -4.685131   -2.367907   -0.414047
     34          7           0       -1.885306   -2.327966   -3.844820
     35          1           0       -1.294001   -2.620022   -4.608085
     36          6           0       -4.003481   -5.043970   -2.439555
     37          1           0       -4.289494   -6.085214   -2.556491
     38          6           0       -3.085716   -4.486586   -3.322063
     39          1           0       -2.651408   -5.073129   -4.126986
     40          6           0       -4.573161   -4.281743   -1.399275
     41          1           0       -5.292621   -4.749770   -0.733113
     42          7           0       -0.028773   -0.188297   -0.541374
     43          1           0       -0.359220   -0.773785   -1.308179
     44          6           0        1.383022    0.194709   -0.613207
     45          1           0        1.496856    1.131941   -0.063704
     46          6           0        1.737486    0.348384   -2.103672
     47          6           0        2.265652   -0.900937    0.070947
     48          1           0        2.274143   -1.779157   -0.595166
     49          8           0        1.136410   -0.326863   -2.949441
     50          6           0        3.692686   -0.437113    0.333470
     51          1           0        4.218637   -0.162235   -0.584090
     52          1           0        4.247312   -1.242708    0.822746
     53          1           0        3.688656    0.426713    1.007903
     54          8           0        1.715471   -1.248170    1.334061
     55          1           0        0.839953   -1.630928    1.168060
     56          7           0        2.729600    1.206510   -2.385021
     57          1           0        3.272014    1.666377   -1.652815
     58          6           0        3.411656    1.285540   -3.674850
     59          1           0        3.332938    0.317789   -4.178402
     60          6           0        4.895535    1.619360   -3.354539
     61          6           0        2.762211    2.389356   -4.553634
     62          1           0        3.028430    3.368685   -4.133142
     63          1           0        1.677640    2.286735   -4.430703
     64          8           0        5.721218    1.357738   -4.294927
     65          6           0        3.036884    2.361553   -6.069538
     66          1           0        2.785947    1.369008   -6.466571
     67          1           0        2.330734    3.057533   -6.547255
     68          6           0        4.453959    2.679722   -6.569683
     69          1           0        5.153909    1.951006   -6.167659
     70          1           0        4.467036    2.626594   -7.665914
     71          7           0        4.908607    4.026246   -6.178656
     72          1           0        4.282970    4.792779   -6.391666
     73          7           0        6.896101    3.497413   -5.062312
     74          1           0        7.790881    3.830278   -4.729109
     75          1           0        6.524773    2.546160   -4.668115
     76          7           0        6.382992    5.707213   -5.623228
     77          1           0        6.078846    6.280587   -6.397396
     78          1           0        7.220138    6.018581   -5.152528
     79          6           0        6.080066    4.375242   -5.616720
     80          8           0        5.133480    2.160670   -2.262813
     81          1           0       -1.554886    2.350535    6.902207
 ---------------------------------------------------------------------

 SCF Done:  E(RB3LYP) =  -2053.92604897     A.U. after    1 cycles

 Alpha  occ. eigenvalues --  -19.29712 -19.27166 -19.24042 -19.21389 -19.20137
 Alpha  occ. eigenvalues --  -19.17475 -19.14048 -19.13553 -14.59935 -14.48996
 Alpha  occ. eigenvalues --  -14.46568 -14.46278 -14.44426 -14.44209 -14.43162
 Alpha  occ. eigenvalues --  -14.40850 -10.43605 -10.42617 -10.41918 -10.41226
 Alpha  occ. eigenvalues --  -10.38371 -10.34741 -10.34637 -10.33909 -10.33170
 Alpha  occ. eigenvalues --  -10.31679 -10.30062 -10.29574 -10.29131 -10.28488
 Alpha  occ. eigenvalues --  -10.28380 -10.27981 -10.26916 -10.25813 -10.25229
 Alpha  occ. eigenvalues --  -10.24753 -10.24713 -10.24697 -10.24525 -10.24222
 Alpha  occ. eigenvalues --  -10.23945 -10.22418  -1.20585  -1.19416  -1.13880
 Alpha  occ. eigenvalues --   -1.13209  -1.11784  -1.10292  -1.09279  -1.07821
 Alpha  occ. eigenvalues --   -1.07206  -1.05766  -1.04214  -1.00602  -0.99964
 Alpha  occ. eigenvalues --   -0.99251  -0.97523  -0.97000  -0.95169  -0.90134
 Alpha  occ. eigenvalues --   -0.89385  -0.87302  -0.85974  -0.84525  -0.83004
 Alpha  occ. eigenvalues --   -0.80038  -0.79529  -0.79049  -0.78435  -0.77068
 Alpha  occ. eigenvalues --   -0.75794  -0.74259  -0.73991  -0.72684  -0.71582
 Alpha  occ. eigenvalues --   -0.71436  -0.70262  -0.68221  -0.67956  -0.67389
 Alpha  occ. eigenvalues --   -0.66343  -0.65978  -0.65385  -0.65057  -0.64157
 Alpha  occ. eigenvalues --   -0.63758  -0.63170  -0.62949  -0.61146  -0.60056
 Alpha  occ. eigenvalues --   -0.59705  -0.59665  -0.59302  -0.58487  -0.58389
 Alpha  occ. eigenvalues --   -0.57966  -0.57654  -0.56624  -0.56540  -0.55348
 Alpha  occ. eigenvalues --   -0.54965  -0.54525  -0.54296  -0.53676  -0.53375
 Alpha  occ. eigenvalues --   -0.53177  -0.52922  -0.52757  -0.51663  -0.51293
 Alpha  occ. eigenvalues --   -0.50723  -0.50563  -0.49997  -0.49601  -0.49321
 Alpha  occ. eigenvalues --   -0.49009  -0.48897  -0.48739  -0.48620  -0.48030
 Alpha  occ. eigenvalues --   -0.47724  -0.47081  -0.46608  -0.46438  -0.45798
 Alpha  occ. eigenvalues --   -0.45255  -0.44860  -0.44421  -0.43894  -0.43549
 Alpha  occ. eigenvalues --   -0.43181  -0.42436  -0.41987  -0.41923  -0.41759
 Alpha  occ. eigenvalues --   -0.41425  -0.41336  -0.40160  -0.39553  -0.39343
 Alpha  occ. eigenvalues --   -0.39137  -0.38986  -0.38482  -0.37528  -0.37074
 Alpha  occ. eigenvalues --   -0.35815  -0.34902  -0.34345  -0.33590  -0.33067
 Alpha  occ. eigenvalues --   -0.31677  -0.31143  -0.29510  -0.28328  -0.28293
 Alpha  occ. eigenvalues --   -0.27708  -0.26711
 Alpha virt. eigenvalues --   -0.12574  -0.11423  -0.09182  -0.07308  -0.06872
 Alpha virt. eigenvalues --   -0.06581  -0.06553  -0.04268  -0.03846  -0.03562
 Alpha virt. eigenvalues --   -0.03438  -0.02166  -0.01091  -0.01044  -0.00617

 Mulliken charges:
               1
     1  N   -0.763535
     2  H    0.416313
     3  H    0.438861
     4  H    0.414568
     5  C   -0.107298
     6  H    0.219166
     7  C    0.656604
     8  C   -0.319182
     9  H    0.187865
    10  H    0.232886
    11  O   -0.545449
    12  C   -0.360602
    13  H    0.165604
    14  H    0.198794
    15  C    0.579749
    16  O   -0.424994
    17  O   -0.553834
    18  N   -0.615558
    19  H    0.380925
    20  C   -0.056549
    21  H    0.204635
    22  C    0.605135
    23  C   -0.358136
    24  H    0.164598
    25  H    0.175176
    26  O   -0.538288
    27  C    0.009545
    28  C    0.012944
    29  H    0.186871
    30  C    0.085902
    31  C    0.310894
    32  C   -0.229156
    33  H    0.137203
    34  N   -0.684420
    35  H    0.342540
    36  C   -0.149120
    37  H    0.137988
    38  C   -0.158881
    39  H    0.137490
    40  C   -0.140207
    41  H    0.126622
    42  N   -0.636766
    43  H    0.378250
    44  C   -0.074982
    45  H    0.185802
    46  C    0.614315
    47  C    0.133054
    48  H    0.132201
    49  O   -0.566202
    50  C   -0.468802
    51  H    0.174726
    52  H    0.171842
    53  H    0.159700
    54  O   -0.614065
    55  H    0.390088
    56  N   -0.601458
    57  H    0.359120
    58  C   -0.043737
    59  H    0.165897
    60  C    0.592989
    61  C   -0.258920
    62  H    0.137983
    63  H    0.151806
    64  O   -0.628577
    65  C   -0.285336
    66  H    0.162625
    67  H    0.130807
    68  C   -0.160448
    69  H    0.235822
    70  H    0.158806
    71  N   -0.601126
    72  H    0.340631
    73  N   -0.763467
    74  H    0.344391
    75  H    0.449684
    76  N   -0.763546
    77  H    0.358022
    78  H    0.362410
    79  C    0.775117
    80  O   -0.556249
    81  H    0.433930
 Sum of Mulliken charges =   1.00000

 Dipole moment (field-independent basis, Debye):
    X=            -11.4266    Y=             14.9475    Z=             -2.8313  Tot=             19.0266
 Quadrupole moment (field-independent basis, Debye-Ang):
   XX=            -79.5051   YY=           -156.6841   ZZ=           -120.1284
   XY=             39.0486   XZ=           -121.8860   YZ=            -48.2072

 Normal termination of Gaussian 16 at Thu May 26 18:08:07 2022.
