 Gaussian 16, Revision C.01,
 Gaussian 16:  ES64L-G16RevC.01  3-Jul-2019

 -------------------------------------------------------------------
 # B3LYP/6-31G* guess=read geom=check nosymm integral(ultrafinegrid)
 -------------------------------------------------------------------

 ------------------------------------------------------
 Candidate Structure: Conf:365 Charge calc in gas phase
 ------------------------------------------------------
 Structure from the checkpoint file:  "conf-365.chk"
 Charge =  1 Multiplicity = 1

                          Input orientation:
 ---------------------------------------------------------------------
 Center     Atomic      Atomic             Coordinates (Angstroms)
 Number     Number       Type             X           Y           Z
 ---------------------------------------------------------------------
      1          7           0       -5.818304    1.040278    3.479813
      2          1           0       -5.984082    1.888809    2.892202
      3          1           0       -6.017442    0.205579    2.883658
      4          1           0       -6.423269    1.064516    4.304349
      5          6           0       -4.346982    0.901656    3.804368
      6          1           0       -3.948650    1.908761    3.949693
      7          6           0       -3.803484    0.231541    2.516738
      8          6           0       -4.129389    0.022496    5.041977
      9          1           0       -4.598200   -0.954311    4.868018
     10          1           0       -3.054006   -0.162392    5.127556
     11          8           0       -4.552684   -0.570434    1.949353
     12          6           0       -4.634981    0.649932    6.354184
     13          1           0       -5.710457    0.856622    6.341112
     14          1           0       -4.113227    1.598416    6.535926
     15          6           0       -4.406118   -0.252803    7.557984
     16          8           0       -5.264858   -0.604842    8.328619
     17          8           0       -3.105807   -0.609873    7.657674
     18          7           0       -2.584033    0.593073    2.116246
     19          1           0       -2.011028    1.240934    2.650534
     20          6           0       -2.000807    0.213394    0.828123
     21          1           0       -2.458129   -0.726947    0.513601
     22          6           0       -0.485474    0.112523    1.034495
     23          6           0       -2.254714    1.323009   -0.243174
     24          1           0       -1.703581    1.046617   -1.147950
     25          1           0       -1.811057    2.250177    0.139556
     26          8           0        0.082605    0.975449    1.701441
     27          6           0       -3.699261    1.504366   -0.600408
     28          6           0       -4.320954    0.902307   -1.667737
     29          1           0       -3.869991    0.307206   -2.452763
     30          6           0       -4.716605    2.253231    0.093661
     31          6           0       -5.950302    2.019372   -0.588958
     32          6           0       -4.721315    3.124323    1.198256
     33          1           0       -3.789020    3.393056    1.689856
     34          7           0       -5.669337    1.199307   -1.655530
     35          1           0       -6.333622    0.900004   -2.353446
     36          6           0       -7.142873    3.392033    0.963639
     37          1           0       -8.065546    3.850224    1.307679
     38          6           0       -7.162563    2.568734   -0.157890
     39          1           0       -8.090751    2.370902   -0.687028
     40          6           0       -5.928929    3.681250    1.631692
     41          1           0       -5.928604    4.401957    2.446740
     42          7           0        0.130928   -0.891608    0.366534
     43          1           0       -0.419954   -1.646756   -0.023623
     44          6           0        1.559116   -0.922896    0.071137
     45          1           0        2.034347   -0.150204    0.679631
     46          6           0        1.875477   -0.584093   -1.412101
     47          6           0        2.157557   -2.294088    0.422243
     48          1           0        3.176106   -2.301094    0.013291
     49          8           0        3.047249   -0.477327   -1.766008
     50          6           0        2.190469   -2.577617    1.921561
     51          1           0        2.828089   -1.855631    2.443485
     52          1           0        2.598020   -3.578021    2.112300
     53          1           0        1.184057   -2.531344    2.350455
     54          8           0        1.332349   -3.238782   -0.275214
     55          1           0        1.692424   -4.125840   -0.124179
     56          7           0        0.806764   -0.440798   -2.219999
     57          1           0       -0.141247   -0.540883   -1.875116
     58          6           0        0.828421   -0.071136   -3.624218
     59          1           0        1.366674    0.879401   -3.736160
     60          6           0       -0.667802    0.172505   -4.020912
     61          6           0        1.559153   -1.149936   -4.489453
     62          1           0        0.838543   -1.908971   -4.821341
     63          1           0        2.249256   -1.651863   -3.809603
     64          8           0       -0.865011    0.628098   -5.194624
     65          6           0        2.393265   -0.622081   -5.688684
     66          1           0        2.542710    0.461178   -5.598203
     67          1           0        3.395642   -1.062404   -5.657979
     68          6           0        1.820817   -0.920869   -7.081306
     69          1           0        2.492747   -0.516124   -7.850142
     70          1           0        1.744946   -2.006186   -7.238163
     71          7           0        0.494198   -0.315023   -7.190359
     72          1           0        0.148111    0.221180   -6.347812
     73          7           0       -0.258101   -1.357930   -9.144950
     74          1           0       -0.995692   -1.895932   -9.574900
     75          1           0        0.687907   -1.561552   -9.429892
     76          7           0       -1.755494   -0.397647   -7.637823
     77          1           0       -1.870976    0.054676   -6.720810
     78          1           0       -2.459226   -0.260641   -8.348892
     79          6           0       -0.487883   -0.690229   -7.991247
     80          8           0       -1.546561   -0.086510   -3.173050
     81          1           0       -3.023039   -1.174964    8.450160
 ---------------------------------------------------------------------

 SCF Done:  E(RB3LYP) =  -2053.94544197     A.U. after    1 cycles

 Alpha  occ. eigenvalues --  -19.29087 -19.24284 -19.23377 -19.21438 -19.19937
 Alpha  occ. eigenvalues --  -19.16244 -19.15919 -19.15699 -14.57609 -14.48056
 Alpha  occ. eigenvalues --  -14.47450 -14.46356 -14.45117 -14.44257 -14.44186
 Alpha  occ. eigenvalues --  -14.40078 -10.42187 -10.41925 -10.41643 -10.39135
 Alpha  occ. eigenvalues --  -10.37165 -10.33790 -10.33511 -10.33190 -10.32734
 Alpha  occ. eigenvalues --  -10.32227 -10.31070 -10.30970 -10.30432 -10.29431
 Alpha  occ. eigenvalues --  -10.29400 -10.28588 -10.28273 -10.28184 -10.28043
 Alpha  occ. eigenvalues --  -10.27929 -10.27550 -10.27098 -10.26120 -10.26032
 Alpha  occ. eigenvalues --  -10.24703 -10.24093  -1.19937  -1.16946  -1.12066
 Alpha  occ. eigenvalues --   -1.11605  -1.11096  -1.10969  -1.09170  -1.08833
 Alpha  occ. eigenvalues --   -1.07557  -1.06293  -1.04358  -1.01100  -1.00564
 Alpha  occ. eigenvalues --   -0.99747  -0.98957  -0.96561  -0.93678  -0.93179
 Alpha  occ. eigenvalues --   -0.89234  -0.86985  -0.86220  -0.85117  -0.83574
 Alpha  occ. eigenvalues --   -0.82696  -0.80746  -0.80494  -0.77450  -0.77305
 Alpha  occ. eigenvalues --   -0.74723  -0.73943  -0.72552  -0.72375  -0.71229
 Alpha  occ. eigenvalues --   -0.70678  -0.70327  -0.70141  -0.68169  -0.68109
 Alpha  occ. eigenvalues --   -0.67695  -0.67392  -0.66818  -0.65100  -0.64509
 Alpha  occ. eigenvalues --   -0.63628  -0.62706  -0.62499  -0.62129  -0.60844
 Alpha  occ. eigenvalues --   -0.59947  -0.59076  -0.58647  -0.57987  -0.57904
 Alpha  occ. eigenvalues --   -0.57654  -0.57450  -0.56526  -0.56290  -0.55868
 Alpha  occ. eigenvalues --   -0.55694  -0.55380  -0.55039  -0.54288  -0.54166
 Alpha  occ. eigenvalues --   -0.53947  -0.52529  -0.52287  -0.51915  -0.51765
 Alpha  occ. eigenvalues --   -0.51235  -0.50869  -0.50409  -0.49960  -0.49471
 Alpha  occ. eigenvalues --   -0.49391  -0.49273  -0.48651  -0.48580  -0.47929
 Alpha  occ. eigenvalues --   -0.47794  -0.47777  -0.47611  -0.46917  -0.46556
 Alpha  occ. eigenvalues --   -0.46151  -0.46043  -0.45547  -0.45224  -0.44285
 Alpha  occ. eigenvalues --   -0.43842  -0.43756  -0.43095  -0.42846  -0.42109
 Alpha  occ. eigenvalues --   -0.41949  -0.41216  -0.41123  -0.40503  -0.40083
 Alpha  occ. eigenvalues --   -0.39228  -0.39031  -0.37955  -0.37615  -0.36812
 Alpha  occ. eigenvalues --   -0.36280  -0.35110  -0.34901  -0.33877  -0.33846
 Alpha  occ. eigenvalues --   -0.31801  -0.31635  -0.31137  -0.30092  -0.29822
 Alpha  occ. eigenvalues --   -0.28933  -0.28608
 Alpha virt. eigenvalues --   -0.11425  -0.10351  -0.08567  -0.08308  -0.07212
 Alpha virt. eigenvalues --   -0.07190  -0.06324  -0.03944  -0.03286  -0.02687
 Alpha virt. eigenvalues --   -0.02131  -0.01304  -0.00976  -0.00703  -0.00514

 Mulliken charges:
               1
     1  N   -0.760649
     2  H    0.414589
     3  H    0.421518
     4  H    0.401631
     5  C   -0.114386
     6  H    0.196164
     7  C    0.669426
     8  C   -0.296971
     9  H    0.191263
    10  H    0.217290
    11  O   -0.538113
    12  C   -0.365556
    13  H    0.166272
    14  H    0.196934
    15  C    0.579354
    16  O   -0.427361
    17  O   -0.557189
    18  N   -0.598468
    19  H    0.357740
    20  C   -0.068925
    21  H    0.186503
    22  C    0.627894
    23  C   -0.382192
    24  H    0.218067
    25  H    0.165185
    26  O   -0.532363
    27  C    0.062224
    28  C    0.021270
    29  H    0.214360
    30  C    0.091154
    31  C    0.325211
    32  C   -0.255946
    33  H    0.135666
    34  N   -0.685960
    35  H    0.342042
    36  C   -0.157753
    37  H    0.149183
    38  C   -0.159097
    39  H    0.149656
    40  C   -0.229201
    41  H    0.144679
    42  N   -0.623493
    43  H    0.356854
    44  C   -0.073086
    45  H    0.207258
    46  C    0.638796
    47  C    0.128106
    48  H    0.167331
    49  O   -0.545549
    50  C   -0.463610
    51  H    0.163174
    52  H    0.147213
    53  H    0.150877
    54  O   -0.650179
    55  H    0.403369
    56  N   -0.636399
    57  H    0.347245
    58  C   -0.039717
    59  H    0.169165
    60  C    0.598827
    61  C   -0.288265
    62  H    0.138268
    63  H    0.193088
    64  O   -0.623367
    65  C   -0.304420
    66  H    0.169238
    67  H    0.169485
    68  C   -0.151335
    69  H    0.165698
    70  H    0.158016
    71  N   -0.610298
    72  H    0.423418
    73  N   -0.759935
    74  H    0.367039
    75  H    0.374358
    76  N   -0.781087
    77  H    0.406381
    78  H    0.351605
    79  C    0.769822
    80  O   -0.559644
    81  H    0.430607
 Sum of Mulliken charges =   1.00000

 Dipole moment (field-independent basis, Debye):
    X=            -18.1899    Y=             -2.1958    Z=             -4.9520  Tot=             18.9794
 Quadrupole moment (field-independent basis, Debye-Ang):
   XX=           -131.6444   YY=           -221.7327   ZZ=            -16.2883
   XY=            -36.1058   XZ=            -35.1376   YZ=             42.5572

 Normal termination of Gaussian 16 at Thu May 26 18:08:01 2022.
