 Gaussian 16, Revision C.01,
 Gaussian 16:  ES64L-G16RevC.01  3-Jul-2019

 -------------------------------------------------------------------
 # B3LYP/6-31G* guess=read geom=check nosymm integral(ultrafinegrid)
 -------------------------------------------------------------------

 ------------------------------------------------------
 Candidate Structure: Conf:433 Charge calc in gas phase
 ------------------------------------------------------
 Structure from the checkpoint file:  "conf-433.chk"
 Charge =  1 Multiplicity = 1

                          Input orientation:
 ---------------------------------------------------------------------
 Center     Atomic      Atomic             Coordinates (Angstroms)
 Number     Number       Type             X           Y           Z
 ---------------------------------------------------------------------
      1          7           0       -3.229366    3.109424    3.348364
      2          1           0       -4.065471    2.692846    2.888268
      3          1           0       -3.059646    2.558345    4.195175
      4          1           0       -3.299364    4.116605    3.595832
      5          6           0       -2.110684    2.954173    2.346305
      6          1           0       -2.214505    3.821181    1.686688
      7          6           0       -2.508748    1.687681    1.541513
      8          6           0       -0.727837    2.961337    3.009255
      9          1           0       -0.535343    1.988396    3.476920
     10          1           0        0.014635    3.070101    2.211319
     11          8           0       -3.671780    1.276951    1.666163
     12          6           0       -0.495566    4.061999    4.080754
     13          1           0        0.575661    4.140421    4.275716
     14          1           0       -0.971281    3.780021    5.029439
     15          6           0       -1.052186    5.426847    3.724876
     16          8           0       -2.244808    5.655725    3.549944
     17          8           0       -0.121656    6.373179    3.633683
     18          7           0       -1.580217    1.160375    0.749274
     19          1           0       -0.631298    1.538085    0.730981
     20          6           0       -1.820294   -0.048157   -0.056220
     21          1           0       -2.485589   -0.693299    0.528255
     22          6           0       -0.435053   -0.729927   -0.135462
     23          6           0       -2.508849    0.324795   -1.388045
     24          1           0       -1.826302    0.963181   -1.962548
     25          1           0       -3.369357    0.954384   -1.127419
     26          8           0        0.317920   -0.645910    0.842821
     27          6           0       -2.945959   -0.839973   -2.236359
     28          6           0       -3.565006   -2.000201   -1.826219
     29          1           0       -3.847563   -2.327427   -0.834640
     30          6           0       -2.835994   -0.923667   -3.675000
     31          6           0       -3.403781   -2.165429   -4.067734
     32          6           0       -2.319818   -0.070206   -4.667914
     33          1           0       -1.890256    0.893507   -4.404501
     34          7           0       -3.838012   -2.794768   -2.918626
     35          1           0       -4.277210   -3.701902   -2.880064
     36          6           0       -2.942240   -1.711057   -6.359388
     37          1           0       -2.972628   -1.995411   -7.407082
     38          6           0       -3.463077   -2.573811   -5.404426
     39          1           0       -3.899973   -3.527927   -5.685818
     40          6           0       -2.376730   -0.470816   -5.995100
     41          1           0       -1.983946    0.180416   -6.770707
     42          7           0       -0.058712   -1.315869   -1.287554
     43          1           0       -0.676194   -1.357365   -2.094401
     44          6           0        1.328246   -1.738704   -1.501313
     45          1           0        1.720475   -2.086159   -0.540438
     46          6           0        2.150569   -0.504371   -1.972016
     47          6           0        1.380989   -2.863677   -2.551435
     48          1           0        2.443099   -3.075986   -2.739262
     49          8           0        2.654657   -0.454464   -3.096938
     50          6           0        0.685293   -4.138258   -2.091420
     51          1           0        1.151382   -4.533787   -1.182395
     52          1           0        0.756120   -4.894222   -2.878364
     53          1           0       -0.374932   -3.955544   -1.888779
     54          8           0        0.745199   -2.424142   -3.746141
     55          1           0        1.321542   -1.718431   -4.094248
     56          7           0        2.202045    0.496741   -1.061892
     57          1           0        1.748561    0.326965   -0.165824
     58          6           0        2.701953    1.851077   -1.280304
     59          1           0        3.794339    1.858740   -1.211130
     60          6           0        2.137084    2.737869   -0.157199
     61          6           0        2.266548    2.497811   -2.638278
     62          1           0        1.950719    3.531286   -2.446523
     63          1           0        1.378082    1.965460   -2.990279
     64          8           0        2.786377    3.843234    0.103257
     65          6           0        3.319536    2.525122   -3.755995
     66          1           0        3.676606    1.509230   -3.948515
     67          1           0        2.808657    2.854297   -4.670465
     68          6           0        4.507912    3.479958   -3.542011
     69          1           0        4.917683    3.753228   -4.522710
     70          1           0        4.191365    4.407363   -3.056545
     71          7           0        5.611151    2.936592   -2.748283
     72          1           0        6.178685    2.219986   -3.179313
     73          7           0        5.235853    4.078211   -0.755268
     74          1           0        5.738286    4.488812    0.028994
     75          1           0        3.722834    3.916123   -0.362135
     76          7           0        7.325104    3.042676   -1.216015
     77          1           0        8.016453    3.057789   -1.955257
     78          1           0        7.675398    3.355629   -0.321129
     79          6           0        6.031052    3.404910   -1.540079
     80          8           0        1.087122    2.457434    0.420130
     81          1           0       -0.565411    7.218946    3.421576
 ---------------------------------------------------------------------

 SCF Done:  E(RB3LYP) =  -2053.95415818     A.U. after    1 cycles

 Alpha  occ. eigenvalues --  -19.32350 -19.27389 -19.24712 -19.23875 -19.21967
 Alpha  occ. eigenvalues --  -19.20068 -19.19793 -19.19782 -14.57079 -14.46852
 Alpha  occ. eigenvalues --  -14.44661 -14.44571 -14.44475 -14.44428 -14.43289
 Alpha  occ. eigenvalues --  -14.39321 -10.45468 -10.41024 -10.40054 -10.38989
 Alpha  occ. eigenvalues --  -10.38471 -10.37632 -10.36621 -10.33094 -10.33065
 Alpha  occ. eigenvalues --  -10.32542 -10.31860 -10.30461 -10.30286 -10.30250
 Alpha  occ. eigenvalues --  -10.28947 -10.28038 -10.27875 -10.27239 -10.25846
 Alpha  occ. eigenvalues --  -10.25497 -10.24811 -10.24685 -10.24644 -10.24131
 Alpha  occ. eigenvalues --  -10.23858 -10.23575  -1.23646  -1.16984  -1.16401
 Alpha  occ. eigenvalues --   -1.14532  -1.12579  -1.11363  -1.11167  -1.08652
 Alpha  occ. eigenvalues --   -1.07666  -1.07472  -1.04510  -1.03514  -1.00855
 Alpha  occ. eigenvalues --   -0.99655  -0.98250  -0.94201  -0.93352  -0.89952
 Alpha  occ. eigenvalues --   -0.88990  -0.87553  -0.86532  -0.84592  -0.82816
 Alpha  occ. eigenvalues --   -0.82107  -0.79551  -0.78742  -0.78194  -0.77552
 Alpha  occ. eigenvalues --   -0.75760  -0.74951  -0.72978  -0.71858  -0.70617
 Alpha  occ. eigenvalues --   -0.70031  -0.69027  -0.68465  -0.68430  -0.67736
 Alpha  occ. eigenvalues --   -0.67384  -0.66229  -0.65276  -0.64772  -0.63839
 Alpha  occ. eigenvalues --   -0.63589  -0.63111  -0.63028  -0.62617  -0.61710
 Alpha  occ. eigenvalues --   -0.61094  -0.60249  -0.59821  -0.59262  -0.58420
 Alpha  occ. eigenvalues --   -0.57838  -0.57302  -0.56409  -0.56109  -0.55600
 Alpha  occ. eigenvalues --   -0.55499  -0.54824  -0.54445  -0.54249  -0.53814
 Alpha  occ. eigenvalues --   -0.53439  -0.53277  -0.53031  -0.52621  -0.52184
 Alpha  occ. eigenvalues --   -0.51818  -0.51282  -0.50508  -0.50161  -0.49751
 Alpha  occ. eigenvalues --   -0.49255  -0.49135  -0.49007  -0.48677  -0.48480
 Alpha  occ. eigenvalues --   -0.48415  -0.47803  -0.47786  -0.47418  -0.46862
 Alpha  occ. eigenvalues --   -0.46709  -0.45856  -0.45531  -0.44713  -0.44500
 Alpha  occ. eigenvalues --   -0.44469  -0.43841  -0.43621  -0.42950  -0.42752
 Alpha  occ. eigenvalues --   -0.42366  -0.41858  -0.41395  -0.41191  -0.39815
 Alpha  occ. eigenvalues --   -0.39324  -0.39080  -0.38774  -0.38289  -0.37649
 Alpha  occ. eigenvalues --   -0.36782  -0.35942  -0.35414  -0.35086  -0.34239
 Alpha  occ. eigenvalues --   -0.33633  -0.33194  -0.33079  -0.32230  -0.31549
 Alpha  occ. eigenvalues --   -0.28344  -0.26669
 Alpha virt. eigenvalues --   -0.12566  -0.09869  -0.08037  -0.07731  -0.07249
 Alpha virt. eigenvalues --   -0.07004  -0.04734  -0.04683  -0.03326  -0.03168
 Alpha virt. eigenvalues --   -0.02525  -0.01550  -0.00644  -0.00266   0.00497

 Mulliken charges:
               1
     1  N   -0.753333
     2  H    0.422253
     3  H    0.399345
     4  H    0.432402
     5  C   -0.129195
     6  H    0.231139
     7  C    0.649308
     8  C   -0.339685
     9  H    0.191126
    10  H    0.250738
    11  O   -0.554849
    12  C   -0.379572
    13  H    0.221891
    14  H    0.180953
    15  C    0.612420
    16  O   -0.498081
    17  O   -0.522048
    18  N   -0.634320
    19  H    0.421906
    20  C   -0.044296
    21  H    0.199881
    22  C    0.592854
    23  C   -0.346949
    24  H    0.152759
    25  H    0.181406
    26  O   -0.546260
    27  C   -0.000245
    28  C    0.009334
    29  H    0.158183
    30  C    0.081277
    31  C    0.325072
    32  C   -0.205311
    33  H    0.117974
    34  N   -0.688495
    35  H    0.338678
    36  C   -0.145994
    37  H    0.139122
    38  C   -0.153276
    39  H    0.136786
    40  C   -0.134811
    41  H    0.130447
    42  N   -0.608364
    43  H    0.381054
    44  C   -0.086640
    45  H    0.190154
    46  C    0.626933
    47  C    0.118169
    48  H    0.143962
    49  O   -0.543465
    50  C   -0.451435
    51  H    0.147223
    52  H    0.172933
    53  H    0.152632
    54  O   -0.640070
    55  H    0.416008
    56  N   -0.659857
    57  H    0.389592
    58  C   -0.010787
    59  H    0.187507
    60  C    0.565156
    61  C   -0.289516
    62  H    0.158113
    63  H    0.166007
    64  O   -0.599202
    65  C   -0.276376
    66  H    0.187430
    67  H    0.148215
    68  C   -0.144436
    69  H    0.163047
    70  H    0.182521
    71  N   -0.591913
    72  H    0.339183
    73  N   -0.756260
    74  H    0.302160
    75  H    0.475545
    76  N   -0.758661
    77  H    0.344488
    78  H    0.344072
    79  C    0.687287
    80  O   -0.508765
    81  H    0.435826
 Sum of Mulliken charges =   1.00000

 Dipole moment (field-independent basis, Debye):
    X=              2.5692    Y=             13.1669    Z=              5.4316  Tot=             14.4731
 Quadrupole moment (field-independent basis, Debye-Ang):
   XX=           -130.7560   YY=           -158.2899   ZZ=           -178.5063
   XY=             29.9177   XZ=            -39.5206   YZ=             36.2494

 Normal termination of Gaussian 16 at Thu May 26 18:08:05 2022.
