 Gaussian 16, Revision C.01,
 Gaussian 16:  ES64L-G16RevC.01  3-Jul-2019

 -------------------------------------------------------------------
 # B3LYP/6-31G* guess=read geom=check nosymm integral(ultrafinegrid)
 -------------------------------------------------------------------

 ------------------------------------------------------
 Candidate Structure: Conf:472 Charge calc in gas phase
 ------------------------------------------------------
 Structure from the checkpoint file:  "conf-472.chk"
 Charge =  1 Multiplicity = 1

                          Input orientation:
 ---------------------------------------------------------------------
 Center     Atomic      Atomic             Coordinates (Angstroms)
 Number     Number       Type             X           Y           Z
 ---------------------------------------------------------------------
      1          7           0       -5.307048    2.339210    2.267604
      2          1           0       -5.602943    2.590920    1.301544
      3          1           0       -5.485616    1.316940    2.392332
      4          1           0       -5.834337    2.897215    2.944733
      5          6           0       -3.805112    2.466553    2.413537
      6          1           0       -3.491995    3.289350    1.767518
      7          6           0       -3.314361    1.099133    1.874578
      8          6           0       -3.399073    2.751399    3.867432
      9          1           0       -2.312431    2.898252    3.866387
     10          1           0       -3.833984    3.709921    4.175264
     11          8           0       -4.048166    0.122268    2.066656
     12          6           0       -3.767535    1.655115    4.885987
     13          1           0       -3.286428    0.705338    4.648448
     14          1           0       -4.852389    1.482924    4.901420
     15          6           0       -3.353614    2.038409    6.298005
     16          8           0       -2.622823    1.394517    7.008010
     17          8           0       -3.922228    3.212932    6.669710
     18          7           0       -2.156618    1.107805    1.217117
     19          1           0       -1.547999    1.927451    1.182827
     20          6           0       -1.577687   -0.031560    0.511671
     21          1           0       -1.844463   -0.949160    1.042755
     22          6           0       -0.056049    0.230552    0.526738
     23          6           0       -2.085078   -0.103122   -0.964501
     24          1           0       -1.608273   -0.970946   -1.434515
     25          1           0       -1.705327    0.781561   -1.490352
     26          8           0        0.350961    1.389803    0.643945
     27          6           0       -3.578830   -0.194764   -1.089433
     28          6           0       -4.320567   -1.349181   -1.147472
     29          1           0       -3.988746   -2.377706   -1.194362
     30          6           0       -4.530584    0.889533   -1.052833
     31          6           0       -5.834570    0.308226   -1.058606
     32          6           0       -4.422275    2.291240   -1.004790
     33          1           0       -3.448000    2.771166   -1.051585
     34          7           0       -5.667578   -1.054265   -1.126729
     35          1           0       -6.410342   -1.734576   -1.190157
     36          6           0       -6.861473    2.460053   -0.898263
     37          1           0       -7.748568    3.085510   -0.855986
     38          6           0       -7.000903    1.076889   -0.977404
     39          1           0       -7.983885    0.614152   -0.983520
     40          6           0       -5.581532    3.065519   -0.919963
     41          1           0       -5.506185    4.150137   -0.924360
     42          7           0        0.721773   -0.850126    0.371068
     43          1           0        0.331799   -1.786164    0.306833
     44          6           0        2.180981   -0.822428    0.311938
     45          1           0        2.529511    0.058910    0.855537
     46          6           0        2.658369   -0.805338   -1.153498
     47          6           0        2.688324   -2.139362    0.968821
     48          1           0        3.761076   -2.228644    0.740479
     49          8           0        2.439288   -1.789983   -1.880692
     50          6           0        2.493982   -2.173256    2.478078
     51          1           0        3.083862   -1.389419    2.964782
     52          1           0        2.817152   -3.144137    2.864274
     53          1           0        1.440574   -2.035159    2.744182
     54          8           0        1.967006   -3.229301    0.402134
     55          1           0        2.120107   -3.155330   -0.566442
     56          7           0        3.334640    0.279606   -1.545023
     57          1           0        3.521388    1.071904   -0.928599
     58          6           0        4.042061    0.402831   -2.816863
     59          1           0        4.559311   -0.540720   -3.021232
     60          6           0        5.090831    1.539434   -2.594696
     61          6           0        3.032926    0.678752   -3.974897
     62          1           0        2.728054    1.733727   -3.943035
     63          1           0        2.144516    0.090814   -3.728347
     64          8           0        6.059317    1.565608   -3.434119
     65          6           0        3.461072    0.272190   -5.410097
     66          1           0        4.241483   -0.498448   -5.367476
     67          1           0        2.607913   -0.199702   -5.911232
     68          6           0        3.930864    1.400850   -6.341930
     69          1           0        4.087133    0.991412   -7.349447
     70          1           0        3.160079    2.179930   -6.415507
     71          7           0        5.172215    1.982336   -5.832562
     72          1           0        5.573201    1.528394   -4.972506
     73          7           0        5.056572    4.044362   -6.925256
     74          1           0        5.373026    4.999799   -7.003585
     75          1           0        4.747417    3.607796   -7.781500
     76          7           0        6.358475    3.752439   -4.997638
     77          1           0        6.501774    3.163618   -4.152170
     78          1           0        6.817573    4.643532   -5.106837
     79          6           0        5.536746    3.257869   -5.927859
     80          8           0        4.895263    2.319398   -1.653356
     81          1           0       -3.622128    3.397544    7.580786
 ---------------------------------------------------------------------

 SCF Done:  E(RB3LYP) =  -2053.94512934     A.U. after    1 cycles

 Alpha  occ. eigenvalues --  -19.29025 -19.25083 -19.23265 -19.20833 -19.19709
 Alpha  occ. eigenvalues --  -19.17618 -19.14492 -19.13596 -14.58580 -14.48479
 Alpha  occ. eigenvalues --  -14.48108 -14.46642 -14.44756 -14.43974 -14.43105
 Alpha  occ. eigenvalues --  -14.41084 -10.42325 -10.41716 -10.41215 -10.39701
 Alpha  occ. eigenvalues --  -10.38031 -10.34616 -10.34091 -10.33681 -10.32560
 Alpha  occ. eigenvalues --  -10.31914 -10.31868 -10.31694 -10.30407 -10.30399
 Alpha  occ. eigenvalues --  -10.30039 -10.29804 -10.29762 -10.29754 -10.29525
 Alpha  occ. eigenvalues --  -10.29422 -10.29121 -10.28261 -10.27243 -10.25911
 Alpha  occ. eigenvalues --  -10.24798 -10.23544  -1.19783  -1.17669  -1.12998
 Alpha  occ. eigenvalues --   -1.12439  -1.10957  -1.09989  -1.09669  -1.08133
 Alpha  occ. eigenvalues --   -1.07424  -1.06923  -1.05021  -1.00894  -0.99853
 Alpha  occ. eigenvalues --   -0.98573  -0.97897  -0.97080  -0.94752  -0.93890
 Alpha  occ. eigenvalues --   -0.90822  -0.87842  -0.85970  -0.85524  -0.84356
 Alpha  occ. eigenvalues --   -0.83781  -0.82135  -0.80265  -0.78398  -0.77805
 Alpha  occ. eigenvalues --   -0.75983  -0.73653  -0.72909  -0.72648  -0.71700
 Alpha  occ. eigenvalues --   -0.71298  -0.70888  -0.70086  -0.69704  -0.68277
 Alpha  occ. eigenvalues --   -0.67442  -0.66774  -0.66265  -0.65775  -0.64664
 Alpha  occ. eigenvalues --   -0.63975  -0.63826  -0.63308  -0.61668  -0.61050
 Alpha  occ. eigenvalues --   -0.59676  -0.59326  -0.58957  -0.58623  -0.58341
 Alpha  occ. eigenvalues --   -0.58034  -0.57700  -0.57338  -0.57163  -0.56412
 Alpha  occ. eigenvalues --   -0.55979  -0.55486  -0.54411  -0.54224  -0.53994
 Alpha  occ. eigenvalues --   -0.53734  -0.53581  -0.53122  -0.52790  -0.52392
 Alpha  occ. eigenvalues --   -0.52309  -0.51637  -0.51005  -0.50496  -0.49907
 Alpha  occ. eigenvalues --   -0.49596  -0.49384  -0.49120  -0.48957  -0.48295
 Alpha  occ. eigenvalues --   -0.48114  -0.48008  -0.47872  -0.47393  -0.47027
 Alpha  occ. eigenvalues --   -0.46405  -0.45871  -0.45419  -0.45163  -0.44421
 Alpha  occ. eigenvalues --   -0.44303  -0.44195  -0.43796  -0.43568  -0.42581
 Alpha  occ. eigenvalues --   -0.41889  -0.41271  -0.41177  -0.40487  -0.39669
 Alpha  occ. eigenvalues --   -0.39426  -0.39252  -0.38664  -0.37699  -0.37189
 Alpha  occ. eigenvalues --   -0.36696  -0.35281  -0.35112  -0.33786  -0.33226
 Alpha  occ. eigenvalues --   -0.33080  -0.31601  -0.30794  -0.30426  -0.29567
 Alpha  occ. eigenvalues --   -0.28876  -0.27869
 Alpha virt. eigenvalues --   -0.12144  -0.11593  -0.09613  -0.08752  -0.08131
 Alpha virt. eigenvalues --   -0.07026  -0.05956  -0.04305  -0.03952  -0.03094
 Alpha virt. eigenvalues --   -0.02918  -0.02702  -0.01160  -0.01059  -0.00289

 Mulliken charges:
               1
     1  N   -0.763001
     2  H    0.419974
     3  H    0.423954
     4  H    0.403521
     5  C   -0.115063
     6  H    0.203985
     7  C    0.682803
     8  C   -0.306728
     9  H    0.205983
    10  H    0.193956
    11  O   -0.546071
    12  C   -0.357462
    13  H    0.215378
    14  H    0.163829
    15  C    0.573437
    16  O   -0.422311
    17  O   -0.567163
    18  N   -0.612646
    19  H    0.366699
    20  C   -0.064573
    21  H    0.189857
    22  C    0.636132
    23  C   -0.362368
    24  H    0.179498
    25  H    0.172886
    26  O   -0.541949
    27  C    0.084521
    28  C    0.027084
    29  H    0.178396
    30  C    0.073479
    31  C    0.326137
    32  C   -0.236846
    33  H    0.144717
    34  N   -0.682681
    35  H    0.347986
    36  C   -0.176089
    37  H    0.155181
    38  C   -0.163262
    39  H    0.155650
    40  C   -0.217805
    41  H    0.150061
    42  N   -0.592225
    43  H    0.350815
    44  C   -0.097942
    45  H    0.179387
    46  C    0.650686
    47  C    0.115551
    48  H    0.149339
    49  O   -0.579334
    50  C   -0.447994
    51  H    0.153716
    52  H    0.177748
    53  H    0.140809
    54  O   -0.652474
    55  H    0.423419
    56  N   -0.609714
    57  H    0.364639
    58  C   -0.043855
    59  H    0.169293
    60  C    0.592463
    61  C   -0.274940
    62  H    0.141239
    63  H    0.168878
    64  O   -0.639404
    65  C   -0.304288
    66  H    0.171733
    67  H    0.156774
    68  C   -0.142864
    69  H    0.159619
    70  H    0.158978
    71  N   -0.612558
    72  H    0.412998
    73  N   -0.754673
    74  H    0.360269
    75  H    0.368341
    76  N   -0.776473
    77  H    0.420643
    78  H    0.348216
    79  C    0.768141
    80  O   -0.543072
    81  H    0.429031
 Sum of Mulliken charges =   1.00000

 Dipole moment (field-independent basis, Debye):
    X=            -16.0069    Y=             14.1048    Z=             -5.5800  Tot=             22.0523
 Quadrupole moment (field-independent basis, Debye-Ang):
   XX=            -96.6688   YY=           -180.2963   ZZ=           -115.5595
   XY=             -1.2054   XZ=            -95.3316   YZ=            -20.7716

 Normal termination of Gaussian 16 at Thu May 26 18:08:00 2022.
