 Gaussian 16, Revision C.01,
 Gaussian 16:  ES64L-G16RevC.01  3-Jul-2019

 -------------------------------------------------------------------
 # B3LYP/6-31G* guess=read geom=check nosymm integral(ultrafinegrid)
 -------------------------------------------------------------------

 ------------------------------------------------------
 Candidate Structure: Conf:669 Charge calc in gas phase
 ------------------------------------------------------
 Structure from the checkpoint file:  "conf-669.chk"
 Charge =  1 Multiplicity = 1

                          Input orientation:
 ---------------------------------------------------------------------
 Center     Atomic      Atomic             Coordinates (Angstroms)
 Number     Number       Type             X           Y           Z
 ---------------------------------------------------------------------
      1          7           0       -5.047140   -0.446346    3.599485
      2          1           0       -5.740212    0.266567    3.846899
      3          1           0       -5.222239   -0.753658    2.596501
      4          1           0       -5.133521   -1.230717    4.252570
      5          6           0       -3.633049    0.099733    3.507671
      6          1           0       -3.579942    1.017961    4.098270
      7          6           0       -3.489534    0.363357    1.982945
      8          6           0       -2.654148   -0.968577    4.027391
      9          1           0       -2.965736   -1.268797    5.035764
     10          1           0       -2.722607   -1.860749    3.394043
     11          8           0       -4.270278   -0.243872    1.233801
     12          6           0       -1.194889   -0.502574    4.092096
     13          1           0       -1.084931    0.408327    4.694360
     14          1           0       -0.783515   -0.282355    3.101405
     15          6           0       -0.329335   -1.587725    4.710374
     16          8           0       -0.730839   -2.676364    5.054300
     17          8           0        0.945935   -1.177311    4.826389
     18          7           0       -2.525984    1.193685    1.600800
     19          1           0       -1.889818    1.607796    2.277953
     20          6           0       -2.079606    1.363805    0.209469
     21          1           0       -2.557855    0.584452   -0.386891
     22          6           0       -0.553378    1.164004    0.279768
     23          6           0       -2.466957    2.760512   -0.343213
     24          1           0       -2.005555    3.523243    0.295397
     25          1           0       -3.555521    2.858856   -0.236825
     26          8           0        0.063008    1.631939    1.246162
     27          6           0       -2.024462    2.924464   -1.762068
     28          6           0       -0.947138    3.664048   -2.199169
     29          1           0       -0.274390    4.294347   -1.631546
     30          6           0       -2.548900    2.247601   -2.923598
     31          6           0       -1.725975    2.636597   -4.020278
     32          6           0       -3.611855    1.352287   -3.152299
     33          1           0       -4.276586    1.055425   -2.342822
     34          7           0       -0.781625    3.525451   -3.552630
     35          1           0        0.131116    3.685723   -4.007909
     36          6           0       -2.974295    1.246196   -5.504679
     37          1           0       -3.160210    0.846202   -6.497603
     38          6           0       -1.925193    2.138967   -5.314236
     39          1           0       -1.279997    2.445232   -6.133169
     40          6           0       -3.812700    0.860947   -4.436753
     41          1           0       -4.632945    0.173929   -4.626991
     42          7           0        0.019183    0.441744   -0.702847
     43          1           0       -0.547777    0.166652   -1.495672
     44          6           0        1.448146    0.098754   -0.690907
     45          1           0        1.981375    0.989945   -0.334777
     46          6           0        1.913207   -0.197540   -2.135637
     47          6           0        1.762858   -1.078538    0.277532
     48          1           0        1.413223   -2.005720   -0.185776
     49          8           0        2.388361   -1.321899   -2.432544
     50          6           0        3.262342   -1.172529    0.566925
     51          1           0        3.838849   -1.337042   -0.347156
     52          1           0        3.448136   -2.000838    1.257052
     53          1           0        3.622148   -0.250789    1.042160
     54          8           0        1.021670   -0.968291    1.490172
     55          1           0        1.164564   -0.069375    1.835377
     56          7           0        1.759385    0.785144   -3.013812
     57          1           0        1.535003    1.759244   -2.762747
     58          6           0        2.146382    0.728805   -4.426097
     59          1           0        3.209719    0.457388   -4.471176
     60          6           0        2.022167    2.188335   -5.007430
     61          6           0        1.279705   -0.271388   -5.224630
     62          1           0        0.359719    0.230134   -5.539247
     63          1           0        0.973238   -1.095544   -4.569207
     64          8           0        2.127982    2.276728   -6.235956
     65          6           0        1.965450   -0.849299   -6.472512
     66          1           0        1.290064   -1.578929   -6.936029
     67          1           0        2.136138   -0.037317   -7.184942
     68          6           0        3.325159   -1.523250   -6.193937
     69          1           0        3.581211   -2.208515   -7.007205
     70          1           0        4.123858   -0.777017   -6.143808
     71          7           0        3.326638   -2.249488   -4.912477
     72          1           0        3.040891   -1.705827   -4.081726
     73          7           0        3.996565   -4.398876   -5.578537
     74          1           0        3.793888   -5.384580   -5.495701
     75          1           0        4.279857   -4.069338   -6.488906
     76          7           0        3.131921   -4.020825   -3.458240
     77          1           0        2.788439   -3.345700   -2.777515
     78          1           0        3.623901   -4.824717   -3.093354
     79          6           0        3.487795   -3.536637   -4.672343
     80          8           0        1.808546    3.079976   -4.127078
     81          1           0        1.456247   -1.920369    5.201920
 ---------------------------------------------------------------------

 SCF Done:  E(RB3LYP) =  -2053.92201632     A.U. after    1 cycles

 Alpha  occ. eigenvalues --  -19.29137 -19.27145 -19.23809 -19.22476 -19.22378
 Alpha  occ. eigenvalues --  -19.22126 -19.12617 -19.11397 -14.60699 -14.50147
 Alpha  occ. eigenvalues --  -14.49426 -14.48100 -14.47842 -14.46835 -14.43676
 Alpha  occ. eigenvalues --  -14.40806 -10.44971 -10.44051 -10.42277 -10.41522
 Alpha  occ. eigenvalues --  -10.39485 -10.38543 -10.34347 -10.34219 -10.32926
 Alpha  occ. eigenvalues --  -10.32415 -10.32414 -10.32120 -10.30458 -10.28088
 Alpha  occ. eigenvalues --  -10.27912 -10.26895 -10.26333 -10.25760 -10.25368
 Alpha  occ. eigenvalues --  -10.25018 -10.23980 -10.23896 -10.23712 -10.23451
 Alpha  occ. eigenvalues --  -10.23292 -10.23225  -1.20230  -1.19697  -1.14658
 Alpha  occ. eigenvalues --   -1.14183  -1.13594  -1.12685  -1.11442  -1.09909
 Alpha  occ. eigenvalues --   -1.06530  -1.05608  -1.02925  -1.02737  -1.02012
 Alpha  occ. eigenvalues --   -1.01610  -0.99909  -0.96853  -0.95035  -0.89884
 Alpha  occ. eigenvalues --   -0.88491  -0.87509  -0.86963  -0.86114  -0.82986
 Alpha  occ. eigenvalues --   -0.81927  -0.79548  -0.79362  -0.78159  -0.77445
 Alpha  occ. eigenvalues --   -0.76367  -0.74707  -0.74190  -0.74077  -0.73469
 Alpha  occ. eigenvalues --   -0.72096  -0.70567  -0.69996  -0.69501  -0.68937
 Alpha  occ. eigenvalues --   -0.68726  -0.67037  -0.66816  -0.65986  -0.64206
 Alpha  occ. eigenvalues --   -0.63967  -0.63757  -0.63403  -0.62483  -0.61680
 Alpha  occ. eigenvalues --   -0.61459  -0.60624  -0.59704  -0.59355  -0.58714
 Alpha  occ. eigenvalues --   -0.58394  -0.58002  -0.57634  -0.57551  -0.56906
 Alpha  occ. eigenvalues --   -0.56395  -0.54933  -0.54617  -0.54274  -0.53965
 Alpha  occ. eigenvalues --   -0.53469  -0.53305  -0.53081  -0.52327  -0.52103
 Alpha  occ. eigenvalues --   -0.51645  -0.51515  -0.51078  -0.50831  -0.50628
 Alpha  occ. eigenvalues --   -0.50012  -0.49909  -0.48846  -0.48261  -0.48145
 Alpha  occ. eigenvalues --   -0.48006  -0.47879  -0.47053  -0.46484  -0.46410
 Alpha  occ. eigenvalues --   -0.45953  -0.45724  -0.45124  -0.44972  -0.44390
 Alpha  occ. eigenvalues --   -0.43516  -0.43152  -0.42136  -0.42071  -0.41808
 Alpha  occ. eigenvalues --   -0.41652  -0.41354  -0.40897  -0.40513  -0.40328
 Alpha  occ. eigenvalues --   -0.39796  -0.39619  -0.38383  -0.37818  -0.37601
 Alpha  occ. eigenvalues --   -0.37079  -0.36774  -0.36547  -0.36054  -0.34604
 Alpha  occ. eigenvalues --   -0.33658  -0.32460  -0.27975  -0.27651  -0.26961
 Alpha  occ. eigenvalues --   -0.25667  -0.25291
 Alpha virt. eigenvalues --   -0.12867  -0.11485  -0.09380  -0.08774  -0.08420
 Alpha virt. eigenvalues --   -0.07997  -0.06853  -0.06265  -0.05362  -0.05194
 Alpha virt. eigenvalues --   -0.02695  -0.02212  -0.01799  -0.01527  -0.00909

 Mulliken charges:
               1
     1  N   -0.753562
     2  H    0.419081
     3  H    0.434585
     4  H    0.416715
     5  C   -0.121046
     6  H    0.211634
     7  C    0.651017
     8  C   -0.288015
     9  H    0.186699
    10  H    0.203127
    11  O   -0.535035
    12  C   -0.401112
    13  H    0.189646
    14  H    0.223848
    15  C    0.611543
    16  O   -0.453795
    17  O   -0.557841
    18  N   -0.587813
    19  H    0.367186
    20  C   -0.081035
    21  H    0.198384
    22  C    0.670021
    23  C   -0.346495
    24  H    0.162090
    25  H    0.162534
    26  O   -0.576695
    27  C    0.036827
    28  C   -0.011450
    29  H    0.158208
    30  C    0.070962
    31  C    0.282174
    32  C   -0.231336
    33  H    0.112445
    34  N   -0.664838
    35  H    0.391759
    36  C   -0.158995
    37  H    0.131281
    38  C   -0.174185
    39  H    0.168314
    40  C   -0.139464
    41  H    0.122316
    42  N   -0.601700
    43  H    0.360531
    44  C   -0.082363
    45  H    0.192964
    46  C    0.610670
    47  C    0.171409
    48  H    0.139302
    49  O   -0.602691
    50  C   -0.471003
    51  H    0.161347
    52  H    0.162633
    53  H    0.151456
    54  O   -0.653476
    55  H    0.412616
    56  N   -0.587399
    57  H    0.371469
    58  C   -0.075116
    59  H    0.148616
    60  C    0.593782
    61  C   -0.293624
    62  H    0.183424
    63  H    0.126364
    64  O   -0.549428
    65  C   -0.265513
    66  H    0.139443
    67  H    0.213133
    68  C   -0.181370
    69  H    0.150189
    70  H    0.205887
    71  N   -0.621795
    72  H    0.430377
    73  N   -0.754567
    74  H    0.373925
    75  H    0.379098
    76  N   -0.776761
    77  H    0.404215
    78  H    0.361184
    79  C    0.769008
    80  O   -0.623695
    81  H    0.427773
 Sum of Mulliken charges =   1.00000

 Dipole moment (field-independent basis, Debye):
    X=             -6.4340    Y=            -15.1926    Z=              8.4009  Tot=             18.5145
 Quadrupole moment (field-independent basis, Debye-Ang):
   XX=           -131.6004   YY=           -212.3687   ZZ=           -154.4384
   XY=            -51.5741   XZ=            -97.4183   YZ=             89.1785

 Normal termination of Gaussian 16 at Thu May 26 18:08:05 2022.
