 Gaussian 16, Revision C.01,
 Gaussian 16:  ES64L-G16RevC.01  3-Jul-2019

 -------------------------------------------------------------------
 # B3LYP/6-31G* guess=read geom=check nosymm integral(ultrafinegrid)
 -------------------------------------------------------------------

 ------------------------------------------------------
 Candidate Structure: Conf:122 Charge calc in gas phase
 ------------------------------------------------------
 Structure from the checkpoint file:  "conf-122.chk"
 Charge =  1 Multiplicity = 1

                          Input orientation:
 ---------------------------------------------------------------------
 Center     Atomic      Atomic             Coordinates (Angstroms)
 Number     Number       Type             X           Y           Z
 ---------------------------------------------------------------------
      1          7           0       -2.278579   -1.580945    2.899288
      2          1           0       -2.941584   -2.341667    3.070668
      3          1           0       -1.864022   -1.689554    1.921485
      4          1           0       -1.546793   -1.614303    3.614542
      5          6           0       -2.941344   -0.217546    2.791373
      6          1           0       -3.954314   -0.288435    3.185981
      7          6           0       -2.935060    0.020726    1.256268
      8          6           0       -2.090261    0.793333    3.594981
      9          1           0       -2.087611    0.457636    4.640681
     10          1           0       -1.063000    0.750915    3.212374
     11          8           0       -2.211577   -0.718519    0.568812
     12          6           0       -2.498973    2.279688    3.548292
     13          1           0       -2.369655    2.669869    2.530431
     14          1           0       -1.812754    2.837038    4.189647
     15          6           0       -3.904688    2.645613    3.984997
     16          8           0       -4.204938    3.546681    4.721997
     17          8           0       -4.841650    1.859546    3.359495
     18          7           0       -3.687140    1.014644    0.789566
     19          1           0       -4.281240    1.518426    1.444819
     20          6           0       -3.514238    1.548128   -0.573322
     21          1           0       -3.526146    0.699045   -1.262845
     22          6           0       -2.136676    2.249597   -0.571423
     23          6           0       -4.641219    2.545346   -0.918542
     24          1           0       -4.536223    2.786653   -1.982976
     25          1           0       -4.437952    3.474562   -0.376091
     26          8           0       -1.977686    3.286835    0.086720
     27          6           0       -6.026746    2.052635   -0.603152
     28          6           0       -6.744195    1.084297   -1.265771
     29          1           0       -6.493158    0.524076   -2.156690
     30          6           0       -6.849605    2.477514    0.505057
     31          6           0       -8.045586    1.708513    0.462685
     32          6           0       -6.705356    3.445169    1.519138
     33          1           0       -5.830408    4.090439    1.551804
     34          7           0       -7.947523    0.868733   -0.626378
     35          1           0       -8.674746    0.250864   -0.954165
     36          6           0       -8.881506    2.794938    2.414869
     37          1           0       -9.656403    2.937308    3.162054
     38          6           0       -9.066780    1.855104    1.409400
     39          1           0       -9.973870    1.259170    1.358923
     40          6           0       -7.713351    3.588799    2.468304
     41          1           0       -7.619086    4.346641    3.241318
     42          7           0       -1.160401    1.628701   -1.250024
     43          1           0       -1.309511    0.724777   -1.689568
     44          6           0        0.236197    2.036362   -1.196982
     45          1           0        0.279566    3.129453   -1.256597
     46          6           0        0.904530    1.379414   -2.420790
     47          6           0        0.921832    1.567800    0.131438
     48          1           0        1.041705    0.479398    0.075965
     49          8           0        0.480821    0.296726   -2.832676
     50          6           0        2.276175    2.238037    0.360301
     51          1           0        3.001281    2.014971   -0.428129
     52          1           0        2.691142    1.893923    1.312097
     53          1           0        2.162147    3.327856    0.420307
     54          8           0        0.057357    1.789272    1.250858
     55          1           0       -0.354175    2.665713    1.129882
     56          7           0        1.937117    2.052152   -2.964929
     57          1           0        2.324961    2.861639   -2.486748
     58          6           0        2.862914    1.464406   -3.927485
     59          1           0        2.797241    0.376263   -3.838116
     60          6           0        4.279238    1.896266   -3.507241
     61          6           0        2.563061    1.889855   -5.386524
     62          1           0        3.478619    1.806949   -5.981112
     63          1           0        2.291492    2.951837   -5.378694
     64          8           0        5.270149    1.286963   -4.134510
     65          6           0        1.455408    1.065090   -6.054523
     66          1           0        0.561147    1.046511   -5.420514
     67          1           0        1.167438    1.552925   -6.995674
     68          6           0        1.851573   -0.390872   -6.348856
     69          1           0        2.159199   -0.907524   -5.437127
     70          1           0        0.976188   -0.925769   -6.737940
     71          7           0        2.933162   -0.546348   -7.315373
     72          1           0        2.731573   -0.335188   -8.282707
     73          7           0        4.706240   -0.761163   -5.810202
     74          1           0        5.616039   -1.217343   -5.746803
     75          1           0        4.940583    0.558067   -4.760819
     76          7           0        4.961526   -1.250349   -8.129362
     77          1           0        4.499393   -1.849131   -8.802502
     78          1           0        5.928759   -1.494059   -7.965293
     79          6           0        4.229338   -0.860660   -7.018112
     80          8           0        4.454738    2.757923   -2.664311
     81          1           0       -5.728415    2.263496    3.488561
 ---------------------------------------------------------------------

 SCF Done:  E(RB3LYP) =  -2053.94072498     A.U. after    1 cycles

 Alpha  occ. eigenvalues --  -19.30418 -19.26566 -19.24351 -19.22793 -19.22532
 Alpha  occ. eigenvalues --  -19.21323 -19.20039 -19.18600 -14.59556 -14.49051
 Alpha  occ. eigenvalues --  -14.46758 -14.45589 -14.43805 -14.42866 -14.42731
 Alpha  occ. eigenvalues --  -14.37116 -10.43085 -10.42621 -10.40141 -10.38587
 Alpha  occ. eigenvalues --  -10.37283 -10.37021 -10.36968 -10.34431 -10.33814
 Alpha  occ. eigenvalues --  -10.32631 -10.32170 -10.31465 -10.30744 -10.30507
 Alpha  occ. eigenvalues --  -10.30171 -10.29097 -10.28946 -10.27376 -10.27310
 Alpha  occ. eigenvalues --  -10.27269 -10.27192 -10.26773 -10.26646 -10.25659
 Alpha  occ. eigenvalues --  -10.25289 -10.24831  -1.20656  -1.18949  -1.14284
 Alpha  occ. eigenvalues --   -1.13691  -1.13185  -1.12079  -1.11746  -1.09843
 Alpha  occ. eigenvalues --   -1.06633  -1.06314  -1.05766  -1.05722  -1.01785
 Alpha  occ. eigenvalues --   -1.00328  -0.96598  -0.94009  -0.92385  -0.92163
 Alpha  occ. eigenvalues --   -0.90230  -0.87522  -0.86864  -0.85627  -0.84600
 Alpha  occ. eigenvalues --   -0.82085  -0.81031  -0.80688  -0.79023  -0.78804
 Alpha  occ. eigenvalues --   -0.75571  -0.74378  -0.73607  -0.72944  -0.72032
 Alpha  occ. eigenvalues --   -0.70751  -0.69663  -0.69470  -0.68531  -0.68245
 Alpha  occ. eigenvalues --   -0.67690  -0.67195  -0.66293  -0.65697  -0.65116
 Alpha  occ. eigenvalues --   -0.64107  -0.63159  -0.62602  -0.62334  -0.61673
 Alpha  occ. eigenvalues --   -0.60614  -0.59943  -0.59849  -0.59499  -0.58709
 Alpha  occ. eigenvalues --   -0.58387  -0.57977  -0.56964  -0.56622  -0.55725
 Alpha  occ. eigenvalues --   -0.55521  -0.55213  -0.55037  -0.53815  -0.53795
 Alpha  occ. eigenvalues --   -0.53495  -0.52850  -0.52692  -0.52052  -0.51829
 Alpha  occ. eigenvalues --   -0.51611  -0.51509  -0.51080  -0.50930  -0.50695
 Alpha  occ. eigenvalues --   -0.50292  -0.49724  -0.49527  -0.49420  -0.49084
 Alpha  occ. eigenvalues --   -0.48465  -0.48348  -0.47817  -0.47579  -0.47269
 Alpha  occ. eigenvalues --   -0.46924  -0.46293  -0.45610  -0.45488  -0.45256
 Alpha  occ. eigenvalues --   -0.44898  -0.44576  -0.43650  -0.43167  -0.42833
 Alpha  occ. eigenvalues --   -0.42195  -0.42024  -0.41825  -0.41694  -0.41172
 Alpha  occ. eigenvalues --   -0.41078  -0.40693  -0.39495  -0.37710  -0.36210
 Alpha  occ. eigenvalues --   -0.36072  -0.35849  -0.35644  -0.35429  -0.34466
 Alpha  occ. eigenvalues --   -0.33734  -0.33358  -0.33078  -0.32267  -0.30985
 Alpha  occ. eigenvalues --   -0.30506  -0.28972
 Alpha virt. eigenvalues --   -0.12091  -0.11036  -0.09915  -0.09313  -0.08298
 Alpha virt. eigenvalues --   -0.06410  -0.06170  -0.05842  -0.03900  -0.03459
 Alpha virt. eigenvalues --   -0.03143  -0.02901  -0.01167  -0.00929  -0.00231

 Mulliken charges:
               1
     1  N   -0.759853
     2  H    0.413759
     3  H    0.435196
     4  H    0.413202
     5  C   -0.107970
     6  H    0.230129
     7  C    0.655033
     8  C   -0.316642
     9  H    0.175445
    10  H    0.217325
    11  O   -0.547294
    12  C   -0.389888
    13  H    0.223563
    14  H    0.213350
    15  C    0.584889
    16  O   -0.414551
    17  O   -0.609758
    18  N   -0.608159
    19  H    0.396821
    20  C   -0.038174
    21  H    0.174626
    22  C    0.649540
    23  C   -0.408092
    24  H    0.182807
    25  H    0.194850
    26  O   -0.570039
    27  C    0.061546
    28  C    0.005558
    29  H    0.163648
    30  C    0.077809
    31  C    0.314351
    32  C   -0.260579
    33  H    0.147823
    34  N   -0.685031
    35  H    0.342396
    36  C   -0.149695
    37  H    0.150052
    38  C   -0.157725
    39  H    0.144902
    40  C   -0.174471
    41  H    0.155903
    42  N   -0.583514
    43  H    0.364901
    44  C   -0.101665
    45  H    0.179586
    46  C    0.616904
    47  C    0.158883
    48  H    0.146571
    49  O   -0.547802
    50  C   -0.477452
    51  H    0.179506
    52  H    0.167191
    53  H    0.153465
    54  O   -0.666090
    55  H    0.419526
    56  N   -0.599344
    57  H    0.358858
    58  C   -0.095170
    59  H    0.197186
    60  C    0.608983
    61  C   -0.267131
    62  H    0.165522
    63  H    0.156430
    64  O   -0.606644
    65  C   -0.269397
    66  H    0.161943
    67  H    0.137324
    68  C   -0.140364
    69  H    0.192092
    70  H    0.153305
    71  N   -0.593323
    72  H    0.332821
    73  N   -0.742062
    74  H    0.297766
    75  H    0.474223
    76  N   -0.757995
    77  H    0.338299
    78  H    0.341778
    79  C    0.669131
    80  O   -0.484173
    81  H    0.433329
 Sum of Mulliken charges =   1.00000

 Dipole moment (field-independent basis, Debye):
    X=            -13.5219    Y=             -7.0918    Z=             -1.8683  Tot=             15.3826
 Quadrupole moment (field-independent basis, Debye-Ang):
   XX=           -140.1265   YY=           -237.5992   ZZ=           -109.9998
   XY=            -10.0411   XZ=            -54.0593   YZ=             -0.6639

 Normal termination of Gaussian 16 at Thu May 26 18:08:04 2022.
