 Gaussian 16, Revision C.01,
 Gaussian 16:  ES64L-G16RevC.01  3-Jul-2019

 -------------------------------------------------------------------
 # B3LYP/6-31G* guess=read geom=check nosymm integral(ultrafinegrid)
 -------------------------------------------------------------------

 ------------------------------------------------------
 Candidate Structure: Conf:156 Charge calc in gas phase
 ------------------------------------------------------
 Structure from the checkpoint file:  "conf-156.chk"
 Charge =  1 Multiplicity = 1

                          Input orientation:
 ---------------------------------------------------------------------
 Center     Atomic      Atomic             Coordinates (Angstroms)
 Number     Number       Type             X           Y           Z
 ---------------------------------------------------------------------
      1          7           0       -5.145277    1.399273    3.826435
      2          1           0       -5.850992    2.138774    3.758253
      3          1           0       -5.375354    0.642984    3.110718
      4          1           0       -5.147549    1.028281    4.780765
      5          6           0       -3.771590    1.838948    3.353634
      6          1           0       -3.707024    2.926980    3.432580
      7          6           0       -3.762631    1.333483    1.881760
      8          6           0       -2.697736    1.138252    4.215565
      9          1           0       -2.923040    1.318418    5.273789
     10          1           0       -2.769608    0.056649    4.044939
     11          8           0       -4.559303    0.420926    1.607118
     12          6           0       -1.266268    1.623336    3.925640
     13          1           0       -1.173193    2.687234    4.186631
     14          1           0       -0.987657    1.527756    2.875330
     15          6           0       -0.196154    0.883273    4.707743
     16          8           0        0.901039    0.613269    4.274423
     17          8           0       -0.588675    0.583289    5.965014
     18          7           0       -2.873980    1.882239    1.064975
     19          1           0       -2.178599    2.544789    1.423803
     20          6           0       -2.356005    1.223421   -0.142518
     21          1           0       -2.594987    0.159115   -0.070051
     22          6           0       -0.824318    1.428042   -0.018339
     23          6           0       -2.961906    1.780602   -1.461357
     24          1           0       -2.524767    2.762459   -1.676997
     25          1           0       -4.031957    1.941696   -1.280360
     26          8           0       -0.392894    2.252891    0.806107
     27          6           0       -2.772033    0.833937   -2.609873
     28          6           0       -1.860183    0.928312   -3.635731
     29          1           0       -1.113913    1.686162   -3.828968
     30          6           0       -3.504064   -0.393714   -2.823961
     31          6           0       -2.980817   -0.988589   -4.003780
     32          6           0       -4.544010   -1.044740   -2.135612
     33          1           0       -4.962041   -0.617462   -1.226943
     34          7           0       -1.992832   -0.149086   -4.481248
     35          1           0       -1.355014   -0.366792   -5.231807
     36          6           0       -4.486121   -2.824594   -3.801050
     37          1           0       -4.881703   -3.769662   -4.161709
     38          6           0       -3.460919   -2.203089   -4.503956
     39          1           0       -3.048969   -2.645354   -5.406807
     40          6           0       -5.023056   -2.251331   -2.629927
     41          1           0       -5.825198   -2.765675   -2.108109
     42          7           0       -0.054622    0.687352   -0.814230
     43          1           0       -0.453915    0.096444   -1.539331
     44          6           0        1.386168    0.583801   -0.653115
     45          1           0        1.760530    1.538627   -0.271863
     46          6           0        1.949851    0.268637   -2.052515
     47          6           0        1.717090   -0.557740    0.377447
     48          1           0        1.489382   -1.506988   -0.122224
     49          8           0        1.239733   -0.308756   -2.880820
     50          6           0        3.175533   -0.545613    0.832605
     51          1           0        3.880333   -0.674364    0.006422
     52          1           0        3.337449   -1.357487    1.548060
     53          1           0        3.414964    0.401667    1.335344
     54          8           0        0.829476   -0.504589    1.486344
     55          1           0        1.179887    0.112053    2.153279
     56          7           0        3.224728    0.642897   -2.270465
     57          1           0        3.789866    1.034623   -1.522058
     58          6           0        4.030781    0.207544   -3.409609
     59          1           0        3.549798   -0.659424   -3.864841
     60          6           0        5.430966   -0.194347   -2.891167
     61          6           0        4.145303    1.355508   -4.453170
     62          1           0        4.317403    2.291559   -3.903200
     63          1           0        3.163388    1.466891   -4.926056
     64          8           0        6.049587   -1.076148   -3.500063
     65          6           0        5.238145    1.165541   -5.536511
     66          1           0        5.552924    0.117745   -5.570604
     67          1           0        4.828278    1.416860   -6.522365
     68          6           0        6.478260    2.062379   -5.348984
     69          1           0        7.167330    1.916835   -6.186173
     70          1           0        6.185663    3.118284   -5.371577
     71          7           0        7.196339    1.844685   -4.084175
     72          1           0        6.608336    1.876772   -3.246016
     73          7           0        9.157516    0.831266   -4.883094
     74          1           0        9.767865    0.029498   -4.833067
     75          1           0        9.031755    1.246703   -5.792550
     76          7           0        8.469703    0.561305   -2.671598
     77          1           0        7.593156    0.398151   -2.117719
     78          1           0        9.256902   -0.053358   -2.519225
     79          6           0        8.260961    1.048439   -3.896549
     80          8           0        5.867232    0.539670   -1.922667
     81          1           0        0.160584    0.130200    6.398985
 ---------------------------------------------------------------------

 SCF Done:  E(RB3LYP) =  -2053.93389775     A.U. after    1 cycles

 Alpha  occ. eigenvalues --  -19.29887 -19.26528 -19.24154 -19.20524 -19.20212
 Alpha  occ. eigenvalues --  -19.17607 -19.14784 -19.13441 -14.60188 -14.48463
 Alpha  occ. eigenvalues --  -14.46322 -14.44563 -14.43781 -14.43707 -14.42969
 Alpha  occ. eigenvalues --  -14.41520 -10.43144 -10.42622 -10.41271 -10.41009
 Alpha  occ. eigenvalues --  -10.37532 -10.34907 -10.34396 -10.33089 -10.31733
 Alpha  occ. eigenvalues --  -10.31561 -10.30917 -10.30503 -10.29849 -10.28248
 Alpha  occ. eigenvalues --  -10.27910 -10.27540 -10.27107 -10.25318 -10.25062
 Alpha  occ. eigenvalues --  -10.24792 -10.24327 -10.24277 -10.24185 -10.23804
 Alpha  occ. eigenvalues --  -10.23714 -10.23540  -1.20703  -1.18968  -1.13865
 Alpha  occ. eigenvalues --   -1.12442  -1.11703  -1.09982  -1.09460  -1.07703
 Alpha  occ. eigenvalues --   -1.07192  -1.05220  -1.03803  -1.00267  -0.99666
 Alpha  occ. eigenvalues --   -0.98855  -0.97776  -0.97162  -0.94598  -0.89644
 Alpha  occ. eigenvalues --   -0.88774  -0.86700  -0.86024  -0.84376  -0.82840
 Alpha  occ. eigenvalues --   -0.80218  -0.79180  -0.78895  -0.78120  -0.77190
 Alpha  occ. eigenvalues --   -0.74984  -0.73943  -0.73741  -0.72770  -0.71842
 Alpha  occ. eigenvalues --   -0.70947  -0.70238  -0.68125  -0.67864  -0.67193
 Alpha  occ. eigenvalues --   -0.66761  -0.66086  -0.65896  -0.64988  -0.64013
 Alpha  occ. eigenvalues --   -0.63483  -0.63131  -0.62602  -0.61390  -0.59552
 Alpha  occ. eigenvalues --   -0.59471  -0.59060  -0.58782  -0.57981  -0.57706
 Alpha  occ. eigenvalues --   -0.57110  -0.56711  -0.56454  -0.55757  -0.55006
 Alpha  occ. eigenvalues --   -0.54667  -0.54448  -0.53860  -0.53552  -0.53163
 Alpha  occ. eigenvalues --   -0.52823  -0.52607  -0.52363  -0.51515  -0.50984
 Alpha  occ. eigenvalues --   -0.50665  -0.50359  -0.50121  -0.49823  -0.49438
 Alpha  occ. eigenvalues --   -0.49072  -0.48779  -0.48590  -0.48409  -0.47845
 Alpha  occ. eigenvalues --   -0.47410  -0.47232  -0.46553  -0.46317  -0.46105
 Alpha  occ. eigenvalues --   -0.45749  -0.45193  -0.44726  -0.43863  -0.43720
 Alpha  occ. eigenvalues --   -0.42958  -0.42784  -0.42308  -0.41830  -0.41289
 Alpha  occ. eigenvalues --   -0.41089  -0.40991  -0.40950  -0.39513  -0.39264
 Alpha  occ. eigenvalues --   -0.38893  -0.38642  -0.38521  -0.37578  -0.36640
 Alpha  occ. eigenvalues --   -0.35204  -0.34735  -0.33736  -0.33138  -0.32865
 Alpha  occ. eigenvalues --   -0.32048  -0.31085  -0.30022  -0.29420  -0.27872
 Alpha  occ. eigenvalues --   -0.26801  -0.26289
 Alpha virt. eigenvalues --   -0.12247  -0.11158  -0.09316  -0.06801  -0.06526
 Alpha virt. eigenvalues --   -0.06279  -0.06124  -0.04396  -0.03872  -0.03041
 Alpha virt. eigenvalues --   -0.02642  -0.01890  -0.01116  -0.00623  -0.00337

 Mulliken charges:
               1
     1  N   -0.754026
     2  H    0.417703
     3  H    0.434059
     4  H    0.413279
     5  C   -0.118224
     6  H    0.211758
     7  C    0.642177
     8  C   -0.297575
     9  H    0.187975
    10  H    0.197828
    11  O   -0.534195
    12  C   -0.398151
    13  H    0.194439
    14  H    0.235166
    15  C    0.603024
    16  O   -0.447392
    17  O   -0.561961
    18  N   -0.590083
    19  H    0.370686
    20  C   -0.083545
    21  H    0.211585
    22  C    0.652109
    23  C   -0.347494
    24  H    0.162937
    25  H    0.169367
    26  O   -0.572851
    27  C    0.021445
    28  C    0.018474
    29  H    0.162333
    30  C    0.086322
    31  C    0.312592
    32  C   -0.220984
    33  H    0.127510
    34  N   -0.677086
    35  H    0.343086
    36  C   -0.149500
    37  H    0.136632
    38  C   -0.157043
    39  H    0.136798
    40  C   -0.138140
    41  H    0.126801
    42  N   -0.595516
    43  H    0.378340
    44  C   -0.092078
    45  H    0.170084
    46  C    0.615953
    47  C    0.159013
    48  H    0.152529
    49  O   -0.552817
    50  C   -0.500321
    51  H    0.182251
    52  H    0.173740
    53  H    0.146206
    54  O   -0.652736
    55  H    0.416800
    56  N   -0.604154
    57  H    0.349561
    58  C   -0.034944
    59  H    0.180742
    60  C    0.582951
    61  C   -0.288347
    62  H    0.135805
    63  H    0.159540
    64  O   -0.558473
    65  C   -0.276756
    66  H    0.194226
    67  H    0.148746
    68  C   -0.167745
    69  H    0.143636
    70  H    0.176745
    71  N   -0.592826
    72  H    0.374685
    73  N   -0.761754
    74  H    0.368743
    75  H    0.369015
    76  N   -0.750668
    77  H    0.412785
    78  H    0.343266
    79  C    0.788184
    80  O   -0.653516
    81  H    0.431266
 Sum of Mulliken charges =   1.00000

 Dipole moment (field-independent basis, Debye):
    X=             -2.9639    Y=              9.7119    Z=              5.7327  Tot=             11.6605
 Quadrupole moment (field-independent basis, Debye-Ang):
   XX=            -37.4496   YY=           -227.1484   ZZ=            -99.6801
   XY=            -10.9415   XZ=           -140.9082   YZ=              6.8252

 Normal termination of Gaussian 16 at Thu May 26 18:08:05 2022.
