 Gaussian 16, Revision C.01,
 Gaussian 16:  ES64L-G16RevC.01  3-Jul-2019

 -------------------------------------------------------------------
 # B3LYP/6-31G* guess=read geom=check nosymm integral(ultrafinegrid)
 -------------------------------------------------------------------

 ------------------------------------------------------
 Candidate Structure: Conf:306 Charge calc in gas phase
 ------------------------------------------------------
 Structure from the checkpoint file:  "conf-306.chk"
 Charge =  1 Multiplicity = 1

                          Input orientation:
 ---------------------------------------------------------------------
 Center     Atomic      Atomic             Coordinates (Angstroms)
 Number     Number       Type             X           Y           Z
 ---------------------------------------------------------------------
      1          7           0       -5.632707   -0.302962    2.431865
      2          1           0       -6.256257    0.473201    2.097857
      3          1           0       -5.527609   -0.961064    1.634692
      4          1           0       -6.057461   -0.771746    3.236630
      5          6           0       -4.225742    0.198622    2.707830
      6          1           0       -4.327599    1.149763    3.237478
      7          6           0       -3.673156    0.371121    1.273224
      8          6           0       -3.413974   -0.815811    3.518498
      9          1           0       -3.352060   -1.757109    2.959819
     10          1           0       -2.385519   -0.443798    3.580353
     11          8           0       -3.991088   -0.480635    0.447557
     12          6           0       -3.934077   -1.058487    4.940271
     13          1           0       -4.887627   -1.601945    4.967909
     14          1           0       -4.101769   -0.111310    5.471711
     15          6           0       -2.924439   -1.859827    5.755028
     16          8           0       -1.777845   -2.049279    5.426281
     17          8           0       -3.478532   -2.309479    6.895310
     18          7           0       -2.906317    1.455998    1.023203
     19          1           0       -2.819843    2.142009    1.765144
     20          6           0       -2.788410    1.974721   -0.347930
     21          1           0       -2.940315    1.111029   -1.001471
     22          6           0       -1.388816    2.544420   -0.659036
     23          6           0       -3.902009    3.031640   -0.611916
     24          1           0       -3.843220    3.309061   -1.667762
     25          1           0       -3.667581    3.940861   -0.044664
     26          8           0       -1.266365    3.337001   -1.599280
     27          6           0       -5.269131    2.532333   -0.240861
     28          6           0       -5.920070    2.782603    0.932179
     29          1           0       -5.660560    3.463008    1.733671
     30          6           0       -6.096591    1.594141   -0.984176
     31          6           0       -7.231688    1.312024   -0.192522
     32          6           0       -5.974277    0.986055   -2.242982
     33          1           0       -5.108763    1.174602   -2.871598
     34          7           0       -7.077894    1.976978    1.047860
     35          1           0       -7.901493    2.363524    1.501606
     36          6           0       -8.122844   -0.105591   -1.882276
     37          1           0       -8.906799   -0.756733   -2.256640
     38          6           0       -8.256964    0.468761   -0.620046
     39          1           0       -9.133622    0.277324   -0.006777
     40          6           0       -6.991520    0.145295   -2.680546
     41          1           0       -6.916818   -0.324531   -3.656388
     42          7           0       -0.409168    2.120733    0.142901
     43          1           0       -0.630495    1.503670    0.916862
     44          6           0        1.003556    2.453274    0.045582
     45          1           0        1.138145    3.534248    0.178828
     46          6           0        1.609049    2.019924   -1.313505
     47          6           0        1.732167    1.671911    1.208187
     48          1           0        1.960507    0.668757    0.832703
     49          8           0        1.016143    1.169432   -2.013950
     50          6           0        2.993500    2.354838    1.717568
     51          1           0        3.746187    2.532736    0.940431
     52          1           0        3.444320    1.736809    2.500649
     53          1           0        2.742501    3.334437    2.150900
     54          8           0        0.814812    1.440622    2.297499
     55          1           0        0.923922    2.180477    2.917282
     56          7           0        2.786300    2.571639   -1.581287
     57          1           0        3.235478    3.251469   -0.922998
     58          6           0        3.936006    1.990340   -2.296867
     59          1           0        4.029596    0.938637   -1.992591
     60          6           0        5.197910    2.759973   -1.674997
     61          6           0        3.945883    2.054803   -3.826903
     62          1           0        5.008093    2.090286   -4.086279
     63          1           0        3.507156    3.008732   -4.149407
     64          8           0        6.277913    2.535630   -2.226652
     65          6           0        3.273221    0.862512   -4.554041
     66          1           0        4.006253    0.321766   -5.163733
     67          1           0        2.882479    0.137809   -3.829792
     68          6           0        2.133783    1.270625   -5.488142
     69          1           0        2.507849    2.000121   -6.217576
     70          1           0        1.746823    0.403683   -6.039494
     71          7           0        1.047268    1.885486   -4.712086
     72          1           0        0.987631    1.595622   -3.713935
     73          7           0        0.189340    3.186597   -6.454381
     74          1           0       -0.066176    4.132979   -6.699403
     75          1           0        0.802772    2.721580   -7.106832
     76          7           0       -0.524532    3.534926   -4.284857
     77          1           0       -0.533575    3.350528   -3.278043
     78          1           0       -1.302491    4.066832   -4.645583
     79          6           0        0.257056    2.855910   -5.137135
     80          8           0        4.907995    3.490020   -0.675760
     81          1           0       -2.785111   -2.789984    7.388471
 ---------------------------------------------------------------------

 SCF Done:  E(RB3LYP) =  -2053.89019730     A.U. after    2 cycles

 Alpha  occ. eigenvalues --  -19.30500 -19.27587 -19.25101 -19.24019 -19.21990
 Alpha  occ. eigenvalues --  -19.18554 -19.09338 -19.08026 -14.60607 -14.51316
 Alpha  occ. eigenvalues --  -14.51030 -14.47743 -14.46082 -14.45924 -14.45596
 Alpha  occ. eigenvalues --  -14.39601 -10.44774 -10.43641 -10.43138 -10.41934
 Alpha  occ. eigenvalues --  -10.39523 -10.35937 -10.35184 -10.34650 -10.34581
 Alpha  occ. eigenvalues --  -10.34236 -10.34041 -10.32411 -10.31606 -10.31554
 Alpha  occ. eigenvalues --  -10.31362 -10.31059 -10.30580 -10.30460 -10.29887
 Alpha  occ. eigenvalues --  -10.29669 -10.29166 -10.26994 -10.24675 -10.24622
 Alpha  occ. eigenvalues --  -10.23450 -10.22037  -1.21560  -1.20201  -1.14785
 Alpha  occ. eigenvalues --   -1.13797  -1.12810  -1.11706  -1.11108  -1.09893
 Alpha  occ. eigenvalues --   -1.09281  -1.07828  -1.02333  -1.01973  -1.00874
 Alpha  occ. eigenvalues --   -0.99895  -0.96744  -0.95791  -0.95508  -0.93471
 Alpha  occ. eigenvalues --   -0.92850  -0.89699  -0.87228  -0.85830  -0.85180
 Alpha  occ. eigenvalues --   -0.84947  -0.83581  -0.80083  -0.79597  -0.78964
 Alpha  occ. eigenvalues --   -0.76577  -0.75077  -0.74434  -0.73844  -0.73522
 Alpha  occ. eigenvalues --   -0.73166  -0.71889  -0.71197  -0.70860  -0.69827
 Alpha  occ. eigenvalues --   -0.69100  -0.69008  -0.68119  -0.66360  -0.66149
 Alpha  occ. eigenvalues --   -0.65038  -0.64607  -0.64463  -0.62202  -0.61989
 Alpha  occ. eigenvalues --   -0.61191  -0.60888  -0.60730  -0.60056  -0.59975
 Alpha  occ. eigenvalues --   -0.59250  -0.58946  -0.58813  -0.58404  -0.57936
 Alpha  occ. eigenvalues --   -0.57569  -0.56398  -0.56174  -0.55642  -0.55059
 Alpha  occ. eigenvalues --   -0.54406  -0.54009  -0.53932  -0.53606  -0.52895
 Alpha  occ. eigenvalues --   -0.52666  -0.52248  -0.52052  -0.51984  -0.51467
 Alpha  occ. eigenvalues --   -0.51309  -0.50518  -0.50270  -0.50008  -0.49516
 Alpha  occ. eigenvalues --   -0.49448  -0.48999  -0.48862  -0.48352  -0.47255
 Alpha  occ. eigenvalues --   -0.46745  -0.46385  -0.45785  -0.45330  -0.44786
 Alpha  occ. eigenvalues --   -0.43883  -0.43813  -0.43335  -0.42751  -0.42658
 Alpha  occ. eigenvalues --   -0.42010  -0.41207  -0.40826  -0.40157  -0.39433
 Alpha  occ. eigenvalues --   -0.39279  -0.38820  -0.38754  -0.38511  -0.37927
 Alpha  occ. eigenvalues --   -0.37154  -0.36365  -0.35907  -0.35594  -0.35284
 Alpha  occ. eigenvalues --   -0.34545  -0.33148  -0.32555  -0.30700  -0.24304
 Alpha  occ. eigenvalues --   -0.24230  -0.22243
 Alpha virt. eigenvalues --   -0.14688  -0.13291  -0.11154  -0.10240  -0.09781
 Alpha virt. eigenvalues --   -0.08500  -0.07519  -0.07178  -0.06610  -0.05141
 Alpha virt. eigenvalues --   -0.05119  -0.03615  -0.03543  -0.03180  -0.02329

 Mulliken charges:
               1
     1  N   -0.769170
     2  H    0.441985
     3  H    0.426053
     4  H    0.405645
     5  C   -0.125401
     6  H    0.187405
     7  C    0.660332
     8  C   -0.283958
     9  H    0.201930
    10  H    0.227438
    11  O   -0.506647
    12  C   -0.388909
    13  H    0.172799
    14  H    0.196714
    15  C    0.599045
    16  O   -0.430024
    17  O   -0.557058
    18  N   -0.614049
    19  H    0.341771
    20  C   -0.087826
    21  H    0.231996
    22  C    0.670049
    23  C   -0.361866
    24  H    0.195771
    25  H    0.165044
    26  O   -0.574415
    27  C    0.109203
    28  C   -0.089543
    29  H    0.162077
    30  C    0.131912
    31  C    0.221936
    32  C   -0.196051
    33  H    0.145131
    34  N   -0.716845
    35  H    0.357534
    36  C   -0.142271
    37  H    0.160677
    38  C   -0.182380
    39  H    0.146424
    40  C   -0.131020
    41  H    0.157649
    42  N   -0.623062
    43  H    0.366952
    44  C   -0.047430
    45  H    0.174122
    46  C    0.599181
    47  C    0.104616
    48  H    0.175926
    49  O   -0.599335
    50  C   -0.517117
    51  H    0.240744
    52  H    0.170384
    53  H    0.135809
    54  O   -0.646657
    55  H    0.397744
    56  N   -0.598450
    57  H    0.370426
    58  C   -0.074772
    59  H    0.151155
    60  C    0.588584
    61  C   -0.278068
    62  H    0.203888
    63  H    0.123530
    64  O   -0.552338
    65  C   -0.300794
    66  H    0.163891
    67  H    0.167518
    68  C   -0.163962
    69  H    0.155935
    70  H    0.170524
    71  N   -0.617222
    72  H    0.431511
    73  N   -0.759910
    74  H    0.365233
    75  H    0.373969
    76  N   -0.796929
    77  H    0.429533
    78  H    0.351605
    79  C    0.777634
    80  O   -0.607810
    81  H    0.434353
 Sum of Mulliken charges =   1.00000

 Dipole moment (field-independent basis, Debye):
    X=            -36.7534    Y=              3.8320    Z=              3.6338  Tot=             37.1309
 Quadrupole moment (field-independent basis, Debye-Ang):
   XX=           -163.6246   YY=           -221.3189   ZZ=            -93.1688
   XY=            -50.8468   XZ=            -48.6967   YZ=            -30.4019

 Normal termination of Gaussian 16 at Thu May 26 18:08:20 2022.
