 Gaussian 16, Revision C.01,
 Gaussian 16:  ES64L-G16RevC.01  3-Jul-2019

 -------------------------------------------------------------------
 # B3LYP/6-31G* guess=read geom=check nosymm integral(ultrafinegrid)
 -------------------------------------------------------------------

 ------------------------------------------------------
 Candidate Structure: Conf:474 Charge calc in gas phase
 ------------------------------------------------------
 Structure from the checkpoint file:  "conf-474.chk"
 Charge =  1 Multiplicity = 1

                          Input orientation:
 ---------------------------------------------------------------------
 Center     Atomic      Atomic             Coordinates (Angstroms)
 Number     Number       Type             X           Y           Z
 ---------------------------------------------------------------------
      1          7           0       -5.915315    1.086718    2.261468
      2          1           0       -6.068215    1.543319    1.331366
      3          1           0       -5.945053    0.060062    2.082087
      4          1           0       -6.641196    1.375496    2.922593
      5          6           0       -4.503237    1.336157    2.756844
      6          1           0       -4.250148    2.374036    2.555130
      7          6           0       -3.698741    0.362302    1.864187
      8          6           0       -4.415359    1.026960    4.260461
      9          1           0       -5.015328    1.766439    4.806434
     10          1           0       -4.858392    0.040637    4.445915
     11          8           0       -4.248887   -0.703561    1.563350
     12          6           0       -2.985383    1.006170    4.830768
     13          1           0       -2.413310    0.177568    4.392162
     14          1           0       -3.023708    0.813546    5.906107
     15          6           0       -2.185316    2.269092    4.574699
     16          8           0       -2.309396    2.984793    3.594867
     17          8           0       -1.283320    2.492763    5.535381
     18          7           0       -2.498909    0.770599    1.440719
     19          1           0       -2.091236    1.640754    1.780457
     20          6           0       -1.862588    0.184549    0.268464
     21          1           0       -2.135435   -0.871823    0.228547
     22          6           0       -0.347892    0.392303    0.434167
     23          6           0       -2.349904    0.923583   -1.030193
     24          1           0       -1.990578    0.358121   -1.897624
     25          1           0       -1.850779    1.898933   -1.056084
     26          8           0        0.064022    1.386792    1.032572
     27          6           0       -3.837096    1.121307   -1.089447
     28          6           0       -4.500946    2.234870   -0.664867
     29          1           0       -4.104451    3.183603   -0.325979
     30          6           0       -4.850911    0.155000   -1.481384
     31          6           0       -6.111357    0.749964   -1.251837
     32          6           0       -4.795562   -1.143045   -2.010457
     33          1           0       -3.842361   -1.632102   -2.189693
     34          7           0       -5.897792    2.013718   -0.651444
     35          1           0       -6.518356    2.781419   -0.893375
     36          6           0       -7.230553   -1.171667   -2.097986
     37          1           0       -8.143459   -1.698470   -2.358851
     38          6           0       -7.312029    0.108412   -1.553811
     39          1           0       -8.273539    0.587431   -1.387720
     40          6           0       -5.986722   -1.791531   -2.317443
     41          1           0       -5.959437   -2.792193   -2.737807
     42          7           0        0.429999   -0.545212   -0.134747
     43          1           0        0.038570   -1.340732   -0.630382
     44          6           0        1.888159   -0.496912   -0.163381
     45          1           0        2.233895    0.001334    0.746015
     46          6           0        2.375749    0.240168   -1.426068
     47          6           0        2.394306   -1.966639   -0.233495
     48          1           0        3.469237   -1.933670   -0.466692
     49          8           0        2.178909   -0.261113   -2.544507
     50          6           0        2.187404   -2.735817    1.063943
     51          1           0        2.772552   -2.293152    1.877074
     52          1           0        2.508685   -3.772232    0.926792
     53          1           0        1.131596   -2.742123    1.354947
     54          8           0        1.681710   -2.638943   -1.266704
     55          1           0        1.842089   -2.101356   -2.074128
     56          7           0        3.041755    1.386190   -1.226094
     57          1           0        3.148125    1.789255   -0.299499
     58          6           0        3.720542    2.140547   -2.276870
     59          1           0        4.137844    1.436126   -2.999231
     60          6           0        4.865864    2.950394   -1.630208
     61          6           0        2.724857    3.091585   -3.000066
     62          1           0        2.112881    3.581947   -2.229793
     63          1           0        2.039738    2.462766   -3.577811
     64          8           0        5.887675    3.149734   -2.300854
     65          6           0        3.379852    4.152849   -3.921193
     66          1           0        4.413925    3.868736   -4.141703
     67          1           0        2.842619    4.195632   -4.876584
     68          6           0        3.357488    5.585706   -3.352501
     69          1           0        3.766027    6.284822   -4.088703
     70          1           0        2.323399    5.902798   -3.175301
     71          7           0        4.072231    5.745131   -2.077735
     72          1           0        3.789247    5.085726   -1.345512
     73          7           0        5.968994    6.921997   -2.811996
     74          1           0        6.977746    6.937922   -2.842309
     75          1           0        5.497090    7.195623   -3.659579
     76          7           0        5.973671    5.749874   -0.794334
     77          1           0        5.646282    4.825838   -0.416589
     78          1           0        6.955004    5.971486   -0.696427
     79          6           0        5.354220    6.112294   -1.921665
     80          8           0        4.575430    3.454224   -0.479231
     81          1           0       -0.757719    3.274977    5.274930
 ---------------------------------------------------------------------

 SCF Done:  E(RB3LYP) =  -2053.94427338     A.U. after    1 cycles

 Alpha  occ. eigenvalues --  -19.30842 -19.25669 -19.24622 -19.20168 -19.19709
 Alpha  occ. eigenvalues --  -19.17688 -19.14509 -19.13236 -14.58253 -14.48992
 Alpha  occ. eigenvalues --  -14.47705 -14.46262 -14.44527 -14.44442 -14.42778
 Alpha  occ. eigenvalues --  -14.41672 -10.44023 -10.41746 -10.41184 -10.38863
 Alpha  occ. eigenvalues --  -10.37577 -10.34762 -10.34048 -10.33777 -10.32617
 Alpha  occ. eigenvalues --  -10.32414 -10.32028 -10.31562 -10.30989 -10.30461
 Alpha  occ. eigenvalues --  -10.30073 -10.29806 -10.29441 -10.28574 -10.28553
 Alpha  occ. eigenvalues --  -10.27906 -10.27794 -10.27262 -10.26958 -10.25285
 Alpha  occ. eigenvalues --  -10.24810 -10.23672  -1.22068  -1.17291  -1.13018
 Alpha  occ. eigenvalues --   -1.12451  -1.11996  -1.09936  -1.09714  -1.07844
 Alpha  occ. eigenvalues --   -1.07269  -1.06866  -1.04466  -1.00549  -0.99642
 Alpha  occ. eigenvalues --   -0.98661  -0.97686  -0.97070  -0.94092  -0.93549
 Alpha  occ. eigenvalues --   -0.90773  -0.87519  -0.85985  -0.85436  -0.83704
 Alpha  occ. eigenvalues --   -0.83013  -0.81758  -0.80445  -0.79100  -0.77951
 Alpha  occ. eigenvalues --   -0.75898  -0.73683  -0.73048  -0.71835  -0.71698
 Alpha  occ. eigenvalues --   -0.71589  -0.70210  -0.69401  -0.68907  -0.67992
 Alpha  occ. eigenvalues --   -0.66944  -0.66610  -0.66293  -0.65715  -0.64198
 Alpha  occ. eigenvalues --   -0.63846  -0.63204  -0.63004  -0.62907  -0.61206
 Alpha  occ. eigenvalues --   -0.60774  -0.59676  -0.58818  -0.58479  -0.58352
 Alpha  occ. eigenvalues --   -0.58073  -0.57364  -0.57244  -0.56770  -0.56333
 Alpha  occ. eigenvalues --   -0.56221  -0.55358  -0.54839  -0.54466  -0.54394
 Alpha  occ. eigenvalues --   -0.53452  -0.52754  -0.52553  -0.52169  -0.51974
 Alpha  occ. eigenvalues --   -0.51499  -0.51275  -0.51200  -0.50393  -0.50190
 Alpha  occ. eigenvalues --   -0.49872  -0.49642  -0.49627  -0.48947  -0.48898
 Alpha  occ. eigenvalues --   -0.48400  -0.47919  -0.47582  -0.47440  -0.46684
 Alpha  occ. eigenvalues --   -0.46398  -0.45802  -0.45149  -0.44467  -0.44316
 Alpha  occ. eigenvalues --   -0.44043  -0.43442  -0.43364  -0.43188  -0.42787
 Alpha  occ. eigenvalues --   -0.42558  -0.42266  -0.41227  -0.40859  -0.39601
 Alpha  occ. eigenvalues --   -0.39361  -0.39262  -0.39061  -0.38389  -0.36760
 Alpha  occ. eigenvalues --   -0.36613  -0.34992  -0.34284  -0.33727  -0.33060
 Alpha  occ. eigenvalues --   -0.32533  -0.31780  -0.31097  -0.30719  -0.29821
 Alpha  occ. eigenvalues --   -0.29195  -0.26790
 Alpha virt. eigenvalues --   -0.11621  -0.11256  -0.10992  -0.08581  -0.08027
 Alpha virt. eigenvalues --   -0.06811  -0.06206  -0.04217  -0.03993  -0.03324
 Alpha virt. eigenvalues --   -0.02572  -0.02444  -0.01736  -0.01192  -0.00470

 Mulliken charges:
               1
     1  N   -0.771707
     2  H    0.437201
     3  H    0.421680
     4  H    0.399062
     5  C   -0.105541
     6  H    0.227062
     7  C    0.637912
     8  C   -0.292024
     9  H    0.177800
    10  H    0.184059
    11  O   -0.537772
    12  C   -0.379677
    13  H    0.219601
    14  H    0.212841
    15  C    0.609386
    16  O   -0.480661
    17  O   -0.536071
    18  N   -0.603956
    19  H    0.382617
    20  C   -0.073812
    21  H    0.194666
    22  C    0.636943
    23  C   -0.365067
    24  H    0.183932
    25  H    0.177350
    26  O   -0.542560
    27  C    0.107846
    28  C   -0.079929
    29  H    0.166942
    30  C    0.138315
    31  C    0.226060
    32  C   -0.195900
    33  H    0.144397
    34  N   -0.716249
    35  H    0.352588
    36  C   -0.143467
    37  H    0.154134
    38  C   -0.181413
    39  H    0.139951
    40  C   -0.132510
    41  H    0.154317
    42  N   -0.594817
    43  H    0.350053
    44  C   -0.091699
    45  H    0.170670
    46  C    0.647847
    47  C    0.114257
    48  H    0.149121
    49  O   -0.569953
    50  C   -0.448119
    51  H    0.149923
    52  H    0.177834
    53  H    0.142169
    54  O   -0.651373
    55  H    0.424305
    56  N   -0.605473
    57  H    0.356855
    58  C   -0.014270
    59  H    0.179211
    60  C    0.573808
    61  C   -0.294738
    62  H    0.132889
    63  H    0.171101
    64  O   -0.563927
    65  C   -0.274977
    66  H    0.193097
    67  H    0.148562
    68  C   -0.168906
    69  H    0.143253
    70  H    0.172014
    71  N   -0.590221
    72  H    0.376085
    73  N   -0.759136
    74  H    0.368437
    75  H    0.367445
    76  N   -0.746777
    77  H    0.409868
    78  H    0.342135
    79  C    0.780679
    80  O   -0.649740
    81  H    0.434161
 Sum of Mulliken charges =   1.00000

 Dipole moment (field-independent basis, Debye):
    X=            -16.2953    Y=             16.1870    Z=              5.6974  Tot=             23.6646
 Quadrupole moment (field-independent basis, Debye-Ang):
   XX=            -66.3697   YY=           -151.8547   ZZ=           -182.0999
   XY=             27.6031   XZ=            -56.0158   YZ=            -24.3378

 Normal termination of Gaussian 16 at Thu May 26 18:08:02 2022.
