 Gaussian 16, Revision C.01,
 Gaussian 16:  ES64L-G16RevC.01  3-Jul-2019

 -------------------------------------------------------------------
 # B3LYP/6-31G* guess=read geom=check nosymm integral(ultrafinegrid)
 -------------------------------------------------------------------

 ------------------------------------------------------
 Candidate Structure: Conf:796 Charge calc in gas phase
 ------------------------------------------------------
 Structure from the checkpoint file:  "conf-796.chk"
 Charge =  1 Multiplicity = 1

                          Input orientation:
 ---------------------------------------------------------------------
 Center     Atomic      Atomic             Coordinates (Angstroms)
 Number     Number       Type             X           Y           Z
 ---------------------------------------------------------------------
      1          7           0       -4.809831    4.504378    1.900970
      2          1           0       -5.049782    4.515175    0.887498
      3          1           0       -5.410531    3.765921    2.326637
      4          1           0       -4.981282    5.424899    2.314426
      5          6           0       -3.397670    3.996715    2.105994
      6          1           0       -2.790345    4.411376    1.298474
      7          6           0       -3.577432    2.466254    1.941627
      8          6           0       -2.833359    4.424758    3.466689
      9          1           0       -1.794999    4.080140    3.510057
     10          1           0       -2.771850    5.519672    3.502283
     11          8           0       -4.676169    1.980585    2.247781
     12          6           0       -3.587927    3.899667    4.694078
     13          1           0       -3.664856    2.806452    4.688803
     14          1           0       -4.621036    4.267370    4.749296
     15          6           0       -2.882376    4.322346    5.972696
     16          8           0       -1.839855    4.934288    6.014856
     17          8           0       -3.570459    3.923161    7.059143
     18          7           0       -2.529685    1.811793    1.457305
     19          1           0       -1.646338    2.278795    1.234006
     20          6           0       -2.527286    0.426319    0.998988
     21          1           0       -2.799685   -0.239861    1.825710
     22          6           0       -1.051801    0.174314    0.600702
     23          6           0       -3.524257    0.200941   -0.182000
     24          1           0       -4.535503    0.226811    0.234000
     25          1           0       -3.377393   -0.816608   -0.562179
     26          8           0       -0.235417    1.098134    0.627820
     27          6           0       -3.387878    1.214446   -1.284551
     28          6           0       -2.417647    1.242469   -2.260241
     29          1           0       -1.632738    0.525553   -2.475181
     30          6           0       -4.187226    2.400931   -1.471889
     31          6           0       -3.624324    3.121411   -2.565328
     32          6           0       -5.349557    2.913240   -0.860989
     33          1           0       -5.854508    2.344630   -0.084421
     34          7           0       -2.554351    2.386181   -3.020205
     35          1           0       -1.977884    2.620391   -3.814421
     36          6           0       -5.266669    4.844877   -2.360738
     37          1           0       -5.702859    5.781938   -2.693342
     38          6           0       -4.146282    4.342455   -3.009946
     39          1           0       -3.697192    4.877205   -3.842348
     40          6           0       -5.874245    4.130019   -1.302680
     41          1           0       -6.809024    4.498418   -0.883821
     42          7           0       -0.741561   -1.085223    0.249706
     43          1           0       -1.464875   -1.775661    0.072871
     44          6           0        0.574151   -1.466314   -0.249563
     45          1           0        1.336992   -1.160754    0.472551
     46          6           0        0.855061   -0.851423   -1.631830
     47          6           0        0.558650   -3.014747   -0.422379
     48          1           0        1.453222   -3.288880   -1.001737
     49          8           0        0.030325   -1.017044   -2.555515
     50          6           0        0.571805   -3.770959    0.899452
     51          1           0        1.501003   -3.578959    1.445650
     52          1           0        0.497125   -4.844443    0.704057
     53          1           0       -0.272067   -3.480395    1.533763
     54          8           0       -0.623917   -3.379196   -1.128605
     55          1           0       -0.629429   -2.832837   -1.942815
     56          7           0        2.030256   -0.240918   -1.776126
     57          1           0        2.714549   -0.166119   -1.018000
     58          6           0        2.614743    0.179958   -3.041694
     59          1           0        2.685116   -0.707446   -3.686962
     60          6           0        4.093113    0.617494   -2.709915
     61          6           0        1.813832    1.288100   -3.779127
     62          1           0        2.447185    2.177410   -3.860935
     63          1           0        0.961693    1.576027   -3.155844
     64          8           0        4.711895    1.173804   -3.681829
     65          6           0        1.267049    0.920570   -5.177480
     66          1           0        0.423338    0.231094   -5.063002
     67          1           0        0.881969    1.838917   -5.638786
     68          6           0        2.253788    0.250626   -6.158561
     69          1           0        2.300245   -0.830666   -5.970252
     70          1           0        1.874222    0.380613   -7.180004
     71          7           0        3.598895    0.823440   -6.032799
     72          1           0        3.879146    1.134569   -5.058244
     73          7           0        4.565405   -0.214961   -7.897733
     74          1           0        5.389939   -0.517937   -8.394584
     75          1           0        3.727490   -0.086527   -8.444725
     76          7           0        5.867453    0.516771   -6.101535
     77          1           0        5.876424    0.769228   -5.103512
     78          1           0        6.731196    0.380108   -6.603682
     79          6           0        4.671251    0.379864   -6.687526
     80          8           0        4.510190    0.381570   -1.572162
     81          1           0       -3.064523    4.211370    7.843379
 ---------------------------------------------------------------------

 SCF Done:  E(RB3LYP) =  -2053.94500945     A.U. after    2 cycles

 Alpha  occ. eigenvalues --  -19.28669 -19.24989 -19.23306 -19.21500 -19.21245
 Alpha  occ. eigenvalues --  -19.19237 -19.15356 -19.14382 -14.58564 -14.47932
 Alpha  occ. eigenvalues --  -14.47767 -14.47032 -14.45588 -14.44992 -14.44033
 Alpha  occ. eigenvalues --  -14.42380 -10.42467 -10.42039 -10.41744 -10.39380
 Alpha  occ. eigenvalues --  -10.38398 -10.35954 -10.34072 -10.32903 -10.32863
 Alpha  occ. eigenvalues --  -10.31692 -10.31686 -10.31534 -10.31315 -10.31054
 Alpha  occ. eigenvalues --  -10.30255 -10.29163 -10.28698 -10.28632 -10.28471
 Alpha  occ. eigenvalues --  -10.28411 -10.28044 -10.28019 -10.27189 -10.26896
 Alpha  occ. eigenvalues --  -10.25655 -10.24398  -1.19744  -1.17452  -1.13583
 Alpha  occ. eigenvalues --   -1.12464  -1.11156  -1.10933  -1.10851  -1.08661
 Alpha  occ. eigenvalues --   -1.08037  -1.06953  -1.04733  -1.01321  -1.00913
 Alpha  occ. eigenvalues --   -0.99717  -0.99212  -0.98357  -0.93690  -0.93351
 Alpha  occ. eigenvalues --   -0.90113  -0.87333  -0.87006  -0.85669  -0.84186
 Alpha  occ. eigenvalues --   -0.83078  -0.81199  -0.81153  -0.78439  -0.78270
 Alpha  occ. eigenvalues --   -0.76345  -0.74952  -0.73105  -0.72824  -0.71627
 Alpha  occ. eigenvalues --   -0.71235  -0.70603  -0.68930  -0.68658  -0.68471
 Alpha  occ. eigenvalues --   -0.68114  -0.67762  -0.66940  -0.65447  -0.65092
 Alpha  occ. eigenvalues --   -0.64399  -0.63451  -0.63020  -0.61824  -0.60665
 Alpha  occ. eigenvalues --   -0.60413  -0.60164  -0.59708  -0.59180  -0.58867
 Alpha  occ. eigenvalues --   -0.58402  -0.57814  -0.57074  -0.56798  -0.56632
 Alpha  occ. eigenvalues --   -0.56431  -0.56263  -0.55284  -0.54832  -0.54048
 Alpha  occ. eigenvalues --   -0.53908  -0.53432  -0.52649  -0.52502  -0.52118
 Alpha  occ. eigenvalues --   -0.51825  -0.51361  -0.51250  -0.50847  -0.50381
 Alpha  occ. eigenvalues --   -0.49999  -0.49551  -0.49459  -0.49215  -0.48836
 Alpha  occ. eigenvalues --   -0.48364  -0.47974  -0.47736  -0.47361  -0.46876
 Alpha  occ. eigenvalues --   -0.46661  -0.46425  -0.45348  -0.45173  -0.45079
 Alpha  occ. eigenvalues --   -0.44833  -0.44739  -0.43519  -0.43260  -0.43171
 Alpha  occ. eigenvalues --   -0.42720  -0.41927  -0.41270  -0.40979  -0.40822
 Alpha  occ. eigenvalues --   -0.40435  -0.39321  -0.38272  -0.37960  -0.37042
 Alpha  occ. eigenvalues --   -0.36881  -0.35864  -0.35469  -0.35002  -0.34386
 Alpha  occ. eigenvalues --   -0.32494  -0.32362  -0.31982  -0.30566  -0.29955
 Alpha  occ. eigenvalues --   -0.29514  -0.28636
 Alpha virt. eigenvalues --   -0.11620  -0.10710  -0.09458  -0.08027  -0.07574
 Alpha virt. eigenvalues --   -0.07293  -0.07244  -0.05559  -0.04042  -0.03487
 Alpha virt. eigenvalues --   -0.03247  -0.02591  -0.01957  -0.00604  -0.00539

 Mulliken charges:
               1
     1  N   -0.755573
     2  H    0.407383
     3  H    0.420473
     4  H    0.403581
     5  C   -0.131718
     6  H    0.216875
     7  C    0.681719
     8  C   -0.285995
     9  H    0.216411
    10  H    0.185597
    11  O   -0.556319
    12  C   -0.381285
    13  H    0.219033
    14  H    0.170261
    15  C    0.592061
    16  O   -0.442071
    17  O   -0.557843
    18  N   -0.621649
    19  H    0.376239
    20  C   -0.037360
    21  H    0.194996
    22  C    0.643913
    23  C   -0.394759
    24  H    0.189531
    25  H    0.177575
    26  O   -0.541769
    27  C    0.044444
    28  C    0.002118
    29  H    0.227618
    30  C    0.083856
    31  C    0.316015
    32  C   -0.277080
    33  H    0.160614
    34  N   -0.693760
    35  H    0.342542
    36  C   -0.151503
    37  H    0.149235
    38  C   -0.155679
    39  H    0.148852
    40  C   -0.195082
    41  H    0.141200
    42  N   -0.615524
    43  H    0.355119
    44  C   -0.071124
    45  H    0.176749
    46  C    0.649389
    47  C    0.098579
    48  H    0.149211
    49  O   -0.592508
    50  C   -0.448284
    51  H    0.158642
    52  H    0.180008
    53  H    0.149775
    54  O   -0.643717
    55  H    0.416478
    56  N   -0.608741
    57  H    0.369161
    58  C   -0.045834
    59  H    0.155353
    60  C    0.604041
    61  C   -0.302522
    62  H    0.176827
    63  H    0.153089
    64  O   -0.635022
    65  C   -0.288848
    66  H    0.172673
    67  H    0.139453
    68  C   -0.155735
    69  H    0.174359
    70  H    0.148920
    71  N   -0.634001
    72  H    0.424361
    73  N   -0.757383
    74  H    0.365376
    75  H    0.371195
    76  N   -0.779026
    77  H    0.423002
    78  H    0.355004
    79  C    0.783111
    80  O   -0.533277
    81  H    0.428977
 Sum of Mulliken charges =   1.00000

 Dipole moment (field-independent basis, Debye):
    X=             -9.3261    Y=             13.0092    Z=             -9.5010  Tot=             18.6141
 Quadrupole moment (field-independent basis, Debye-Ang):
   XX=           -151.2205   YY=           -169.6117   ZZ=            -62.7190
   XY=            -87.4777   XZ=           -107.0380   YZ=             24.1424

 Normal termination of Gaussian 16 at Thu May 26 18:09:41 2022.
