 Gaussian 16, Revision C.01,
 Gaussian 16:  ES64L-G16RevC.01  3-Jul-2019

 -------------------------------------------------------------------
 # B3LYP/6-31G* guess=read geom=check nosymm integral(ultrafinegrid)
 -------------------------------------------------------------------

 ------------------------------------------------------
 Candidate Structure: Conf:950 Charge calc in gas phase
 ------------------------------------------------------
 Structure from the checkpoint file:  "conf-950.chk"
 Charge =  1 Multiplicity = 1

                          Input orientation:
 ---------------------------------------------------------------------
 Center     Atomic      Atomic             Coordinates (Angstroms)
 Number     Number       Type             X           Y           Z
 ---------------------------------------------------------------------
      1          7           0       -3.151757   -0.171398    4.838778
      2          1           0       -3.843703   -0.890813    5.068196
      3          1           0       -2.414354   -0.600323    4.197480
      4          1           0       -2.737681    0.177707    5.707521
      5          6           0       -3.705604    0.926638    3.947763
      6          1           0       -4.787686    0.969945    4.067887
      7          6           0       -3.276065    0.437468    2.540266
      8          6           0       -3.028436    2.255601    4.350334
      9          1           0       -3.305220    2.474426    5.390642
     10          1           0       -1.942393    2.102644    4.319803
     11          8           0       -2.326970   -0.362285    2.497184
     12          6           0       -3.326483    3.487073    3.468312
     13          1           0       -2.980824    3.297798    2.442057
     14          1           0       -2.747040    4.326075    3.859303
     15          6           0       -4.770911    3.933769    3.448217
     16          8           0       -5.201497    5.001853    3.795578
     17          8           0       -5.602097    2.952340    2.948055
     18          7           0       -3.926006    0.923429    1.489587
     19          1           0       -4.698949    1.566282    1.641322
     20          6           0       -3.386738    0.784592    0.135395
     21          1           0       -3.286934   -0.283142   -0.080423
     22          6           0       -2.001324    1.480341    0.096882
     23          6           0       -4.342179    1.456468   -0.880097
     24          1           0       -3.946003    1.233977   -1.878923
     25          1           0       -4.262099    2.542897   -0.749858
     26          8           0       -1.815603    2.516351    0.744699
     27          6           0       -5.778058    1.035292   -0.765109
     28          6           0       -6.833820    1.860487   -0.455237
     29          1           0       -6.839400    2.927181   -0.271870
     30          6           0       -6.335358   -0.283086   -0.966044
     31          6           0       -7.737503   -0.179428   -0.756408
     32          6           0       -5.794998   -1.534426   -1.316111
     33          1           0       -4.730371   -1.649639   -1.502707
     34          7           0       -8.009266    1.137153   -0.433257
     35          1           0       -8.932412    1.532086   -0.337558
     36          6           0       -8.032215   -2.497114   -1.223969
     37          1           0       -8.671716   -3.368144   -1.333175
     38          6           0       -8.597798   -1.275509   -0.880039
     39          1           0       -9.668027   -1.176035   -0.720206
     40          6           0       -6.644756   -2.625403   -1.441361
     41          1           0       -6.237930   -3.593893   -1.717245
     42          7           0       -1.098758    0.893986   -0.696759
     43          1           0       -1.301009    0.034336   -1.206875
     44          6           0        0.271202    1.343259   -0.897476
     45          1           0        0.278880    2.406756   -1.160930
     46          6           0        0.817051    0.492664   -2.057675
     47          6           0        1.154753    1.205820    0.401152
     48          1           0        0.638378    1.815125    1.151924
     49          8           0        0.159909   -0.456915   -2.499703
     50          6           0        1.267330   -0.233565    0.906927
     51          1           0        0.280553   -0.675270    1.083461
     52          1           0        1.822623   -0.236393    1.850778
     53          1           0        1.824957   -0.855998    0.200568
     54          8           0        2.411519    1.807122    0.179616
     55          1           0        3.065641    1.105651   -0.114537
     56          7           0        2.050987    0.845741   -2.493903
     57          1           0        2.512715    1.510582   -1.875548
     58          6           0        2.964646   -0.156517   -3.053153
     59          1           0        2.398198   -1.090360   -3.129929
     60          6           0        4.194173   -0.411402   -2.082447
     61          6           0        3.489376    0.213735   -4.440410
     62          1           0        4.187153   -0.589711   -4.703569
     63          1           0        4.090290    1.131405   -4.356901
     64          8           0        5.130678   -1.034049   -2.605629
     65          6           0        2.415746    0.398178   -5.517402
     66          1           0        1.684605   -0.418921   -5.478302
     67          1           0        1.842213    1.316381   -5.320804
     68          6           0        3.013535    0.406405   -6.932434
     69          1           0        3.369054   -0.593471   -7.194067
     70          1           0        2.294636    0.702471   -7.704408
     71          7           0        4.200678    1.283890   -7.065672
     72          1           0        5.081859    0.882632   -6.767165
     73          7           0        3.014963    3.271941   -7.255852
     74          1           0        2.959774    4.213200   -7.616733
     75          1           0        2.179466    2.863682   -6.861891
     76          7           0        5.318474    3.278223   -7.471722
     77          1           0        6.192078    2.784257   -7.590902
     78          1           0        5.379971    4.263945   -7.258433
     79          6           0        4.175855    2.599751   -7.244150
     80          8           0        4.082036    0.031454   -0.902165
     81          1           0       -6.504288    3.327264    2.944239
 ---------------------------------------------------------------------

 SCF Done:  E(RB3LYP) =  -2053.89049047     A.U. after    2 cycles

 Alpha  occ. eigenvalues --  -19.30860 -19.25407 -19.24458 -19.18698 -19.16541
 Alpha  occ. eigenvalues --  -19.15213 -19.09027 -19.07893 -14.59101 -14.51813
 Alpha  occ. eigenvalues --  -14.51655 -14.51379 -14.47843 -14.45509 -14.42445
 Alpha  occ. eigenvalues --  -14.38849 -10.47929 -10.42575 -10.41932 -10.39656
 Alpha  occ. eigenvalues --  -10.35964 -10.33972 -10.33787 -10.33048 -10.32626
 Alpha  occ. eigenvalues --  -10.30477 -10.29849 -10.29081 -10.28384 -10.27745
 Alpha  occ. eigenvalues --  -10.27257 -10.27077 -10.27027 -10.26283 -10.25730
 Alpha  occ. eigenvalues --  -10.25664 -10.25519 -10.25160 -10.24747 -10.24263
 Alpha  occ. eigenvalues --  -10.23654 -10.20447  -1.20941  -1.17990  -1.16394
 Alpha  occ. eigenvalues --   -1.12809  -1.12146  -1.10454  -1.08024  -1.05415
 Alpha  occ. eigenvalues --   -1.05373  -1.04682  -1.04514  -1.03344  -1.01721
 Alpha  occ. eigenvalues --   -0.98759  -0.95626  -0.93651  -0.93269  -0.90815
 Alpha  occ. eigenvalues --   -0.89093  -0.88356  -0.86180  -0.84197  -0.81992
 Alpha  occ. eigenvalues --   -0.80636  -0.80397  -0.79325  -0.78418  -0.78261
 Alpha  occ. eigenvalues --   -0.75603  -0.74266  -0.73933  -0.73031  -0.72905
 Alpha  occ. eigenvalues --   -0.72566  -0.70917  -0.69865  -0.69304  -0.69192
 Alpha  occ. eigenvalues --   -0.67010  -0.66491  -0.66045  -0.65321  -0.65063
 Alpha  occ. eigenvalues --   -0.64347  -0.63108  -0.62320  -0.62110  -0.61171
 Alpha  occ. eigenvalues --   -0.61030  -0.60068  -0.59264  -0.58869  -0.58636
 Alpha  occ. eigenvalues --   -0.58230  -0.57685  -0.57184  -0.55780  -0.55359
 Alpha  occ. eigenvalues --   -0.54962  -0.54484  -0.54129  -0.53728  -0.53294
 Alpha  occ. eigenvalues --   -0.52499  -0.51873  -0.51747  -0.51587  -0.50537
 Alpha  occ. eigenvalues --   -0.50475  -0.50369  -0.49898  -0.49390  -0.49249
 Alpha  occ. eigenvalues --   -0.48812  -0.48595  -0.48223  -0.48083  -0.47683
 Alpha  occ. eigenvalues --   -0.47377  -0.46924  -0.45912  -0.45475  -0.45193
 Alpha  occ. eigenvalues --   -0.44816  -0.44556  -0.43604  -0.43453  -0.42910
 Alpha  occ. eigenvalues --   -0.42739  -0.42123  -0.41478  -0.40606  -0.40398
 Alpha  occ. eigenvalues --   -0.40317  -0.40271  -0.39993  -0.39687  -0.39343
 Alpha  occ. eigenvalues --   -0.39004  -0.38468  -0.37941  -0.37773  -0.36260
 Alpha  occ. eigenvalues --   -0.34608  -0.34118  -0.33319  -0.32466  -0.30729
 Alpha  occ. eigenvalues --   -0.30126  -0.29353  -0.28259  -0.27749  -0.24240
 Alpha  occ. eigenvalues --   -0.23510  -0.22092
 Alpha virt. eigenvalues --   -0.12169  -0.11332  -0.10520  -0.09110  -0.08218
 Alpha virt. eigenvalues --   -0.07849  -0.05354  -0.05314  -0.04342  -0.04260
 Alpha virt. eigenvalues --   -0.04073  -0.03166  -0.02550  -0.02450  -0.01418

 Mulliken charges:
               1
     1  N   -0.755267
     2  H    0.415608
     3  H    0.435745
     4  H    0.412139
     5  C   -0.112214
     6  H    0.219317
     7  C    0.659510
     8  C   -0.310945
     9  H    0.178024
    10  H    0.200745
    11  O   -0.542873
    12  C   -0.390914
    13  H    0.257285
    14  H    0.210434
    15  C    0.576537
    16  O   -0.415709
    17  O   -0.598360
    18  N   -0.598405
    19  H    0.381172
    20  C   -0.046108
    21  H    0.184812
    22  C    0.648025
    23  C   -0.399068
    24  H    0.182674
    25  H    0.167812
    26  O   -0.554126
    27  C    0.061819
    28  C   -0.018827
    29  H    0.152947
    30  C    0.085374
    31  C    0.307107
    32  C   -0.215170
    33  H    0.130027
    34  N   -0.686756
    35  H    0.336718
    36  C   -0.149715
    37  H    0.141768
    38  C   -0.161920
    39  H    0.136432
    40  C   -0.139328
    41  H    0.138501
    42  N   -0.617927
    43  H    0.358539
    44  C   -0.058061
    45  H    0.171350
    46  C    0.579091
    47  C    0.153112
    48  H    0.136844
    49  O   -0.556401
    50  C   -0.493323
    51  H    0.136270
    52  H    0.154657
    53  H    0.186377
    54  O   -0.681913
    55  H    0.456831
    56  N   -0.596449
    57  H    0.336560
    58  C   -0.092424
    59  H    0.173656
    60  C    0.592036
    61  C   -0.268358
    62  H    0.171558
    63  H    0.112081
    64  O   -0.570018
    65  C   -0.280433
    66  H    0.186477
    67  H    0.133987
    68  C   -0.191453
    69  H    0.202814
    70  H    0.176234
    71  N   -0.571843
    72  H    0.377927
    73  N   -0.753985
    74  H    0.382367
    75  H    0.395844
    76  N   -0.756564
    77  H    0.385660
    78  H    0.382491
    79  C    0.815119
    80  O   -0.619017
    81  H    0.425464
 Sum of Mulliken charges =   1.00000

 Dipole moment (field-independent basis, Debye):
    X=            -14.0685    Y=             12.4865    Z=             -8.8832  Tot=             20.8026
 Quadrupole moment (field-independent basis, Debye-Ang):
   XX=           -111.8728   YY=           -208.9455   ZZ=             35.5394
   XY=             42.0002   XZ=           -157.9294   YZ=            -86.6573

 Normal termination of Gaussian 16 at Thu May 26 18:09:23 2022.
