 Gaussian 16, Revision C.01,
 Gaussian 16:  ES64L-G16RevC.01  3-Jul-2019

 -------------------------------------------------------------------
 # B3LYP/6-31G* guess=read geom=check nosymm integral(ultrafinegrid)
 -------------------------------------------------------------------

 ------------------------------------------------------
 Candidate Structure: Conf:962 Charge calc in gas phase
 ------------------------------------------------------
 Structure from the checkpoint file:  "conf-962.chk"
 Charge =  1 Multiplicity = 1

                          Input orientation:
 ---------------------------------------------------------------------
 Center     Atomic      Atomic             Coordinates (Angstroms)
 Number     Number       Type             X           Y           Z
 ---------------------------------------------------------------------
      1          7           0       -3.372515    3.500937    3.320921
      2          1           0       -4.204841    4.050682    3.540310
      3          1           0       -3.411664    2.563142    3.794823
      4          1           0       -2.503736    4.013705    3.647230
      5          6           0       -3.244820    3.161996    1.855468
      6          1           0       -4.195164    3.412954    1.374655
      7          6           0       -3.076718    1.613681    1.845404
      8          6           0       -2.112054    3.950242    1.165944
      9          1           0       -2.193802    3.749581    0.092861
     10          1           0       -2.320216    5.021615    1.278377
     11          8           0       -3.124881    1.006682    2.918540
     12          6           0       -0.661427    3.636980    1.580025
     13          1           0        0.016338    3.960614    0.784843
     14          1           0       -0.497054    2.551140    1.643489
     15          6           0       -0.228451    4.263668    2.877777
     16          8           0       -0.979538    4.612280    3.790495
     17          8           0        1.088789    4.411423    2.970661
     18          7           0       -2.932494    1.047849    0.642146
     19          1           0       -2.909981    1.641707   -0.177673
     20          6           0       -2.570340   -0.353180    0.459631
     21          1           0       -3.063484   -0.910810    1.263101
     22          6           0       -1.033026   -0.473635    0.653772
     23          6           0       -3.063058   -0.871565   -0.921222
     24          1           0       -3.008141   -1.965448   -0.910134
     25          1           0       -2.355809   -0.542344   -1.692672
     26          8           0       -0.395877    0.429822    1.204555
     27          6           0       -4.451947   -0.431353   -1.283514
     28          6           0       -5.632510   -1.086344   -1.028380
     29          1           0       -5.802195   -2.047166   -0.560960
     30          6           0       -4.805266    0.801862   -1.945049
     31          6           0       -6.223887    0.833029   -2.046263
     32          6           0       -4.065611    1.880873   -2.467919
     33          1           0       -2.975972    1.869926   -2.458067
     34          7           0       -6.696304   -0.330715   -1.474750
     35          1           0       -7.662112   -0.621710   -1.453881
     36          6           0       -6.150254    2.956749   -3.130824
     37          1           0       -6.652443    3.798752   -3.597930
     38          6           0       -6.907819    1.901080   -2.635938
     39          1           0       -7.991805    1.906391   -2.709714
     40          6           0       -4.742630    2.946502   -3.050441
     41          1           0       -4.179859    3.778065   -3.465382
     42          7           0       -0.440243   -1.569694    0.143115
     43          1           0       -0.996381   -2.390717   -0.076208
     44          6           0        0.989747   -1.858292    0.316304
     45          1           0        1.278509   -1.537362    1.326861
     46          6           0        1.889110   -1.088985   -0.696536
     47          6           0        1.201667   -3.394003    0.151920
     48          1           0        1.295235   -3.606921   -0.915712
     49          8           0        2.823167   -1.657245   -1.257516
     50          6           0        2.445412   -3.887615    0.878127
     51          1           0        3.331732   -3.374058    0.499267
     52          1           0        2.566427   -4.963689    0.721004
     53          1           0        2.367877   -3.700402    1.958518
     54          8           0        0.027547   -4.107166    0.564034
     55          1           0        0.056423   -4.198160    1.531150
     56          7           0        1.575761    0.212834   -0.901387
     57          1           0        0.888802    0.667739   -0.307579
     58          6           0        2.358712    1.078393   -1.771838
     59          1           0        3.421733    0.994796   -1.520775
     60          6           0        1.899713    2.516924   -1.558649
     61          6           0        2.187406    0.700851   -3.276792
     62          1           0        1.116461    0.744243   -3.509593
     63          1           0        2.493516   -0.344703   -3.356367
     64          8           0        2.816063    3.385088   -1.950425
     65          6           0        3.016463    1.576001   -4.246318
     66          1           0        3.775099    2.116869   -3.677957
     67          1           0        3.560859    0.928440   -4.943260
     68          6           0        2.228079    2.591993   -5.120360
     69          1           0        2.864270    3.454892   -5.332645
     70          1           0        1.987343    2.120331   -6.080588
     71          7           0        0.955168    3.109892   -4.596923
     72          1           0        0.128014    2.594141   -4.860963
     73          7           0        1.640483    5.072713   -3.556924
     74          1           0        1.384646    6.050217   -3.433582
     75          1           0        2.381955    4.205860   -2.405542
     76          7           0       -0.564927    4.844550   -4.443502
     77          1           0       -0.935723    4.636682   -5.363871
     78          1           0       -0.755830    5.795186   -4.153536
     79          6           0        0.728036    4.397623   -4.188013
     80          8           0        0.781062    2.800460   -1.143018
     81          1           0        1.292390    4.789559    3.848889
 ---------------------------------------------------------------------

 SCF Done:  E(RB3LYP) =  -2053.94021276     A.U. after    1 cycles

 Alpha  occ. eigenvalues --  -19.31325 -19.26969 -19.25133 -19.23161 -19.22537
 Alpha  occ. eigenvalues --  -19.21885 -19.20017 -19.18240 -14.55638 -14.48432
 Alpha  occ. eigenvalues --  -14.46854 -14.45604 -14.44301 -14.43638 -14.41962
 Alpha  occ. eigenvalues --  -14.38349 -10.44616 -10.42071 -10.38914 -10.38865
 Alpha  occ. eigenvalues --  -10.38034 -10.37855 -10.35645 -10.34555 -10.33064
 Alpha  occ. eigenvalues --  -10.31677 -10.31331 -10.30999 -10.30744 -10.30393
 Alpha  occ. eigenvalues --  -10.30106 -10.29755 -10.29446 -10.27803 -10.27655
 Alpha  occ. eigenvalues --  -10.27547 -10.27496 -10.27106 -10.27053 -10.25343
 Alpha  occ. eigenvalues --  -10.24647 -10.24357  -1.22919  -1.17400  -1.14858
 Alpha  occ. eigenvalues --   -1.13909  -1.13766  -1.10565  -1.10377  -1.09904
 Alpha  occ. eigenvalues --   -1.06917  -1.06793  -1.06352  -1.05199  -1.01717
 Alpha  occ. eigenvalues --   -0.98624  -0.97443  -0.93530  -0.93226  -0.92679
 Alpha  occ. eigenvalues --   -0.90378  -0.87071  -0.86145  -0.85284  -0.84141
 Alpha  occ. eigenvalues --   -0.82368  -0.81069  -0.80821  -0.78620  -0.78026
 Alpha  occ. eigenvalues --   -0.75936  -0.74367  -0.72276  -0.71850  -0.71024
 Alpha  occ. eigenvalues --   -0.70171  -0.70114  -0.69667  -0.69011  -0.68146
 Alpha  occ. eigenvalues --   -0.67802  -0.66349  -0.65818  -0.65506  -0.63982
 Alpha  occ. eigenvalues --   -0.63343  -0.63102  -0.62832  -0.62115  -0.61085
 Alpha  occ. eigenvalues --   -0.61032  -0.60771  -0.59657  -0.59403  -0.59187
 Alpha  occ. eigenvalues --   -0.57654  -0.57343  -0.56917  -0.56239  -0.56016
 Alpha  occ. eigenvalues --   -0.55729  -0.55655  -0.55109  -0.54138  -0.53482
 Alpha  occ. eigenvalues --   -0.53139  -0.52876  -0.52639  -0.52367  -0.52296
 Alpha  occ. eigenvalues --   -0.51944  -0.51876  -0.51650  -0.51037  -0.50673
 Alpha  occ. eigenvalues --   -0.50611  -0.50021  -0.49828  -0.49105  -0.48895
 Alpha  occ. eigenvalues --   -0.48845  -0.48282  -0.48109  -0.47534  -0.47178
 Alpha  occ. eigenvalues --   -0.46516  -0.46342  -0.45875  -0.45436  -0.44518
 Alpha  occ. eigenvalues --   -0.44150  -0.44134  -0.43917  -0.43512  -0.43198
 Alpha  occ. eigenvalues --   -0.42452  -0.42187  -0.41799  -0.40780  -0.40527
 Alpha  occ. eigenvalues --   -0.40044  -0.39974  -0.39527  -0.38688  -0.36672
 Alpha  occ. eigenvalues --   -0.36547  -0.36318  -0.35922  -0.35732  -0.35400
 Alpha  occ. eigenvalues --   -0.34777  -0.33555  -0.31950  -0.31478  -0.31166
 Alpha  occ. eigenvalues --   -0.31138  -0.29267
 Alpha virt. eigenvalues --   -0.11258  -0.10787  -0.10261  -0.08154  -0.07355
 Alpha virt. eigenvalues --   -0.06516  -0.05733  -0.04695  -0.04450  -0.04256
 Alpha virt. eigenvalues --   -0.02861  -0.02508  -0.02285  -0.00863  -0.00522

 Mulliken charges:
               1
     1  N   -0.788185
     2  H    0.398577
     3  H    0.420540
     4  H    0.448099
     5  C   -0.112333
     6  H    0.218085
     7  C    0.651877
     8  C   -0.317493
     9  H    0.197640
    10  H    0.180102
    11  O   -0.529946
    12  C   -0.418573
    13  H    0.242192
    14  H    0.269660
    15  C    0.615841
    16  O   -0.516899
    17  O   -0.521109
    18  N   -0.587251
    19  H    0.360882
    20  C   -0.061786
    21  H    0.207019
    22  C    0.633280
    23  C   -0.414183
    24  H    0.174224
    25  H    0.177381
    26  O   -0.537885
    27  C    0.078081
    28  C    0.006875
    29  H    0.168324
    30  C    0.081070
    31  C    0.313826
    32  C   -0.262634
    33  H    0.133582
    34  N   -0.686622
    35  H    0.343543
    36  C   -0.153845
    37  H    0.143177
    38  C   -0.157304
    39  H    0.145611
    40  C   -0.143091
    41  H    0.129326
    42  N   -0.609499
    43  H    0.362481
    44  C   -0.082898
    45  H    0.181482
    46  C    0.631217
    47  C    0.120197
    48  H    0.178723
    49  O   -0.522024
    50  C   -0.486677
    51  H    0.200433
    52  H    0.174536
    53  H    0.134278
    54  O   -0.635635
    55  H    0.397225
    56  N   -0.659741
    57  H    0.382051
    58  C   -0.002304
    59  H    0.186566
    60  C    0.590267
    61  C   -0.272292
    62  H    0.122186
    63  H    0.190708
    64  O   -0.599994
    65  C   -0.291731
    66  H    0.186059
    67  H    0.151516
    68  C   -0.139884
    69  H    0.185735
    70  H    0.151264
    71  N   -0.588699
    72  H    0.328855
    73  N   -0.721175
    74  H    0.291590
    75  H    0.454865
    76  N   -0.758087
    77  H    0.336877
    78  H    0.333765
    79  C    0.661739
    80  O   -0.528637
    81  H    0.434988
 Sum of Mulliken charges =   1.00000

 Dipole moment (field-independent basis, Debye):
    X=            -16.1204    Y=             13.2978    Z=              0.7928  Tot=             20.9124
 Quadrupole moment (field-independent basis, Debye-Ang):
   XX=           -159.9591   YY=           -155.9939   ZZ=           -172.7884
   XY=            -31.2439   XZ=             -2.8892   YZ=             -4.8694

 Normal termination of Gaussian 16 at Thu May 26 18:09:13 2022.
