 Gaussian 16, Revision C.01,
 Gaussian 16:  ES64L-G16RevC.01  3-Jul-2019

 -------------------------------------------------------------------
 # B3LYP/6-31G* guess=read geom=check nosymm integral(ultrafinegrid)
 -------------------------------------------------------------------

 ------------------------------------------------------
 Candidate Structure: Conf:549 Charge calc in gas phase
 ------------------------------------------------------
 Structure from the checkpoint file:  "conf-549.chk"
 Charge =  1 Multiplicity = 1

                          Input orientation:
 ---------------------------------------------------------------------
 Center     Atomic      Atomic             Coordinates (Angstroms)
 Number     Number       Type             X           Y           Z
 ---------------------------------------------------------------------
      1          7           0       -1.853483   -1.844750    1.256291
      2          1           0       -1.899232   -2.826832    1.538043
      3          1           0       -1.872298   -1.761540    0.228685
      4          1           0       -0.913799   -1.413864    1.533255
      5          6           0       -3.024715   -1.020649    1.761116
      6          1           0       -3.921868   -1.480044    1.330606
      7          6           0       -2.781267    0.324184    1.031253
      8          6           0       -3.109412   -1.007990    3.284713
      9          1           0       -2.196069   -0.578772    3.711611
     10          1           0       -3.928907   -0.340080    3.573630
     11          8           0       -2.355223    0.252497   -0.129602
     12          6           0       -3.387776   -2.378400    3.912653
     13          1           0       -2.553334   -3.082700    3.805570
     14          1           0       -4.257707   -2.861180    3.444752
     15          6           0       -3.697680   -2.244562    5.397416
     16          8           0       -3.978910   -1.209429    5.956645
     17          8           0       -3.631731   -3.441575    6.009193
     18          7           0       -2.959132    1.459510    1.712435
     19          1           0       -3.376211    1.431830    2.635731
     20          6           0       -2.510451    2.775053    1.207581
     21          1           0       -2.678756    2.767108    0.126760
     22          6           0       -0.985377    2.870427    1.519728
     23          6           0       -3.294721    3.918301    1.880593
     24          1           0       -3.054784    4.838492    1.337535
     25          1           0       -2.886947    4.060287    2.887251
     26          8           0       -0.549399    3.593200    2.404407
     27          6           0       -4.778983    3.690950    1.930157
     28          6           0       -5.718973    4.078572    1.005996
     29          1           0       -5.597839    4.658505    0.100757
     30          6           0       -5.491972    2.956196    2.948278
     31          6           0       -6.861721    2.924000    2.565456
     32          6           0       -5.109900    2.316349    4.144741
     33          1           0       -4.085462    2.377916    4.511122
     34          7           0       -6.966027    3.619023    1.378101
     35          1           0       -7.826725    3.820466    0.892193
     36          6           0       -7.420949    1.626736    4.489356
     37          1           0       -8.154220    1.109405    5.101085
     38          6           0       -7.834784    2.268309    3.327006
     39          1           0       -8.878065    2.259100    3.023074
     40          6           0       -6.071459    1.650042    4.897987
     41          1           0       -5.779987    1.152324    5.817853
     42          7           0       -0.218296    2.011163    0.789813
     43          1           0       -0.670395    1.420874    0.098241
     44          6           0        1.155763    1.675362    1.148455
     45          1           0        1.600359    2.543525    1.640656
     46          6           0        1.894416    1.303093   -0.146174
     47          6           0        1.236480    0.446982    2.107248
     48          1           0        2.302146    0.200398    2.221617
     49          8           0        1.555616    0.251737   -0.739745
     50          6           0        0.640573    0.676926    3.485559
     51          1           0        1.163639    1.487833    4.000150
     52          1           0        0.737807   -0.233598    4.086767
     53          1           0       -0.415139    0.954204    3.424770
     54          8           0        0.586664   -0.689688    1.492169
     55          1           0        0.890687   -0.650638    0.540765
     56          7           0        2.864151    2.111305   -0.556014
     57          1           0        3.160433    2.945443   -0.039244
     58          6           0        3.752992    1.864898   -1.690385
     59          1           0        4.024022    0.804604   -1.711752
     60          6           0        4.999568    2.763278   -1.435004
     61          6           0        3.053985    2.256432   -3.024826
     62          1           0        3.057646    3.352882   -3.125441
     63          1           0        2.004616    1.961765   -2.917421
     64          8           0        6.022631    2.450967   -2.125535
     65          6           0        3.534849    1.588277   -4.324547
     66          1           0        3.535130    0.499773   -4.176836
     67          1           0        2.782438    1.780656   -5.104820
     68          6           0        4.916613    1.963790   -4.876718
     69          1           0        5.680918    1.792486   -4.119976
     70          1           0        5.128846    1.344663   -5.757567
     71          7           0        4.986939    3.376737   -5.297729
     72          1           0        4.261774    3.691194   -5.931160
     73          7           0        6.777016    4.146089   -3.996839
     74          1           0        7.524653    4.819256   -3.897859
     75          1           0        6.567188    3.495155   -3.168070
     76          7           0        5.943915    5.422369   -5.759399
     77          1           0        5.677695    5.377534   -6.732813
     78          1           0        6.546681    6.188108   -5.495749
     79          6           0        5.922779    4.294485   -4.994186
     80          8           0        4.855414    3.716650   -0.653887
     81          1           0       -3.864532   -3.302500    6.947629
 ---------------------------------------------------------------------

 SCF Done:  E(RB3LYP) =  -2053.94890627     A.U. after    1 cycles

 Alpha  occ. eigenvalues --  -19.29254 -19.24777 -19.24515 -19.23919 -19.20213
 Alpha  occ. eigenvalues --  -19.20191 -19.14131 -19.13887 -14.56693 -14.48596
 Alpha  occ. eigenvalues --  -14.47610 -14.47352 -14.45415 -14.44752 -14.44272
 Alpha  occ. eigenvalues --  -14.42971 -10.43157 -10.42340 -10.41956 -10.39059
 Alpha  occ. eigenvalues --  -10.37407 -10.36882 -10.33525 -10.33269 -10.32501
 Alpha  occ. eigenvalues --  -10.32350 -10.32076 -10.31857 -10.30190 -10.29475
 Alpha  occ. eigenvalues --  -10.29280 -10.27984 -10.27553 -10.26649 -10.26541
 Alpha  occ. eigenvalues --  -10.26243 -10.26236 -10.26046 -10.25913 -10.25560
 Alpha  occ. eigenvalues --  -10.25528 -10.25391  -1.20313  -1.17060  -1.12997
 Alpha  occ. eigenvalues --   -1.12053  -1.11491  -1.11410  -1.11134  -1.09948
 Alpha  occ. eigenvalues --   -1.07502  -1.05343  -1.04785  -1.01009  -1.00714
 Alpha  occ. eigenvalues --   -1.00051  -0.99034  -0.98122  -0.93485  -0.91200
 Alpha  occ. eigenvalues --   -0.89147  -0.87143  -0.86594  -0.85940  -0.83906
 Alpha  occ. eigenvalues --   -0.81981  -0.80845  -0.79930  -0.78994  -0.77658
 Alpha  occ. eigenvalues --   -0.75454  -0.74526  -0.72641  -0.71832  -0.71555
 Alpha  occ. eigenvalues --   -0.70051  -0.69647  -0.69333  -0.68993  -0.67968
 Alpha  occ. eigenvalues --   -0.67573  -0.66778  -0.66451  -0.65509  -0.64789
 Alpha  occ. eigenvalues --   -0.64198  -0.63238  -0.62982  -0.61732  -0.61016
 Alpha  occ. eigenvalues --   -0.60902  -0.60141  -0.59933  -0.59381  -0.59045
 Alpha  occ. eigenvalues --   -0.58126  -0.57654  -0.57414  -0.56056  -0.55902
 Alpha  occ. eigenvalues --   -0.55566  -0.55106  -0.54751  -0.54337  -0.54135
 Alpha  occ. eigenvalues --   -0.53888  -0.52860  -0.52541  -0.51648  -0.51458
 Alpha  occ. eigenvalues --   -0.51244  -0.50692  -0.50195  -0.50163  -0.49980
 Alpha  occ. eigenvalues --   -0.49804  -0.49703  -0.49284  -0.48868  -0.48327
 Alpha  occ. eigenvalues --   -0.48117  -0.47818  -0.47682  -0.47305  -0.46961
 Alpha  occ. eigenvalues --   -0.46813  -0.46599  -0.46176  -0.45764  -0.45323
 Alpha  occ. eigenvalues --   -0.44338  -0.43972  -0.43520  -0.43085  -0.42656
 Alpha  occ. eigenvalues --   -0.42417  -0.41521  -0.40999  -0.40912  -0.40582
 Alpha  occ. eigenvalues --   -0.40005  -0.39160  -0.38579  -0.38160  -0.37732
 Alpha  occ. eigenvalues --   -0.37549  -0.35480  -0.35164  -0.34880  -0.33449
 Alpha  occ. eigenvalues --   -0.33401  -0.32729  -0.29858  -0.29618  -0.28674
 Alpha  occ. eigenvalues --   -0.28261  -0.27750
 Alpha virt. eigenvalues --   -0.12013  -0.09174  -0.08860  -0.07701  -0.07527
 Alpha virt. eigenvalues --   -0.06592  -0.05459  -0.04989  -0.04404  -0.02544
 Alpha virt. eigenvalues --   -0.02234  -0.01528  -0.01064  -0.00790  -0.00583

 Mulliken charges:
               1
     1  N   -0.772337
     2  H    0.398407
     3  H    0.416793
     4  H    0.451274
     5  C   -0.120231
     6  H    0.218824
     7  C    0.657157
     8  C   -0.316550
     9  H    0.193818
    10  H    0.218198
    11  O   -0.552365
    12  C   -0.385450
    13  H    0.176443
    14  H    0.199121
    15  C    0.600042
    16  O   -0.443216
    17  O   -0.556692
    18  N   -0.611796
    19  H    0.373331
    20  C   -0.063453
    21  H    0.192379
    22  C    0.635005
    23  C   -0.400313
    24  H    0.179906
    25  H    0.194665
    26  O   -0.506930
    27  C    0.068711
    28  C    0.005667
    29  H    0.163094
    30  C    0.075878
    31  C    0.314901
    32  C   -0.267998
    33  H    0.137767
    34  N   -0.687168
    35  H    0.340043
    36  C   -0.157026
    37  H    0.141661
    38  C   -0.156723
    39  H    0.141122
    40  C   -0.142643
    41  H    0.155073
    42  N   -0.629595
    43  H    0.370012
    44  C   -0.084888
    45  H    0.195631
    46  C    0.641813
    47  C    0.149673
    48  H    0.159811
    49  O   -0.599278
    50  C   -0.472925
    51  H    0.189433
    52  H    0.158734
    53  H    0.146697
    54  O   -0.708769
    55  H    0.438394
    56  N   -0.600041
    57  H    0.367121
    58  C   -0.042902
    59  H    0.164468
    60  C    0.586910
    61  C   -0.265846
    62  H    0.142696
    63  H    0.158945
    64  O   -0.623803
    65  C   -0.283943
    66  H    0.165164
    67  H    0.132925
    68  C   -0.160408
    69  H    0.231247
    70  H    0.162721
    71  N   -0.600753
    72  H    0.343479
    73  N   -0.764738
    74  H    0.351845
    75  H    0.447997
    76  N   -0.764410
    77  H    0.363014
    78  H    0.366424
    79  C    0.779021
    80  O   -0.550177
    81  H    0.429911
 Sum of Mulliken charges =   1.00000

 Dipole moment (field-independent basis, Debye):
    X=             -5.2056    Y=              3.5921    Z=             -6.9036  Tot=              9.3628
 Quadrupole moment (field-independent basis, Debye-Ang):
   XX=           -119.6253   YY=           -169.9994   ZZ=           -127.2136
   XY=             50.2680   XZ=            -99.4137   YZ=            -97.1696

 Normal termination of Gaussian 16 at Thu May 26 18:08:02 2022.
