 Gaussian 16, Revision C.01,
 Gaussian 16:  ES64L-G16RevC.01  3-Jul-2019

 ----------------------------------------------------------------------
 # B3LYP/6-31G* empiricaldispersion=gd3bj guess=read geom=check nosymm
 integral(ultrafinegrid)
 ----------------------------------------------------------------------

 ------------------------------------------------------
 Candidate Structure: Conf:772 Charge calc in gas phase
 ------------------------------------------------------
 Structure from the checkpoint file:  "conf-772.chk"
 Charge =  1 Multiplicity = 1

                          Input orientation:
 ---------------------------------------------------------------------
 Center     Atomic      Atomic             Coordinates (Angstroms)
 Number     Number       Type             X           Y           Z
 ---------------------------------------------------------------------
      1          7           0       -2.706130    3.356146    1.817447
      2          1           0       -3.446301    2.958162    1.235110
      3          1           0       -3.008103    4.302628    2.076093
      4          6           0       -2.668371    2.600478    3.092957
      5          1           0       -1.813985    2.990070    3.660643
      6          6           0       -2.415782    1.120164    2.763040
      7          6           0       -3.937881    2.749503    3.938492
      8          1           0       -4.798284    2.386985    3.362187
      9          1           0       -3.872087    2.099659    4.816676
     10          8           0       -3.231943    0.237658    3.009743
     11          6           0       -4.191662    4.198577    4.342252
     12          7           0       -4.849660    4.368138    5.514498
     13          1           0       -5.089927    5.306888    5.803236
     14          1           0       -5.147985    3.593672    6.087968
     15          8           0       -3.840085    5.154813    3.648899
     16          7           0       -1.240990    0.907933    2.124234
     17          1           0       -0.611585    1.681093    1.949761
     18          6           0       -0.884693   -0.307798    1.429730
     19          1           0       -0.696015   -1.113129    2.153210
     20          6           0        0.444505   -0.006566    0.715481
     21          6           0       -2.001738   -0.809239    0.469236
     22          1           0       -1.598798   -1.628268   -0.138539
     23          1           0       -2.789485   -1.229788    1.095179
     24          8           0        0.956822    1.117718    0.737599
     25          6           0       -2.582655    0.260806   -0.426148
     26          6           0       -3.867739    0.758883   -0.174035
     27          1           0       -4.425045    0.378802    0.676927
     28          6           0       -1.863754    0.756604   -1.522018
     29          1           0       -0.866504    0.386348   -1.742423
     30          6           0       -4.436163    1.724782   -1.008353
     31          1           0       -5.445978    2.078127   -0.817901
     32          6           0       -2.431642    1.717505   -2.358468
     33          1           0       -1.869483    2.073336   -3.217631
     34          6           0       -3.720784    2.201564   -2.110917
     35          1           0       -4.178136    2.917056   -2.790312
     36          7           0        1.029578   -1.056840    0.102875
     37          1           0        0.547365   -1.943735    0.078222
     38          6           0        2.323809   -0.938470   -0.550667
     39          1           0        3.071645   -0.674939    0.201518
     40          6           0        2.270284    0.192993   -1.602076
     41          6           0        2.725486   -2.273046   -1.181520
     42          1           0        2.135036   -2.465644   -2.085221
     43          1           0        2.523492   -3.090689   -0.475657
     44          8           0        1.250751    0.439602   -2.243174
     45          6           0        4.225740   -2.291320   -1.496012
     46          7           0        4.637174   -3.320182   -2.274132
     47          1           0        5.624259   -3.409432   -2.473821
     48          1           0        4.008890   -4.029150   -2.621795
     49          8           0        4.995584   -1.443950   -1.053714
     50          7           0        3.420757    0.886338   -1.724077
     51          1           0        4.246696    0.558072   -1.233041
     52          6           0        3.449466    2.178826   -2.387857
     53          1           0        3.023217    2.091343   -3.391482
     54          6           0        4.867936    2.692574   -2.557083
     55          6           0        2.594170    3.174770   -1.564937
     56          1           0        1.579381    2.769438   -1.607667
     57          1           0        2.927344    3.112716   -0.521648
     58          8           0        5.173413    3.563069   -3.338355
     59          6           0        2.600650    4.629644   -2.024640
     60          1           0        3.589583    5.077213   -1.884842
     61          1           0        2.385349    4.703693   -3.097776
     62          6           0        1.583677    5.460429   -1.236641
     63          1           0        1.665637    5.271357   -0.162207
     64          1           0        1.760031    6.529711   -1.391788
     65          7           0        0.191268    5.197839   -1.625288
     66          1           0       -0.115042    5.616355   -2.493622
     67          7           0       -0.486284    3.729492    0.081846
     68          1           0       -1.267397    3.488434    0.744501
     69          1           0        0.363064    3.175157    0.105279
     70          7           0       -2.050589    4.841406   -1.175720
     71          1           0       -2.730815    4.095313   -1.075514
     72          1           0       -2.296774    5.615118   -1.775399
     73          6           0       -0.754680    4.570822   -0.906542
     74          8           0        5.736743    2.117246   -1.697976
     75          1           0        6.615390    2.507091   -1.868589
 ---------------------------------------------------------------------

 SCF Done:  E(RB3LYP) =  -1917.56895127     A.U. after    3 cycles

 Alpha  occ. eigenvalues --  -19.28873 -19.23219 -19.22755 -19.21153 -19.20573
 Alpha  occ. eigenvalues --  -19.20369 -19.20063 -14.49993 -14.48784 -14.47217
 Alpha  occ. eigenvalues --  -14.46669 -14.45231 -14.44608 -14.44392 -14.44198
 Alpha  occ. eigenvalues --  -14.42363 -10.45073 -10.41113 -10.39859 -10.39097
 Alpha  occ. eigenvalues --  -10.37789 -10.37713 -10.37428 -10.34127 -10.33642
 Alpha  occ. eigenvalues --  -10.33546 -10.33116 -10.32085 -10.30734 -10.28799
 Alpha  occ. eigenvalues --  -10.28599 -10.28596 -10.28510 -10.28276 -10.28216
 Alpha  occ. eigenvalues --  -10.28187 -10.28035 -10.27580 -10.27022  -1.19679
 Alpha  occ. eigenvalues --   -1.15126  -1.13644  -1.13089  -1.12434  -1.12210
 Alpha  occ. eigenvalues --   -1.11750  -1.10623  -1.03686  -1.03515  -1.01963
 Alpha  occ. eigenvalues --   -1.01711  -1.00951  -1.00064  -0.99081  -0.98725
 Alpha  occ. eigenvalues --   -0.94542  -0.90681  -0.89542  -0.87562  -0.85238
 Alpha  occ. eigenvalues --   -0.84955  -0.83309  -0.83051  -0.79650  -0.77749
 Alpha  occ. eigenvalues --   -0.76925  -0.75572  -0.73890  -0.72343  -0.71107
 Alpha  occ. eigenvalues --   -0.70982  -0.69359  -0.68599  -0.68496  -0.68171
 Alpha  occ. eigenvalues --   -0.67270  -0.67009  -0.66625  -0.65652  -0.63834
 Alpha  occ. eigenvalues --   -0.63365  -0.63014  -0.62709  -0.61991  -0.61402
 Alpha  occ. eigenvalues --   -0.60772  -0.60214  -0.59543  -0.59158  -0.57848
 Alpha  occ. eigenvalues --   -0.57685  -0.57311  -0.56738  -0.56380  -0.55925
 Alpha  occ. eigenvalues --   -0.55667  -0.54753  -0.54503  -0.54473  -0.54064
 Alpha  occ. eigenvalues --   -0.53944  -0.53483  -0.53270  -0.52526  -0.51703
 Alpha  occ. eigenvalues --   -0.50851  -0.50725  -0.50594  -0.50302  -0.50036
 Alpha  occ. eigenvalues --   -0.49571  -0.49507  -0.49209  -0.48824  -0.48746
 Alpha  occ. eigenvalues --   -0.48007  -0.47896  -0.47335  -0.47073  -0.46723
 Alpha  occ. eigenvalues --   -0.45842  -0.45587  -0.45249  -0.44826  -0.44566
 Alpha  occ. eigenvalues --   -0.44194  -0.43561  -0.42465  -0.42244  -0.40660
 Alpha  occ. eigenvalues --   -0.40007  -0.38497  -0.37443  -0.36979  -0.36821
 Alpha  occ. eigenvalues --   -0.36763  -0.36344  -0.35308  -0.35236  -0.34635
 Alpha  occ. eigenvalues --   -0.34163  -0.34021  -0.33926  -0.33756  -0.33558
 Alpha  occ. eigenvalues --   -0.33282
 Alpha virt. eigenvalues --   -0.10941  -0.10016  -0.09340  -0.08468  -0.08368
 Alpha virt. eigenvalues --   -0.07372  -0.07010  -0.06618  -0.05682  -0.05453
 Alpha virt. eigenvalues --   -0.02575  -0.01502  -0.01091  -0.00988  -0.00586

 Mulliken charges:
               1
     1  N   -0.802948
     2  H    0.323418
     3  H    0.366314
     4  C   -0.085906
     5  H    0.172248
     6  C    0.645657
     7  C   -0.373782
     8  H    0.190461
     9  H    0.176213
    10  O   -0.530932
    11  C    0.619620
    12  N   -0.741417
    13  H    0.357638
    14  H    0.353132
    15  O   -0.528348
    16  N   -0.631999
    17  H    0.355660
    18  C   -0.018274
    19  H    0.188021
    20  C    0.650194
    21  C   -0.393105
    22  H    0.150975
    23  H    0.206769
    24  O   -0.568048
    25  C    0.170019
    26  C   -0.208712
    27  H    0.170066
    28  C   -0.198802
    29  H    0.202048
    30  C   -0.147166
    31  H    0.151790
    32  C   -0.150710
    33  H    0.142624
    34  C   -0.185324
    35  H    0.143083
    36  N   -0.633054
    37  H    0.344717
    38  C    0.002568
    39  H    0.198514
    40  C    0.633211
    41  C   -0.434496
    42  H    0.192515
    43  H    0.188687
    44  O   -0.536466
    45  C    0.629475
    46  N   -0.743778
    47  H    0.363230
    48  H    0.352918
    49  O   -0.512344
    50  N   -0.628797
    51  H    0.396962
    52  C   -0.022735
    53  H    0.199644
    54  C    0.586082
    55  C   -0.305132
    56  H    0.179972
    57  H    0.161831
    58  O   -0.454724
    59  C   -0.264820
    60  H    0.179545
    61  H    0.160155
    62  C   -0.171667
    63  H    0.184221
    64  H    0.186746
    65  N   -0.590762
    66  H    0.350580
    67  N   -0.825494
    68  H    0.443575
    69  H    0.401067
    70  N   -0.767719
    71  H    0.381443
    72  H    0.358331
    73  C    0.783765
    74  O   -0.567436
    75  H    0.429194
 Sum of Mulliken charges =   1.00000

 Dipole moment (field-independent basis, Debye):
    X=             -0.9853    Y=              9.3084    Z=             -1.0990  Tot=              9.4247
 Quadrupole moment (field-independent basis, Debye-Ang):
   XX=           -160.4036   YY=           -127.4285   ZZ=           -181.2503
   XY=            -41.6553   XZ=            -31.3333   YZ=              7.4755

 Normal termination of Gaussian 16 at Mon Jun 27 16:18:15 2022.
