 Gaussian 16, Revision C.01,
 Gaussian 16:  ES64L-G16RevC.01  3-Jul-2019

 ----------------------------------------------------------------------
 # B3LYP/6-31G* empiricaldispersion=gd3bj guess=read geom=check nosymm
 integral(ultrafinegrid)
 ----------------------------------------------------------------------

 ------------------------------------------------------
 Candidate Structure: Conf:102 Charge calc in gas phase
 ------------------------------------------------------
 Structure from the checkpoint file:  "conf-102.chk"
 Charge =  1 Multiplicity = 1

                          Input orientation:
 ---------------------------------------------------------------------
 Center     Atomic      Atomic             Coordinates (Angstroms)
 Number     Number       Type             X           Y           Z
 ---------------------------------------------------------------------
      1          7           0       -3.838271    4.497820    2.019320
      2          1           0       -4.718496    4.178045    1.609183
      3          1           0       -4.067136    5.157067    2.770038
      4          6           0       -3.214633    3.331431    2.680787
      5          1           0       -2.245993    3.661340    3.075606
      6          6           0       -3.032732    2.267867    1.594420
      7          6           0       -4.046686    2.762199    3.839674
      8          1           0       -5.019467    2.438623    3.448697
      9          1           0       -3.560450    1.865537    4.244072
     10          8           0       -4.008474    1.766303    1.045180
     11          6           0       -4.251234    3.792857    4.950443
     12          7           0       -4.657255    3.291183    6.140253
     13          1           0       -4.860384    3.936433    6.892114
     14          1           0       -4.835977    2.308815    6.286699
     15          8           0       -4.060666    4.995637    4.772709
     16          7           0       -1.748297    1.987529    1.263688
     17          1           0       -0.986875    2.398821    1.784925
     18          6           0       -1.361369    1.057294    0.218960
     19          1           0       -1.760744    0.063696    0.450376
     20          6           0        0.168633    1.022105    0.208848
     21          6           0       -1.891982    1.462968   -1.189325
     22          1           0       -2.968056    1.617627   -1.083394
     23          1           0       -1.434790    2.415626   -1.478701
     24          8           0        0.830724    2.019712    0.562171
     25          6           0       -1.588736    0.385024   -2.200764
     26          6           0       -0.530579    0.515018   -3.105915
     27          1           0        0.037408    1.440305   -3.135473
     28          6           0       -2.298519   -0.824094   -2.160703
     29          1           0       -3.131974   -0.933579   -1.470341
     30          6           0       -0.173476   -0.539655   -3.945986
     31          1           0        0.669582   -0.428379   -4.618864
     32          6           0       -1.946690   -1.880627   -3.001308
     33          1           0       -2.506720   -2.810206   -2.962807
     34          6           0       -0.879359   -1.741752   -3.892013
     35          1           0       -0.601433   -2.566243   -4.541284
     36          7           0        0.717747   -0.122006   -0.217844
     37          1           0        0.097612   -0.823419   -0.607361
     38          6           0        2.158612   -0.343364   -0.386448
     39          1           0        2.661527    0.086163    0.484314
     40          6           0        2.654257    0.351840   -1.675653
     41          6           0        2.443396   -1.841963   -0.451048
     42          1           0        2.016872   -2.253456   -1.370521
     43          1           0        1.990344   -2.331107    0.415014
     44          8           0        2.770194   -0.243442   -2.742769
     45          6           0        3.956443   -2.073125   -0.359774
     46          7           0        4.561623   -2.388496   -1.539115
     47          1           0        5.573535   -2.406213   -1.535629
     48          1           0        4.104744   -2.126074   -2.403590
     49          8           0        4.538844   -1.971075    0.709184
     50          7           0        2.914947    1.671109   -1.522980
     51          1           0        2.761124    2.081947   -0.610018
     52          6           0        3.345766    2.513139   -2.618832
     53          1           0        2.947122    2.066967   -3.537953
     54          6           0        4.865896    2.554150   -2.812902
     55          6           0        2.807321    3.940566   -2.448508
     56          1           0        3.230677    4.366209   -1.527087
     57          1           0        3.189177    4.547877   -3.273110
     58          8           0        5.410496    3.357169   -3.534862
     59          6           0        1.279243    3.979749   -2.377463
     60          1           0        0.845495    3.700423   -3.345997
     61          1           0        0.932255    3.238211   -1.651588
     62          6           0        0.766215    5.357190   -1.955271
     63          1           0        1.285237    5.699705   -1.055313
     64          1           0        0.943905    6.102634   -2.735882
     65          7           0       -0.671545    5.372345   -1.655370
     66          1           0       -1.315000    5.546863   -2.415416
     67          7           0       -0.415734    4.778548    0.575003
     68          1           0       -0.807237    4.849133    1.504274
     69          1           0        0.188992    3.968265    0.424517
     70          7           0       -2.448282    5.601701   -0.167334
     71          1           0       -2.962364    5.227128    0.681102
     72          1           0       -2.957738    6.166313   -0.833812
     73          6           0       -1.196285    5.240974   -0.427040
     74          8           0        5.513605    1.602669   -2.117404
     75          1           0        6.461727    1.700072   -2.330974
 ---------------------------------------------------------------------

 SCF Done:  E(RB3LYP) =  -1917.56401286     A.U. after    1 cycles

 Alpha  occ. eigenvalues --  -19.28469 -19.25479 -19.22800 -19.22536 -19.21756
 Alpha  occ. eigenvalues --  -19.21690 -19.18033 -14.51681 -14.49992 -14.49213
 Alpha  occ. eigenvalues --  -14.48847 -14.47996 -14.46192 -14.45664 -14.44675
 Alpha  occ. eigenvalues --  -14.41999 -10.46836 -10.41848 -10.40826 -10.40035
 Alpha  occ. eigenvalues --  -10.39500 -10.38773 -10.35948 -10.35565 -10.35490
 Alpha  occ. eigenvalues --  -10.34680 -10.34167 -10.33956 -10.30581 -10.30577
 Alpha  occ. eigenvalues --  -10.30101 -10.30012 -10.29085 -10.28216 -10.27949
 Alpha  occ. eigenvalues --  -10.27937 -10.27812 -10.27589 -10.27480  -1.19406
 Alpha  occ. eigenvalues --   -1.16783  -1.15454  -1.14871  -1.13681  -1.13456
 Alpha  occ. eigenvalues --   -1.10354  -1.09928  -1.05303  -1.05137  -1.04442
 Alpha  occ. eigenvalues --   -1.03172  -1.02916  -1.01289  -1.00459  -0.97052
 Alpha  occ. eigenvalues --   -0.94989  -0.91970  -0.90568  -0.88238  -0.87105
 Alpha  occ. eigenvalues --   -0.86145  -0.83647  -0.83290  -0.80634  -0.78333
 Alpha  occ. eigenvalues --   -0.77761  -0.77069  -0.75111  -0.72796  -0.72648
 Alpha  occ. eigenvalues --   -0.72091  -0.70315  -0.69642  -0.69241  -0.69033
 Alpha  occ. eigenvalues --   -0.68765  -0.68243  -0.67226  -0.65845  -0.65117
 Alpha  occ. eigenvalues --   -0.64637  -0.64377  -0.63312  -0.63164  -0.61750
 Alpha  occ. eigenvalues --   -0.61528  -0.60390  -0.60209  -0.59912  -0.59353
 Alpha  occ. eigenvalues --   -0.59110  -0.58803  -0.57841  -0.57744  -0.56775
 Alpha  occ. eigenvalues --   -0.56594  -0.56152  -0.55787  -0.55596  -0.54628
 Alpha  occ. eigenvalues --   -0.54413  -0.54204  -0.53729  -0.52975  -0.52232
 Alpha  occ. eigenvalues --   -0.51883  -0.51588  -0.51396  -0.50831  -0.50724
 Alpha  occ. eigenvalues --   -0.50415  -0.50201  -0.49739  -0.49429  -0.49191
 Alpha  occ. eigenvalues --   -0.48974  -0.48793  -0.48087  -0.47008  -0.46911
 Alpha  occ. eigenvalues --   -0.46760  -0.46375  -0.46155  -0.45560  -0.45513
 Alpha  occ. eigenvalues --   -0.44619  -0.44117  -0.43166  -0.42812  -0.42120
 Alpha  occ. eigenvalues --   -0.40447  -0.40135  -0.40036  -0.39186  -0.38909
 Alpha  occ. eigenvalues --   -0.38270  -0.37263  -0.36907  -0.36334  -0.35285
 Alpha  occ. eigenvalues --   -0.34973  -0.34552  -0.33801  -0.33471  -0.33308
 Alpha  occ. eigenvalues --   -0.31704
 Alpha virt. eigenvalues --   -0.11995  -0.11465  -0.09741  -0.09367  -0.09064
 Alpha virt. eigenvalues --   -0.08130  -0.07950  -0.07838  -0.07117  -0.05281
 Alpha virt. eigenvalues --   -0.04590  -0.02511  -0.02356  -0.01664  -0.01129

 Mulliken charges:
               1
     1  N   -0.788246
     2  H    0.337529
     3  H    0.372744
     4  C   -0.071191
     5  H    0.140238
     6  C    0.647048
     7  C   -0.388502
     8  H    0.208547
     9  H    0.173778
    10  O   -0.525947
    11  C    0.621695
    12  N   -0.741183
    13  H    0.363954
    14  H    0.354518
    15  O   -0.519648
    16  N   -0.647024
    17  H    0.339151
    18  C   -0.008673
    19  H    0.187931
    20  C    0.622156
    21  C   -0.376833
    22  H    0.210909
    23  H    0.136193
    24  O   -0.589772
    25  C    0.132602
    26  C   -0.191475
    27  H    0.123607
    28  C   -0.206158
    29  H    0.151090
    30  C   -0.113032
    31  H    0.159489
    32  C   -0.129687
    33  H    0.155318
    34  C   -0.137878
    35  H    0.155425
    36  N   -0.586670
    37  H    0.367072
    38  C   -0.067612
    39  H    0.205327
    40  C    0.649324
    41  C   -0.379345
    42  H    0.177725
    43  H    0.186213
    44  O   -0.535809
    45  C    0.565962
    46  N   -0.726881
    47  H    0.344524
    48  H    0.361663
    49  O   -0.494306
    50  N   -0.603929
    51  H    0.357497
    52  C   -0.049678
    53  H    0.209417
    54  C    0.603883
    55  C   -0.304408
    56  H    0.152342
    57  H    0.200070
    58  O   -0.449286
    59  C   -0.291446
    60  H    0.164184
    61  H    0.162303
    62  C   -0.164328
    63  H    0.193667
    64  H    0.191844
    65  N   -0.592942
    66  H    0.358135
    67  N   -0.779680
    68  H    0.367978
    69  H    0.405655
    70  N   -0.787944
    71  H    0.437831
    72  H    0.356835
    73  C    0.765100
    74  O   -0.555213
    75  H    0.426249
 Sum of Mulliken charges =   1.00000

 Dipole moment (field-independent basis, Debye):
    X=             -7.2737    Y=             15.4378    Z=              0.4516  Tot=             17.0716
 Quadrupole moment (field-independent basis, Debye-Ang):
   XX=           -183.7270   YY=           -142.9591   ZZ=           -172.3220
   XY=            -25.7942   XZ=            -39.7894   YZ=              1.7084

 Normal termination of Gaussian 16 at Mon Jun 27 16:17:34 2022.
