 Gaussian 16, Revision C.01,
 Gaussian 16:  ES64L-G16RevC.01  3-Jul-2019

 ----------------------------------------------------------------------
 # B3LYP/6-31G* empiricaldispersion=gd3bj guess=read geom=check nosymm
 integral(ultrafinegrid)
 ----------------------------------------------------------------------

 ------------------------------------------------------
 Candidate Structure: Conf:880 Charge calc in gas phase
 ------------------------------------------------------
 Structure from the checkpoint file:  "conf-880.chk"
 Charge =  1 Multiplicity = 1

                          Input orientation:
 ---------------------------------------------------------------------
 Center     Atomic      Atomic             Coordinates (Angstroms)
 Number     Number       Type             X           Y           Z
 ---------------------------------------------------------------------
      1          7           0       29.520470  -32.267800   41.012315
      2          6           0       30.750752  -31.676084   41.505407
      3          6           0       31.544067  -32.598700   42.453625
      4          8           0       31.272566  -33.775901   42.632091
      5          6           0       31.645080  -31.238907   40.312089
      6          6           0       31.418936  -29.825820   39.818382
      7          6           0       31.384905  -28.731321   40.698668
      8          6           0       31.313789  -29.555400   38.451795
      9          6           0       31.277045  -27.421129   40.238494
     10          6           0       31.197185  -28.251329   37.971766
     11          6           0       31.185674  -27.175272   38.863272
     12          8           0       31.081759  -25.876752   38.467247
     13          1           0       30.482099  -30.787334   42.088295
     14          1           0       32.705965  -31.351126   40.575474
     15          1           0       31.466948  -31.944679   39.494289
     16          1           0       31.413758  -28.897773   41.773311
     17          1           0       31.321604  -30.378889   37.743001
     18          1           0       31.236653  -26.581734   40.924985
     19          1           0       31.110649  -28.072479   36.902264
     20          1           0       30.986866  -25.838862   37.502576
     21          1           0       29.722143  -33.219454   40.704224
     22          1           0       28.860837  -32.375165   41.781117
     23          7           0       32.591667  -31.973596   43.101101
     24          6           0       33.599472  -32.771710   43.804237
     25          6           0       34.898947  -31.986936   43.835772
     26          8           0       35.993477  -32.526151   43.598877
     27          6           0       33.123378  -33.227504   45.214743
     28          6           0       32.730331  -32.064397   46.129207
     29          6           0       34.166218  -34.138143   45.870111
     30          1           0       32.908757  -31.110174   42.675268
     31          1           0       33.812112  -33.678818   43.229082
     32          1           0       32.226539  -33.818733   45.003105
     33          1           0       32.249668  -32.445740   47.035226
     34          1           0       33.604860  -31.482925   46.448761
     35          1           0       32.018731  -31.392026   45.637660
     36          1           0       34.437289  -34.974660   45.217227
     37          1           0       33.774199  -34.553004   46.803644
     38          1           0       35.085497  -33.589738   46.112692
     39          7           0       34.806091  -30.664481   44.128232
     40          6           0       35.775120  -29.674996   43.670701
     41          6           0       35.159539  -28.760422   42.598322
     42          8           0       35.638899  -27.706815   42.265455
     43          6           0       36.380783  -28.836574   44.808348
     44          6           0       37.143120  -29.626368   45.881924
     45          6           0       38.491821  -30.221156   45.456331
     46          7           0       38.298312  -31.388472   44.592311
     47          6           0       39.205249  -31.937275   43.792649
     48          7           0       40.501831  -31.596329   43.872561
     49          7           0       38.801661  -32.826289   42.868389
     50          8           0       34.041116  -29.298111   42.060354
     51          1           0       33.668013  -28.694273   41.380709
     52          1           0       33.880168  -30.318005   44.347842
     53          1           0       36.562408  -30.232857   43.155727
     54          1           0       35.568257  -28.287756   45.299418
     55          1           0       37.027966  -28.080382   44.353577
     56          1           0       36.510303  -30.424196   46.292055
     57          1           0       37.348181  -28.946565   46.715121
     58          1           0       39.052703  -30.517626   46.351689
     59          1           0       39.082137  -29.468414   44.918053
     60          1           0       37.353315  -31.776833   44.479744
     61          1           0       41.165691  -31.892635   43.172403
     62          1           0       40.844311  -31.021720   44.627406
     63          1           0       39.455898  -33.481223   42.465324
     64          1           0       37.810610  -33.049694   42.819011
 ---------------------------------------------------------------------

 SCF Done:  E(RB3LYP) =  -1486.62085337     A.U. after    1 cycles

 Alpha  occ. eigenvalues --  -19.31656 -19.26463 -19.25719 -19.24685 -19.20465
 Alpha  occ. eigenvalues --  -14.52903 -14.51417 -14.51273 -14.49783 -14.45012
 Alpha  occ. eigenvalues --  -14.38198 -10.48429 -10.44057 -10.42753 -10.37040
 Alpha  occ. eigenvalues --  -10.36998 -10.36703 -10.33529 -10.32236 -10.32198
 Alpha  occ. eigenvalues --  -10.31578 -10.30146 -10.28699 -10.27203 -10.26961
 Alpha  occ. eigenvalues --  -10.26881 -10.26657 -10.26424 -10.26397 -10.26274
 Alpha  occ. eigenvalues --  -10.26243  -1.22266  -1.17940  -1.16958  -1.13617
 Alpha  occ. eigenvalues --   -1.12874  -1.12265  -1.06768  -1.06359  -1.05187
 Alpha  occ. eigenvalues --   -1.01720  -0.96204  -0.93393  -0.92757  -0.90320
 Alpha  occ. eigenvalues --   -0.88481  -0.85062  -0.82980  -0.82392  -0.81317
 Alpha  occ. eigenvalues --   -0.79191  -0.78305  -0.77475  -0.75454  -0.74255
 Alpha  occ. eigenvalues --   -0.73084  -0.72277  -0.72041  -0.70749  -0.69546
 Alpha  occ. eigenvalues --   -0.68145  -0.66508  -0.66123  -0.65365  -0.65071
 Alpha  occ. eigenvalues --   -0.64332  -0.62840  -0.62217  -0.61850  -0.60842
 Alpha  occ. eigenvalues --   -0.60177  -0.58829  -0.58461  -0.57897  -0.57057
 Alpha  occ. eigenvalues --   -0.56078  -0.55974  -0.55800  -0.55085  -0.54517
 Alpha  occ. eigenvalues --   -0.54259  -0.53657  -0.52939  -0.52088  -0.51867
 Alpha  occ. eigenvalues --   -0.51450  -0.51039  -0.50615  -0.49621  -0.48932
 Alpha  occ. eigenvalues --   -0.48469  -0.48053  -0.47969  -0.47505  -0.47331
 Alpha  occ. eigenvalues --   -0.47196  -0.46820  -0.46538  -0.45325  -0.43805
 Alpha  occ. eigenvalues --   -0.43669  -0.43536  -0.43324  -0.43264  -0.42788
 Alpha  occ. eigenvalues --   -0.41925  -0.41675  -0.40910  -0.40737  -0.39902
 Alpha  occ. eigenvalues --   -0.39771  -0.37877  -0.34814  -0.34112  -0.32907
 Alpha  occ. eigenvalues --   -0.30929  -0.28925
 Alpha virt. eigenvalues --   -0.12869  -0.12282  -0.10896  -0.08502  -0.08085
 Alpha virt. eigenvalues --   -0.06641  -0.06251  -0.04745  -0.03917  -0.02909
 Alpha virt. eigenvalues --   -0.02051  -0.01483  -0.00378   0.00464   0.00524

 Mulliken charges:
               1
     1  N   -0.686460
     2  C   -0.078888
     3  C    0.564826
     4  O   -0.496770
     5  C   -0.367198
     6  C    0.202843
     7  C   -0.258979
     8  C   -0.193617
     9  C   -0.158141
    10  C   -0.185349
    11  C    0.356484
    12  O   -0.632667
    13  H    0.162729
    14  H    0.138099
    15  H    0.171915
    16  H    0.123364
    17  H    0.142857
    18  H    0.153801
    19  H    0.138789
    20  H    0.416739
    21  H    0.313992
    22  H    0.311749
    23  N   -0.667822
    24  C   -0.018096
    25  C    0.600462
    26  O   -0.582985
    27  C   -0.087527
    28  C   -0.474985
    29  C   -0.454957
    30  H    0.368533
    31  H    0.190752
    32  H    0.193250
    33  H    0.176272
    34  H    0.129558
    35  H    0.156747
    36  H    0.161613
    37  H    0.170299
    38  H    0.127697
    39  N   -0.573045
    40  C   -0.091191
    41  C    0.606152
    42  O   -0.427665
    43  C   -0.267877
    44  C   -0.320925
    45  C   -0.150758
    46  N   -0.632022
    47  C    0.806232
    48  N   -0.762181
    49  N   -0.780246
    50  O   -0.593905
    51  H    0.440199
    52  H    0.357781
    53  H    0.196394
    54  H    0.170741
    55  H    0.191634
    56  H    0.173917
    57  H    0.188592
    58  H    0.187058
    59  H    0.178404
    60  H    0.411756
    61  H    0.383562
    62  H    0.388525
    63  H    0.372388
    64  H    0.417549
 Sum of Mulliken charges =   1.00000

 Dipole moment (field-independent basis, Debye):
    X=            180.7328    Y=           -149.0764    Z=            209.2380  Tot=            314.1157
 Quadrupole moment (field-independent basis, Debye-Ang):
   XX=           6671.7458   YY=           4450.8540   ZZ=           8975.3674
   XY=          -5630.3445   XZ=           7888.0500   YZ=          -6498.5800

 Normal termination of Gaussian 16 at Mon Jun 27 16:17:22 2022.
