 Gaussian 16, Revision C.01,
 Gaussian 16:  ES64L-G16RevC.01  3-Jul-2019

 ----------------------------------------------------------------------
 # B3LYP/6-31G* empiricaldispersion=gd3bj guess=read geom=check nosymm
 integral(ultrafinegrid)
 ----------------------------------------------------------------------

 ------------------------------------------------------
 Candidate Structure: Conf:883 Charge calc in gas phase
 ------------------------------------------------------
 Structure from the checkpoint file:  "conf-883.chk"
 Charge =  1 Multiplicity = 1

                          Input orientation:
 ---------------------------------------------------------------------
 Center     Atomic      Atomic             Coordinates (Angstroms)
 Number     Number       Type             X           Y           Z
 ---------------------------------------------------------------------
      1          7           0       -0.635628   -2.698429    3.471164
      2          1           0       -0.983230   -3.471629    2.907187
      3          1           0        0.314740   -2.517899    3.149972
      4          6           0       -1.435127   -1.516983    3.215100
      5          1           0       -2.418478   -1.648269    3.686189
      6          6           0       -1.645318   -1.222847    1.715715
      7          6           0       -0.772590   -0.286181    3.886732
      8          1           0       -1.483632    0.540261    3.973332
      9          1           0       -0.480169   -0.592479    4.895782
     10          8           0       -0.932564   -1.729155    0.852003
     11          6           0        0.478670    0.174673    3.157624
     12          7           0        0.451512    1.435467    2.667201
     13          1           0        1.216811    1.698626    2.059201
     14          1           0       -0.433970    1.840575    2.384251
     15          8           0        1.470451   -0.561902    3.038056
     16          7           0       -2.616409   -0.320611    1.402310
     17          1           0       -3.163917    0.106938    2.136193
     18          6           0       -2.753638    0.208120    0.046518
     19          1           0       -2.988731   -0.617205   -0.633293
     20          6           0       -1.406985    0.837206   -0.347520
     21          6           0       -3.873898    1.258176   -0.002917
     22          1           0       -4.797411    0.794536    0.362723
     23          1           0       -3.607778    2.070528    0.682709
     24          8           0       -0.939990    1.785391    0.292191
     25          6           0       -4.066904    1.795161   -1.402186
     26          6           0       -3.371818    2.932829   -1.829056
     27          1           0       -2.714354    3.446832   -1.133265
     28          6           0       -4.902157    1.132168   -2.307774
     29          1           0       -5.452130    0.251271   -1.984626
     30          6           0       -3.513086    3.399762   -3.135488
     31          1           0       -2.976933    4.290072   -3.451296
     32          6           0       -5.042478    1.595611   -3.615240
     33          1           0       -5.698407    1.073567   -4.305537
     34          6           0       -4.347459    2.731357   -4.031911
     35          1           0       -4.460876    3.097416   -5.047934
     36          7           0       -0.766256    0.278462   -1.391556
     37          1           0       -1.138996   -0.546818   -1.844779
     38          6           0        0.625631    0.552316   -1.638026
     39          1           0        0.790356    1.627263   -1.528513
     40          6           0        0.952081    0.092395   -3.064713
     41          6           0        1.532840   -0.223928   -0.624677
     42          1           0        1.769617   -1.209760   -1.049540
     43          1           0        0.960908   -0.433206    0.278815
     44          8           0        0.205980   -0.628398   -3.703932
     45          6           0        2.847440    0.440789   -0.265218
     46          7           0        3.218229    0.349783    1.015392
     47          1           0        4.119632    0.723836    1.282790
     48          1           0        2.641024   -0.102151    1.747064
     49          8           0        3.547812    1.033901   -1.121296
     50          7           0        2.180140    0.533808   -3.478527
     51          1           0        2.761064    0.940234   -2.740732
     52          6           0        2.933558   -0.107298   -4.550265
     53          1           0        2.236107   -0.422332   -5.326689
     54          6           0        3.493144   -1.395615   -3.935541
     55          6           0        3.973275    0.911306   -5.051110
     56          1           0        3.451175    1.646209   -5.670636
     57          1           0        4.310428    1.468798   -4.171026
     58          8           0        2.954167   -2.470191   -3.954449
     59          6           0        5.198689    0.341307   -5.789433
     60          1           0        5.259257   -0.744528   -5.670485
     61          1           0        5.135761    0.528128   -6.865197
     62          6           0        6.517288    0.944776   -5.278293
     63          1           0        7.364922    0.453701   -5.763769
     64          1           0        6.567511    2.013913   -5.504254
     65          7           0        6.645664    0.770639   -3.818869
     66          1           0        6.151265   -0.035763   -3.445928
     67          7           0        7.548411    2.836837   -3.304777
     68          1           0        7.563916    3.679692   -2.751187
     69          1           0        8.152662    2.796269   -4.110095
     70          7           0        6.307014    1.701702   -1.708332
     71          1           0        6.592311    2.401221   -1.037127
     72          1           0        5.434640    1.211864   -1.457068
     73          6           0        6.811219    1.770714   -2.944299
     74          8           0        4.647257   -1.200970   -3.204564
     75          1           0        4.842181   -2.063674   -2.790085
 ---------------------------------------------------------------------

 SCF Done:  E(RB3LYP) =  -1917.55055315     A.U. after    3 cycles

 Alpha  occ. eigenvalues --  -19.31839 -19.25024 -19.24148 -19.21216 -19.20959
 Alpha  occ. eigenvalues --  -19.20032 -19.19663 -14.52834 -14.51442 -14.51334
 Alpha  occ. eigenvalues --  -14.46191 -14.44683 -14.44487 -14.44072 -14.43821
 Alpha  occ. eigenvalues --  -14.37298 -10.48522 -10.42880 -10.40905 -10.38166
 Alpha  occ. eigenvalues --  -10.37775 -10.36849 -10.36387 -10.36198 -10.34465
 Alpha  occ. eigenvalues --  -10.32775 -10.31597 -10.31424 -10.30746 -10.30385
 Alpha  occ. eigenvalues --  -10.29297 -10.28012 -10.27044 -10.25890 -10.24845
 Alpha  occ. eigenvalues --  -10.24760 -10.24694 -10.24685 -10.24594  -1.21916
 Alpha  occ. eigenvalues --   -1.16948  -1.14918  -1.13181  -1.12757  -1.12580
 Alpha  occ. eigenvalues --   -1.12103  -1.11108  -1.06265  -1.05037  -1.02685
 Alpha  occ. eigenvalues --   -1.01437  -1.01095  -1.00682  -0.99135  -0.95629
 Alpha  occ. eigenvalues --   -0.92320  -0.91742  -0.88483  -0.86657  -0.85709
 Alpha  occ. eigenvalues --   -0.83792  -0.81090  -0.80450  -0.80210  -0.78922
 Alpha  occ. eigenvalues --   -0.77736  -0.75098  -0.74267  -0.73911  -0.72268
 Alpha  occ. eigenvalues --   -0.71084  -0.70414  -0.69807  -0.68478  -0.67106
 Alpha  occ. eigenvalues --   -0.66668  -0.66495  -0.66264  -0.65956  -0.65050
 Alpha  occ. eigenvalues --   -0.64207  -0.63760  -0.62667  -0.61612  -0.61402
 Alpha  occ. eigenvalues --   -0.60788  -0.59759  -0.59454  -0.59157  -0.58701
 Alpha  occ. eigenvalues --   -0.57931  -0.57670  -0.57047  -0.56884  -0.56484
 Alpha  occ. eigenvalues --   -0.55857  -0.55310  -0.54734  -0.54344  -0.53949
 Alpha  occ. eigenvalues --   -0.53056  -0.52683  -0.52563  -0.52070  -0.51552
 Alpha  occ. eigenvalues --   -0.51373  -0.51321  -0.50815  -0.50083  -0.49792
 Alpha  occ. eigenvalues --   -0.48839  -0.48565  -0.47831  -0.47723  -0.47448
 Alpha  occ. eigenvalues --   -0.46992  -0.46849  -0.46647  -0.46326  -0.46092
 Alpha  occ. eigenvalues --   -0.46018  -0.45746  -0.45233  -0.44392  -0.44183
 Alpha  occ. eigenvalues --   -0.43650  -0.43299  -0.42347  -0.41454  -0.41124
 Alpha  occ. eigenvalues --   -0.40151  -0.39819  -0.39475  -0.38828  -0.38155
 Alpha  occ. eigenvalues --   -0.36397  -0.35710  -0.35278  -0.34812  -0.34107
 Alpha  occ. eigenvalues --   -0.33873  -0.33247  -0.32495  -0.30779  -0.30556
 Alpha  occ. eigenvalues --   -0.30049
 Alpha virt. eigenvalues --   -0.13249  -0.10955  -0.09429  -0.08216  -0.07669
 Alpha virt. eigenvalues --   -0.06889  -0.06289  -0.06187  -0.05743  -0.05143
 Alpha virt. eigenvalues --   -0.04791  -0.04469  -0.02438  -0.01482  -0.01244

 Mulliken charges:
               1
     1  N   -0.699504
     2  H    0.310707
     3  H    0.331058
     4  C   -0.084577
     5  H    0.161511
     6  C    0.596583
     7  C   -0.348824
     8  H    0.149321
     9  H    0.215646
    10  O   -0.535038
    11  C    0.589751
    12  N   -0.711060
    13  H    0.335597
    14  H    0.366155
    15  O   -0.544765
    16  N   -0.612576
    17  H    0.336949
    18  C   -0.001048
    19  H    0.168094
    20  C    0.655032
    21  C   -0.399114
    22  H    0.165155
    23  H    0.165568
    24  O   -0.585087
    25  C    0.152067
    26  C   -0.177953
    27  H    0.141958
    28  C   -0.181691
    29  H    0.130943
    30  C   -0.130520
    31  H    0.133800
    32  C   -0.126160
    33  H    0.143155
    34  C   -0.125390
    35  H    0.139910
    36  N   -0.574415
    37  H    0.363623
    38  C   -0.053504
    39  H    0.193316
    40  C    0.601377
    41  C   -0.413416
    42  H    0.202267
    43  H    0.227549
    44  O   -0.489027
    45  C    0.627644
    46  N   -0.769725
    47  H    0.333957
    48  H    0.422593
    49  O   -0.597190
    50  N   -0.646172
    51  H    0.390013
    52  C   -0.025738
    53  H    0.218155
    54  C    0.580467
    55  C   -0.297596
    56  H    0.190703
    57  H    0.138045
    58  O   -0.413849
    59  C   -0.303685
    60  H    0.173871
    61  H    0.188862
    62  C   -0.171861
    63  H    0.194762
    64  H    0.174201
    65  N   -0.591064
    66  H    0.397214
    67  N   -0.743226
    68  H    0.379281
    69  H    0.387456
    70  N   -0.775664
    71  H    0.362961
    72  H    0.414608
    73  C    0.767382
    74  O   -0.616368
    75  H    0.426541
 Sum of Mulliken charges =   1.00000

 Dipole moment (field-independent basis, Debye):
    X=             22.8751    Y=              9.6690    Z=            -10.3653  Tot=             26.9109
 Quadrupole moment (field-independent basis, Debye-Ang):
   XX=            -18.9346   YY=           -206.4328   ZZ=           -162.5423
   XY=             54.2113   XZ=            -93.3428   YZ=            -22.3983

 Normal termination of Gaussian 16 at Mon Jun 27 16:18:08 2022.
