 Gaussian 16, Revision C.01,
 Gaussian 16:  ES64L-G16RevC.01  3-Jul-2019

 ----------------------------------------------------------------------
 # B3LYP/6-31G* empiricaldispersion=gd3bj guess=read geom=check nosymm
 integral(ultrafinegrid)
 ----------------------------------------------------------------------

 ------------------------------------------------------
 Candidate Structure: Conf:156 Charge calc in gas phase
 ------------------------------------------------------
 Structure from the checkpoint file:  "conf-156.chk"
 Charge =  1 Multiplicity = 1

                          Input orientation:
 ---------------------------------------------------------------------
 Center     Atomic      Atomic             Coordinates (Angstroms)
 Number     Number       Type             X           Y           Z
 ---------------------------------------------------------------------
      1          7           0       -5.771728    0.213344    3.317355
      2          1           0       -6.438285    0.773962    2.788587
      3          1           0       -5.787100   -0.712698    2.887400
      4          6           0       -4.425207    0.759128    3.151737
      5          1           0       -4.464730    1.837196    3.349016
      6          6           0       -3.872039    0.515033    1.742765
      7          6           0       -3.443283    0.104749    4.151068
      8          1           0       -3.517430   -0.985635    4.041489
      9          1           0       -2.413288    0.383464    3.914009
     10          8           0       -4.242898   -0.439929    1.061864
     11          6           0       -3.644068    0.470432    5.628467
     12          7           0       -4.937139    0.547134    6.029764
     13          1           0       -5.127682    0.754044    6.999936
     14          1           0       -5.684948    0.370902    5.362343
     15          8           0       -2.680334    0.651272    6.360178
     16          7           0       -2.915958    1.394550    1.323691
     17          1           0       -2.546264    2.071397    1.983374
     18          6           0       -2.041454    1.093884    0.208788
     19          1           0       -2.308251    0.092826   -0.138153
     20          6           0       -0.585955    1.124651    0.678063
     21          6           0       -2.144761    2.123281   -0.940929
     22          1           0       -2.210676    3.120143   -0.490088
     23          1           0       -1.193646    2.113471   -1.491967
     24          8           0       -0.169984    1.987590    1.438341
     25          6           0       -3.252116    1.929334   -1.959653
     26          6           0       -4.162471    0.863109   -1.928389
     27          1           0       -4.188874    0.183132   -1.081382
     28          6           0       -3.305237    2.822655   -3.041386
     29          1           0       -2.615120    3.662673   -3.071833
     30          6           0       -5.071383    0.676581   -2.977715
     31          1           0       -5.766282   -0.156810   -2.936229
     32          6           0       -4.222388    2.647335   -4.078182
     33          1           0       -4.263044    3.368381   -4.890893
     34          6           0       -5.100796    1.557144   -4.059377
     35          1           0       -5.816815    1.415211   -4.863217
     36          7           0        0.208992    0.178339    0.097876
     37          1           0       -0.206338   -0.456296   -0.570805
     38          6           0        1.633670    0.379376   -0.066020
     39          1           0        1.837638    1.439684    0.117412
     40          6           0        1.957712    0.070558   -1.540484
     41          6           0        2.467868   -0.440236    0.948692
     42          1           0        2.636575   -1.461563    0.585176
     43          1           0        1.875532   -0.519910    1.864469
     44          8           0        1.076265   -0.393285   -2.299830
     45          6           0        3.818319    0.204083    1.248405
     46          7           0        4.322526   -0.035227    2.475568
     47          1           0        5.212766    0.378315    2.720659
     48          1           0        3.801479   -0.513871    3.195259
     49          8           0        4.421615    0.892036    0.418267
     50          7           0        3.194605    0.335643   -1.953910
     51          1           0        3.873017    0.646610   -1.240338
     52          6           0        3.560393    0.118167   -3.344980
     53          1           0        3.062264   -0.809408   -3.658135
     54          6           0        5.051005   -0.150801   -3.512792
     55          6           0        3.108001    1.273340   -4.272572
     56          1           0        2.255220    1.765445   -3.794162
     57          1           0        3.908716    2.014050   -4.325213
     58          8           0        5.647447    0.073648   -4.539227
     59          6           0        2.719825    0.805198   -5.695453
     60          1           0        3.266247    1.377097   -6.449593
     61          1           0        3.013140   -0.239454   -5.848486
     62          6           0        1.224304    0.960998   -5.992107
     63          1           0        0.950989    2.024844   -5.971347
     64          1           0        1.002140    0.571274   -6.993031
     65          7           0        0.426396    0.243705   -4.990452
     66          1           0        0.917666   -0.198474   -4.212024
     67          7           0       -1.641140    1.116099   -5.629369
     68          1           0       -2.588168    1.377345   -5.376536
     69          1           0       -1.293165    1.382523   -6.537205
     70          7           0       -1.415933   -0.064274   -3.645883
     71          1           0       -2.387475    0.105529   -3.411559
     72          1           0       -0.777070   -0.326636   -2.899749
     73          6           0       -0.874465    0.443135   -4.760633
     74          8           0        5.603194   -0.697255   -2.414178
     75          1           0        6.548236   -0.846919   -2.611721
 ---------------------------------------------------------------------

 SCF Done:  E(RB3LYP) =  -1917.55355030     A.U. after    1 cycles

 Alpha  occ. eigenvalues --  -19.30183 -19.25948 -19.24378 -19.22942 -19.22447
 Alpha  occ. eigenvalues --  -19.20928 -19.15309 -14.50795 -14.49818 -14.49208
 Alpha  occ. eigenvalues --  -14.47778 -14.46908 -14.46512 -14.45381 -14.40222
 Alpha  occ. eigenvalues --  -14.39221 -10.46529 -10.42758 -10.41919 -10.40482
 Alpha  occ. eigenvalues --  -10.39362 -10.37451 -10.35607 -10.35553 -10.35521
 Alpha  occ. eigenvalues --  -10.33782 -10.33438 -10.31311 -10.30942 -10.30776
 Alpha  occ. eigenvalues --  -10.30680 -10.30419 -10.30298 -10.29943 -10.29683
 Alpha  occ. eigenvalues --  -10.29615 -10.29475 -10.28936 -10.26190  -1.21164
 Alpha  occ. eigenvalues --   -1.17191  -1.15286  -1.14555  -1.14506  -1.12665
 Alpha  occ. eigenvalues --   -1.12217  -1.07195  -1.05135  -1.04682  -1.03905
 Alpha  occ. eigenvalues --   -1.03304  -1.02143  -1.01392  -0.97629  -0.96368
 Alpha  occ. eigenvalues --   -0.94100  -0.92297  -0.90491  -0.89084  -0.86906
 Alpha  occ. eigenvalues --   -0.85098  -0.84666  -0.82551  -0.81167  -0.79398
 Alpha  occ. eigenvalues --   -0.77586  -0.76547  -0.74020  -0.72970  -0.72413
 Alpha  occ. eigenvalues --   -0.71315  -0.70986  -0.70606  -0.69976  -0.69004
 Alpha  occ. eigenvalues --   -0.68475  -0.68291  -0.67750  -0.66338  -0.64603
 Alpha  occ. eigenvalues --   -0.64279  -0.63607  -0.63371  -0.63016  -0.61530
 Alpha  occ. eigenvalues --   -0.60526  -0.60443  -0.60278  -0.59377  -0.59043
 Alpha  occ. eigenvalues --   -0.58526  -0.58255  -0.58035  -0.57540  -0.57003
 Alpha  occ. eigenvalues --   -0.56651  -0.56199  -0.55825  -0.55365  -0.54918
 Alpha  occ. eigenvalues --   -0.54666  -0.54127  -0.53497  -0.53131  -0.52882
 Alpha  occ. eigenvalues --   -0.52687  -0.52186  -0.51801  -0.51582  -0.51159
 Alpha  occ. eigenvalues --   -0.50513  -0.49858  -0.49593  -0.49524  -0.49146
 Alpha  occ. eigenvalues --   -0.48672  -0.48101  -0.47437  -0.46996  -0.46576
 Alpha  occ. eigenvalues --   -0.46392  -0.45889  -0.45814  -0.45494  -0.44439
 Alpha  occ. eigenvalues --   -0.44362  -0.44291  -0.43277  -0.42132  -0.41743
 Alpha  occ. eigenvalues --   -0.41206  -0.40365  -0.39378  -0.38858  -0.38038
 Alpha  occ. eigenvalues --   -0.37540  -0.37374  -0.37042  -0.36331  -0.36073
 Alpha  occ. eigenvalues --   -0.35598  -0.35005  -0.34383  -0.32886  -0.30739
 Alpha  occ. eigenvalues --   -0.29170
 Alpha virt. eigenvalues --   -0.11625  -0.11121  -0.10995  -0.10389  -0.09726
 Alpha virt. eigenvalues --   -0.08731  -0.08164  -0.06779  -0.05596  -0.03828
 Alpha virt. eigenvalues --   -0.02298  -0.01903  -0.01725  -0.01467  -0.01232

 Mulliken charges:
               1
     1  N   -0.718840
     2  H    0.318712
     3  H    0.328152
     4  C   -0.094162
     5  H    0.162824
     6  C    0.598752
     7  C   -0.357008
     8  H    0.177243
     9  H    0.166979
    10  O   -0.526895
    11  C    0.578093
    12  N   -0.750989
    13  H    0.340052
    14  H    0.377370
    15  O   -0.508421
    16  N   -0.588014
    17  H    0.354613
    18  C   -0.076491
    19  H    0.171927
    20  C    0.597194
    21  C   -0.346192
    22  H    0.194285
    23  H    0.149019
    24  O   -0.507560
    25  C    0.138311
    26  C   -0.241527
    27  H    0.206909
    28  C   -0.175234
    29  H    0.144549
    30  C   -0.141389
    31  H    0.165792
    32  C   -0.183889
    33  H    0.156556
    34  C   -0.140588
    35  H    0.161268
    36  N   -0.600291
    37  H    0.343943
    38  C   -0.065854
    39  H    0.220011
    40  C    0.619628
    41  C   -0.382444
    42  H    0.199353
    43  H    0.198612
    44  O   -0.604037
    45  C    0.640966
    46  N   -0.734635
    47  H    0.368039
    48  H    0.362945
    49  O   -0.534010
    50  N   -0.615986
    51  H    0.420691
    52  C   -0.046462
    53  H    0.195009
    54  C    0.579868
    55  C   -0.285117
    56  H    0.155064
    57  H    0.193224
    58  O   -0.440332
    59  C   -0.302633
    60  H    0.192255
    61  H    0.177248
    62  C   -0.160783
    63  H    0.171819
    64  H    0.181980
    65  N   -0.631920
    66  H    0.405873
    67  N   -0.774340
    68  H    0.383376
    69  H    0.379288
    70  N   -0.801480
    71  H    0.379711
    72  H    0.401452
    73  C    0.801179
    74  O   -0.555860
    75  H    0.433247
 Sum of Mulliken charges =   1.00000

 Dipole moment (field-independent basis, Debye):
    X=             -0.6410    Y=              2.5237    Z=            -15.3789  Tot=             15.5978
 Quadrupole moment (field-independent basis, Debye-Ang):
   XX=           -145.1388   YY=           -216.9917   ZZ=           -143.4652
   XY=            -20.6554   XZ=             18.1527   YZ=            -26.2489

 Normal termination of Gaussian 16 at Mon Jun 27 16:17:30 2022.
