 Gaussian 16, Revision C.01,
 Gaussian 16:  ES64L-G16RevC.01  3-Jul-2019

 ----------------------------------------------------------------------
 # B3LYP/6-31G* empiricaldispersion=gd3bj guess=read geom=check nosymm
 integral(ultrafinegrid)
 ----------------------------------------------------------------------

 -----------------------------------------------------
 Candidate Structure: Conf:34 Charge calc in gas phase
 -----------------------------------------------------
 Structure from the checkpoint file:  "conf-34.chk"
 Charge =  1 Multiplicity = 1

                          Input orientation:
 ---------------------------------------------------------------------
 Center     Atomic      Atomic             Coordinates (Angstroms)
 Number     Number       Type             X           Y           Z
 ---------------------------------------------------------------------
      1          7           0       -4.859135    1.574239    4.799078
      2          1           0       -5.665482    0.957766    4.708763
      3          1           0       -4.175718    1.035412    5.335937
      4          6           0       -4.278771    1.818372    3.480200
      5          1           0       -5.095339    2.008899    2.772740
      6          6           0       -3.462093    0.624943    2.952327
      7          6           0       -3.375829    3.076574    3.539107
      8          1           0       -2.757369    3.012901    4.441609
      9          1           0       -2.705222    3.119322    2.680231
     10          8           0       -3.120820   -0.292027    3.687406
     11          6           0       -4.219355    4.340115    3.564136
     12          7           0       -5.069221    4.436128    4.593997
     13          1           0       -5.716576    5.213444    4.624738
     14          1           0       -5.220306    3.601671    5.166174
     15          8           0       -4.145370    5.203813    2.665211
     16          7           0       -3.177541    0.696557    1.622750
     17          1           0       -3.351754    1.566715    1.130465
     18          6           0       -2.298735   -0.240570    0.961884
     19          1           0       -2.075801   -1.028481    1.686648
     20          6           0       -0.998623    0.462640    0.551413
     21          6           0       -2.997981   -0.878030   -0.271931
     22          1           0       -2.287042   -1.542603   -0.772503
     23          1           0       -3.818036   -1.495641    0.106639
     24          8           0       -0.922164    1.690030    0.441067
     25          6           0       -3.530374    0.148859   -1.244089
     26          6           0       -4.842028    0.625100   -1.128342
     27          1           0       -5.487583    0.220840   -0.353397
     28          6           0       -2.714270    0.664147   -2.262743
     29          1           0       -1.693267    0.310057   -2.368722
     30          6           0       -5.334815    1.598291   -2.004297
     31          1           0       -6.363685    1.936159   -1.914330
     32          6           0       -3.204809    1.632579   -3.142388
     33          1           0       -2.569545    2.000057   -3.943959
     34          6           0       -4.514737    2.108971   -3.014042
     35          1           0       -4.898793    2.849351   -3.709544
     36          7           0        0.021514   -0.369752    0.261261
     37          1           0        0.015406   -1.342245    0.574046
     38          6           0        1.319661    0.129946   -0.137881
     39          1           0        1.758470    0.730001    0.672031
     40          6           0        1.211447    0.983766   -1.411780
     41          6           0        2.254459   -1.050770   -0.485579
     42          1           0        3.238494   -0.649747   -0.747425
     43          1           0        1.849417   -1.545768   -1.375753
     44          8           0        0.487498    0.661357   -2.347075
     45          6           0        2.338749   -2.101532    0.618691
     46          7           0        3.583788   -2.465066    1.005275
     47          1           0        3.675519   -3.218201    1.674862
     48          1           0        4.415794   -2.134005    0.540955
     49          8           0        1.324974   -2.592366    1.115940
     50          7           0        2.051446    2.052896   -1.459180
     51          1           0        2.685345    2.207314   -0.687303
     52          6           0        2.328985    2.738800   -2.714045
     53          1           0        1.980788    2.062555   -3.504326
     54          6           0        3.824637    2.935681   -2.936660
     55          6           0        1.589301    4.079578   -2.887690
     56          1           0        1.982131    4.813173   -2.171120
     57          1           0        1.849078    4.455535   -3.880020
     58          8           0        4.285178    3.634875   -3.805031
     59          6           0        0.062653    3.947359   -2.741779
     60          1           0       -0.440849    4.654059   -3.409780
     61          1           0       -0.244620    2.939184   -3.040074
     62          6           0       -0.396263    4.214959   -1.308022
     63          1           0        0.172397    3.609111   -0.596330
     64          1           0       -0.242633    5.276975   -1.083192
     65          7           0       -1.820938    3.909546   -1.160136
     66          1           0       -2.139425    3.075118   -1.647793
     67          7           0       -2.057082    5.076383    0.847263
     68          1           0       -2.669155    5.305097    1.643389
     69          1           0       -1.093805    5.370355    0.841341
     70          7           0       -3.748985    3.690307    0.126450
     71          1           0       -4.320155    4.158799    0.827281
     72          1           0       -4.230643    3.287188   -0.672617
     73          6           0       -2.518853    4.228428   -0.070134
     74          8           0        4.589150    2.238810   -2.057686
     75          1           0        5.517298    2.432555   -2.293329
 ---------------------------------------------------------------------

 SCF Done:  E(RB3LYP) =  -1917.59163139     A.U. after    1 cycles

 Alpha  occ. eigenvalues --  -19.29998 -19.23710 -19.23062 -19.22293 -19.22061
 Alpha  occ. eigenvalues --  -19.21695 -19.20985 -14.48390 -14.48142 -14.48048
 Alpha  occ. eigenvalues --  -14.46998 -14.45961 -14.45357 -14.45243 -14.45029
 Alpha  occ. eigenvalues --  -14.42314 -10.44708 -10.42057 -10.40016 -10.39586
 Alpha  occ. eigenvalues --  -10.39464 -10.38513 -10.37827 -10.34683 -10.34162
 Alpha  occ. eigenvalues --  -10.33252 -10.33240 -10.32800 -10.30890 -10.29973
 Alpha  occ. eigenvalues --  -10.29454 -10.29114 -10.29074 -10.29052 -10.28996
 Alpha  occ. eigenvalues --  -10.28891 -10.28865 -10.28784 -10.28209  -1.20626
 Alpha  occ. eigenvalues --   -1.14745  -1.14226  -1.13650  -1.13486  -1.13351
 Alpha  occ. eigenvalues --   -1.12699  -1.11610  -1.03596  -1.03146  -1.02562
 Alpha  occ. eigenvalues --   -1.02151  -1.01391  -1.01223  -1.00678  -0.98971
 Alpha  occ. eigenvalues --   -0.95513  -0.91062  -0.89673  -0.88156  -0.86540
 Alpha  occ. eigenvalues --   -0.85680  -0.84319  -0.83172  -0.79729  -0.78051
 Alpha  occ. eigenvalues --   -0.76996  -0.74990  -0.74002  -0.72551  -0.71286
 Alpha  occ. eigenvalues --   -0.70610  -0.70258  -0.69619  -0.69039  -0.68892
 Alpha  occ. eigenvalues --   -0.68192  -0.67691  -0.67044  -0.66732  -0.64767
 Alpha  occ. eigenvalues --   -0.64121  -0.63058  -0.62562  -0.61907  -0.61501
 Alpha  occ. eigenvalues --   -0.61331  -0.61066  -0.60636  -0.59562  -0.59053
 Alpha  occ. eigenvalues --   -0.58105  -0.57696  -0.57610  -0.56714  -0.56560
 Alpha  occ. eigenvalues --   -0.56318  -0.55588  -0.55555  -0.55271  -0.54802
 Alpha  occ. eigenvalues --   -0.54018  -0.53503  -0.53284  -0.52853  -0.52544
 Alpha  occ. eigenvalues --   -0.52156  -0.51830  -0.51328  -0.51210  -0.50753
 Alpha  occ. eigenvalues --   -0.50350  -0.49952  -0.49506  -0.49362  -0.48913
 Alpha  occ. eigenvalues --   -0.48569  -0.48323  -0.48089  -0.47397  -0.47237
 Alpha  occ. eigenvalues --   -0.47070  -0.45828  -0.45661  -0.45442  -0.44803
 Alpha  occ. eigenvalues --   -0.44749  -0.44399  -0.43382  -0.42951  -0.41711
 Alpha  occ. eigenvalues --   -0.40112  -0.38672  -0.38046  -0.37975  -0.37258
 Alpha  occ. eigenvalues --   -0.37100  -0.36794  -0.36475  -0.36375  -0.35820
 Alpha  occ. eigenvalues --   -0.35454  -0.35279  -0.34945  -0.34707  -0.34100
 Alpha  occ. eigenvalues --   -0.33836
 Alpha virt. eigenvalues --   -0.10845  -0.10643  -0.09447  -0.09142  -0.08951
 Alpha virt. eigenvalues --   -0.08850  -0.07825  -0.06977  -0.06690  -0.03528
 Alpha virt. eigenvalues --   -0.03090  -0.02007  -0.01819  -0.00396  -0.00275

 Mulliken charges:
               1
     1  N   -0.727559
     2  H    0.328481
     3  H    0.338131
     4  C   -0.102525
     5  H    0.157666
     6  C    0.595604
     7  C   -0.364658
     8  H    0.193541
     9  H    0.175705
    10  O   -0.504213
    11  C    0.588363
    12  N   -0.709651
    13  H    0.355943
    14  H    0.392120
    15  O   -0.570744
    16  N   -0.610877
    17  H    0.373551
    18  C   -0.096654
    19  H    0.208705
    20  C    0.648535
    21  C   -0.350771
    22  H    0.178379
    23  H    0.177196
    24  O   -0.570481
    25  C    0.153511
    26  C   -0.180493
    27  H    0.147050
    28  C   -0.201493
    29  H    0.208209
    30  C   -0.174357
    31  H    0.156369
    32  C   -0.198222
    33  H    0.160198
    34  C   -0.135981
    35  H    0.159161
    36  N   -0.621648
    37  H    0.388619
    38  C   -0.025469
    39  H    0.160274
    40  C    0.641405
    41  C   -0.407966
    42  H    0.165104
    43  H    0.217609
    44  O   -0.523117
    45  C    0.624531
    46  N   -0.737486
    47  H    0.365339
    48  H    0.353342
    49  O   -0.514951
    50  N   -0.604651
    51  H    0.344584
    52  C   -0.069680
    53  H    0.222864
    54  C    0.594349
    55  C   -0.269890
    56  H    0.145915
    57  H    0.195747
    58  O   -0.436242
    59  C   -0.319451
    60  H    0.168535
    61  H    0.183343
    62  C   -0.150453
    63  H    0.197990
    64  H    0.158275
    65  N   -0.607048
    66  H    0.379899
    67  N   -0.786614
    68  H    0.419591
    69  H    0.368429
    70  N   -0.822942
    71  H    0.384199
    72  H    0.375672
    73  C    0.801639
    74  O   -0.585861
    75  H    0.428476
 Sum of Mulliken charges =   1.00000

 Dipole moment (field-independent basis, Debye):
    X=             -4.1281    Y=             11.3920    Z=              2.5297  Tot=             12.3781
 Quadrupole moment (field-independent basis, Debye-Ang):
   XX=           -117.5514   YY=           -173.2853   ZZ=           -202.3508
   XY=            -42.7224   XZ=            -17.9453   YZ=             13.0677

 Normal termination of Gaussian 16 at Mon Jun 27 16:17:37 2022.
