 Gaussian 16, Revision C.01,
 Gaussian 16:  ES64L-G16RevC.01  3-Jul-2019

 ----------------------------------------------------------------------
 # B3LYP/6-31G* empiricaldispersion=gd3bj guess=read geom=check nosymm
 integral(ultrafinegrid)
 ----------------------------------------------------------------------

 ------------------------------------------------------
 Candidate Structure: Conf:746 Charge calc in gas phase
 ------------------------------------------------------
 Structure from the checkpoint file:  "conf-746.chk"
 Charge =  1 Multiplicity = 1

                          Input orientation:
 ---------------------------------------------------------------------
 Center     Atomic      Atomic             Coordinates (Angstroms)
 Number     Number       Type             X           Y           Z
 ---------------------------------------------------------------------
      1          7           0       -2.624584    4.999688    1.237574
      2          1           0       -3.508028    4.513632    1.047667
      3          1           0       -2.793053    5.641356    2.009583
      4          6           0       -1.651601    3.961849    1.603592
      5          1           0       -0.788376    4.036791    0.934011
      6          6           0       -2.261858    2.573382    1.311692
      7          6           0       -1.122026    4.103049    3.032279
      8          1           0       -1.951542    4.127670    3.748956
      9          1           0       -0.505693    3.234069    3.295840
     10          8           0       -3.455682    2.446579    1.046855
     11          6           0       -0.235980    5.340929    3.166478
     12          7           0       -0.128796    5.857297    4.407372
     13          1           0        0.507326    6.629006    4.561396
     14          1           0       -0.571732    5.433585    5.209694
     15          8           0        0.360795    5.833524    2.204302
     16          7           0       -1.332460    1.603453    1.301722
     17          1           0       -0.367546    1.842765    1.520705
     18          6           0       -1.414750    0.270002    0.726130
     19          1           0       -1.957500   -0.406171    1.400367
     20          6           0        0.066614   -0.176474    0.664796
     21          6           0       -2.129666    0.239306   -0.652195
     22          1           0       -2.165751   -0.802043   -0.988592
     23          1           0       -3.161813    0.549056   -0.475131
     24          8           0        0.929706    0.485043    1.267338
     25          6           0       -1.503491    1.114207   -1.718053
     26          6           0       -1.931926    2.437454   -1.898090
     27          1           0       -2.737448    2.824560   -1.282938
     28          6           0       -0.503416    0.621466   -2.566677
     29          1           0       -0.174096   -0.405583   -2.478860
     30          6           0       -1.368114    3.239013   -2.890461
     31          1           0       -1.746825    4.245829   -3.034750
     32          6           0        0.076922    1.427135   -3.546352
     33          1           0        0.852827    1.009785   -4.180053
     34          6           0       -0.354816    2.743633   -3.712450
     35          1           0        0.072513    3.364088   -4.496023
     36          7           0        0.352823   -1.237232   -0.095818
     37          1           0       -0.373052   -1.882873   -0.418694
     38          6           0        1.727324   -1.658906   -0.384243
     39          1           0        2.292965   -1.664670    0.553493
     40          6           0        2.346774   -0.616417   -1.369524
     41          6           0        1.750931   -3.043952   -1.054527
     42          1           0        2.754779   -3.462069   -0.939899
     43          1           0        1.595698   -2.886604   -2.127856
     44          8           0        2.389399   -0.814736   -2.578001
     45          6           0        0.673222   -4.009429   -0.585196
     46          7           0        1.089753   -5.232462   -0.186361
     47          1           0        0.390591   -5.926393    0.043660
     48          1           0        2.054193   -5.522436   -0.242783
     49          8           0       -0.522602   -3.699641   -0.599061
     50          7           0        2.754603    0.523334   -0.760699
     51          1           0        2.542942    0.612810    0.229038
     52          6           0        3.058991    1.745962   -1.482547
     53          1           0        2.859898    1.568090   -2.539758
     54          6           0        4.537419    2.077298   -1.280649
     55          6           0        2.205460    2.911803   -0.935909
     56          1           0        1.151228    2.627948   -1.001376
     57          1           0        2.454907    3.031880    0.126423
     58          8           0        5.066367    2.166596   -0.196541
     59          6           0        2.455839    4.230540   -1.680504
     60          1           0        3.521256    4.338299   -1.916744
     61          1           0        1.930924    4.199834   -2.643122
     62          6           0        2.071497    5.483625   -0.881691
     63          1           0        2.571053    5.464027    0.090032
     64          1           0        2.428812    6.388924   -1.390500
     65          7           0        0.642176    5.624020   -0.580142
     66          1           0        0.392560    5.633588    0.416084
     67          7           0        0.094617    6.435069   -2.692390
     68          1           0       -0.608845    6.550323   -3.406422
     69          1           0        1.029915    6.249780   -3.018384
     70          7           0       -1.541339    6.224346   -1.062359
     71          1           0       -2.200176    6.637609   -1.706455
     72          1           0       -1.933520    5.823769   -0.169997
     73          6           0       -0.270001    6.080598   -1.439500
     74          8           0        5.177118    2.298749   -2.448386
     75          1           0        6.107583    2.500976   -2.227581
 ---------------------------------------------------------------------

 SCF Done:  E(RB3LYP) =  -1917.57381420     A.U. after    1 cycles

 Alpha  occ. eigenvalues --  -19.28115 -19.24233 -19.22519 -19.22106 -19.21828
 Alpha  occ. eigenvalues --  -19.20577 -19.20162 -14.50135 -14.48415 -14.47781
 Alpha  occ. eigenvalues --  -14.47647 -14.45447 -14.45227 -14.44784 -14.44232
 Alpha  occ. eigenvalues --  -14.44006 -10.45467 -10.41649 -10.40067 -10.39121
 Alpha  occ. eigenvalues --  -10.38710 -10.38383 -10.37253 -10.34225 -10.33795
 Alpha  occ. eigenvalues --  -10.33531 -10.33323 -10.32224 -10.31944 -10.29537
 Alpha  occ. eigenvalues --  -10.28650 -10.28573 -10.28055 -10.27884 -10.27704
 Alpha  occ. eigenvalues --  -10.27508 -10.27095 -10.26921 -10.26633  -1.18843
 Alpha  occ. eigenvalues --   -1.15767  -1.14621  -1.14015  -1.13448  -1.12364
 Alpha  occ. eigenvalues --   -1.11947  -1.09857  -1.03436  -1.02830  -1.02589
 Alpha  occ. eigenvalues --   -1.02269  -1.02113  -1.01164  -1.00758  -0.99486
 Alpha  occ. eigenvalues --   -0.93937  -0.90450  -0.89365  -0.87870  -0.86472
 Alpha  occ. eigenvalues --   -0.84926  -0.82883  -0.82646  -0.79448  -0.78032
 Alpha  occ. eigenvalues --   -0.76883  -0.75837  -0.74530  -0.72648  -0.71387
 Alpha  occ. eigenvalues --   -0.70837  -0.70004  -0.68900  -0.68348  -0.67976
 Alpha  occ. eigenvalues --   -0.67858  -0.66749  -0.66118  -0.65791  -0.65244
 Alpha  occ. eigenvalues --   -0.64486  -0.63120  -0.62874  -0.61812  -0.61527
 Alpha  occ. eigenvalues --   -0.60842  -0.60226  -0.59986  -0.59384  -0.59092
 Alpha  occ. eigenvalues --   -0.58551  -0.57820  -0.57441  -0.56789  -0.56487
 Alpha  occ. eigenvalues --   -0.55558  -0.55402  -0.55123  -0.54406  -0.54257
 Alpha  occ. eigenvalues --   -0.53880  -0.53653  -0.53354  -0.52854  -0.52175
 Alpha  occ. eigenvalues --   -0.51785  -0.51169  -0.50792  -0.50261  -0.49980
 Alpha  occ. eigenvalues --   -0.49783  -0.49646  -0.49416  -0.48602  -0.48451
 Alpha  occ. eigenvalues --   -0.48129  -0.47646  -0.47295  -0.47060  -0.46749
 Alpha  occ. eigenvalues --   -0.46155  -0.45914  -0.45405  -0.44932  -0.44381
 Alpha  occ. eigenvalues --   -0.44096  -0.43482  -0.42082  -0.41768  -0.40656
 Alpha  occ. eigenvalues --   -0.39989  -0.39134  -0.38361  -0.38225  -0.37608
 Alpha  occ. eigenvalues --   -0.37333  -0.36993  -0.36140  -0.35758  -0.35596
 Alpha  occ. eigenvalues --   -0.35088  -0.34607  -0.33681  -0.33133  -0.32932
 Alpha  occ. eigenvalues --   -0.32671
 Alpha virt. eigenvalues --   -0.10228  -0.10021  -0.09141  -0.08899  -0.08381
 Alpha virt. eigenvalues --   -0.07712  -0.07358  -0.06457  -0.06320  -0.05676
 Alpha virt. eigenvalues --   -0.03316  -0.03193  -0.01891  -0.01076  -0.00725

 Mulliken charges:
               1
     1  N   -0.800025
     2  H    0.360618
     3  H    0.329145
     4  C   -0.049425
     5  H    0.159748
     6  C    0.629081
     7  C   -0.410354
     8  H    0.180474
     9  H    0.209980
    10  O   -0.530224
    11  C    0.626010
    12  N   -0.734804
    13  H    0.367914
    14  H    0.363172
    15  O   -0.532190
    16  N   -0.635250
    17  H    0.366834
    18  C   -0.020196
    19  H    0.198687
    20  C    0.633951
    21  C   -0.405651
    22  H    0.177079
    23  H    0.207237
    24  O   -0.576944
    25  C    0.162707
    26  C   -0.201181
    27  H    0.150939
    28  C   -0.183476
    29  H    0.151506
    30  C   -0.124944
    31  H    0.092936
    32  C   -0.140103
    33  H    0.167491
    34  C   -0.139523
    35  H    0.124080
    36  N   -0.637114
    37  H    0.401180
    38  C   -0.054515
    39  H    0.185749
    40  C    0.628671
    41  C   -0.407452
    42  H    0.167855
    43  H    0.231832
    44  O   -0.521640
    45  C    0.625017
    46  N   -0.739577
    47  H    0.361487
    48  H    0.355294
    49  O   -0.535850
    50  N   -0.603458
    51  H    0.380031
    52  C   -0.039723
    53  H    0.198429
    54  C    0.585956
    55  C   -0.293431
    56  H    0.181254
    57  H    0.157403
    58  O   -0.456527
    59  C   -0.287101
    60  H    0.172613
    61  H    0.149133
    62  C   -0.194882
    63  H    0.198719
    64  H    0.169476
    65  N   -0.630813
    66  H    0.425855
    67  N   -0.757309
    68  H    0.368593
    69  H    0.378700
    70  N   -0.807418
    71  H    0.352299
    72  H    0.453510
    73  C    0.800113
    74  O   -0.556911
    75  H    0.419256
 Sum of Mulliken charges =   1.00000

 Dipole moment (field-independent basis, Debye):
    X=              1.7382    Y=             17.5403    Z=              1.4212  Tot=             17.6835
 Quadrupole moment (field-independent basis, Debye-Ang):
   XX=           -208.1374   YY=            -51.3985   ZZ=           -174.4448
   XY=            -20.5843   XZ=            -12.9211   YZ=             -3.4476

 Normal termination of Gaussian 16 at Mon Jun 27 16:17:38 2022.
