 Gaussian 16, Revision C.01,
 Gaussian 16:  ES64L-G16RevC.01  3-Jul-2019

 ----------------------------------------------------------------------
 # B3LYP/6-31G* empiricaldispersion=gd3bj guess=read geom=check nosymm
 integral(ultrafinegrid)
 ----------------------------------------------------------------------

 ------------------------------------------------------
 Candidate Structure: Conf:304 Charge calc in gas phase
 ------------------------------------------------------
 Structure from the checkpoint file:  "conf-304.chk"
 Charge =  1 Multiplicity = 1

                          Input orientation:
 ---------------------------------------------------------------------
 Center     Atomic      Atomic             Coordinates (Angstroms)
 Number     Number       Type             X           Y           Z
 ---------------------------------------------------------------------
      1          7           0       32.049211  -29.567302   39.420069
      2          6           0       33.135354  -29.142279   40.288245
      3          6           0       32.706466  -29.025385   41.751741
      4          8           0       31.904897  -29.835526   42.236404
      5          6           0       34.294945  -30.179653   40.236302
      6          6           0       35.061791  -30.154797   38.939358
      7          6           0       34.526497  -30.690286   37.761942
      8          6           0       36.327326  -29.556827   38.878775
      9          6           0       35.232906  -30.630622   36.563509
     10          6           0       37.045358  -29.489951   37.689725
     11          6           0       36.495835  -30.029452   36.522419
     12          8           0       37.238523  -29.942797   35.382603
     13          1           0       33.520198  -28.181679   39.927105
     14          1           0       34.988931  -29.977389   41.064594
     15          1           0       33.849373  -31.165288   40.424213
     16          1           0       33.539490  -31.138332   37.781365
     17          1           0       36.765295  -29.136176   39.782077
     18          1           0       34.802407  -31.051672   35.657257
     19          1           0       38.026760  -29.029805   37.645257
     20          1           0       36.745058  -30.338944   34.647539
     21          1           0       31.510302  -30.281199   39.910944
     22          1           0       31.410427  -28.794355   39.244364
     23          7           0       33.327077  -28.083956   42.505465
     24          6           0       32.968399  -27.813541   43.900602
     25          6           0       33.102084  -29.059496   44.778886
     26          8           0       32.460978  -29.189171   45.811378
     27          6           0       33.808167  -26.626575   44.435975
     28          6           0       35.302811  -26.962046   44.533611
     29          6           0       33.260325  -26.120191   45.774554
     30          1           0       33.884330  -27.387776   42.026295
     31          1           0       31.906517  -27.550253   43.953080
     32          1           0       33.680413  -25.821958   43.696066
     33          1           0       35.712281  -27.338305   43.588273
     34          1           0       35.871755  -26.068185   44.805975
     35          1           0       35.484919  -27.720180   45.303077
     36          1           0       33.334107  -26.888185   46.549266
     37          1           0       32.207243  -25.833298   45.690555
     38          1           0       33.827571  -25.242836   46.100699
     39          7           0       33.975329  -30.025160   44.356000
     40          6           0       34.026585  -31.292086   45.049546
     41          6           0       32.686254  -32.049725   45.012968
     42          8           0       32.480384  -32.958700   45.809683
     43          6           0       35.173793  -32.145488   44.468032
     44          6           0       35.501644  -33.419584   45.271324
     45          6           0       34.788039  -34.680106   44.758113
     46          7           0       34.961556  -35.828274   45.658882
     47          6           0       34.215746  -36.061783   46.748684
     48          7           0       33.254057  -35.228117   47.125650
     49          7           0       34.473420  -37.169978   47.475941
     50          8           0       31.800941  -31.780215   44.082188
     51          1           0       31.992497  -30.982448   43.520321
     52          1           0       34.446567  -29.914566   43.469565
     53          1           0       34.217247  -31.106752   46.110916
     54          1           0       36.058737  -31.500815   44.452606
     55          1           0       34.952840  -32.395295   43.420693
     56          1           0       35.248723  -33.261189   46.324912
     57          1           0       36.581834  -33.599877   45.235394
     58          1           0       35.187876  -34.981283   43.786130
     59          1           0       33.717985  -34.517418   44.628840
     60          1           0       35.826556  -36.347610   45.585693
     61          1           0       32.574292  -35.524428   47.812205
     62          1           0       33.071334  -34.323886   46.662227
     63          1           0       33.974345  -37.347587   48.335403
     64          1           0       34.964624  -37.951624   47.066939
 ---------------------------------------------------------------------

 SCF Done:  E(RB3LYP) =  -1486.62558849     A.U. after    1 cycles

 Alpha  occ. eigenvalues --  -19.27994 -19.23914 -19.23569 -19.23019 -19.21174
 Alpha  occ. eigenvalues --  -14.52513 -14.52351 -14.50819 -14.47334 -14.46327
 Alpha  occ. eigenvalues --  -14.39742 -10.48470 -10.42387 -10.39120 -10.38391
 Alpha  occ. eigenvalues --  -10.36007 -10.34722 -10.32980 -10.31815 -10.31622
 Alpha  occ. eigenvalues --  -10.31525 -10.30905 -10.29209 -10.27880 -10.26552
 Alpha  occ. eigenvalues --  -10.25538 -10.25484 -10.25005 -10.24982 -10.24858
 Alpha  occ. eigenvalues --  -10.24480  -1.19937  -1.16955  -1.14805  -1.13369
 Alpha  occ. eigenvalues --   -1.11708  -1.11327  -1.06441  -1.04680  -1.03987
 Alpha  occ. eigenvalues --   -1.02651  -0.97591  -0.92566  -0.91507  -0.90077
 Alpha  occ. eigenvalues --   -0.86997  -0.85054  -0.82136  -0.80839  -0.80435
 Alpha  occ. eigenvalues --   -0.78357  -0.77862  -0.76753  -0.74557  -0.73669
 Alpha  occ. eigenvalues --   -0.72982  -0.71493  -0.70898  -0.70329  -0.68268
 Alpha  occ. eigenvalues --   -0.68233  -0.65974  -0.65689  -0.65054  -0.64944
 Alpha  occ. eigenvalues --   -0.64487  -0.62574  -0.61105  -0.60523  -0.60182
 Alpha  occ. eigenvalues --   -0.59935  -0.59027  -0.58442  -0.57002  -0.56628
 Alpha  occ. eigenvalues --   -0.55718  -0.54804  -0.54564  -0.53708  -0.53394
 Alpha  occ. eigenvalues --   -0.52945  -0.52780  -0.52405  -0.51040  -0.50916
 Alpha  occ. eigenvalues --   -0.50596  -0.49900  -0.49646  -0.49013  -0.48338
 Alpha  occ. eigenvalues --   -0.48227  -0.47806  -0.47043  -0.46599  -0.46409
 Alpha  occ. eigenvalues --   -0.46341  -0.45912  -0.45130  -0.44413  -0.43667
 Alpha  occ. eigenvalues --   -0.42948  -0.42904  -0.42683  -0.42177  -0.41984
 Alpha  occ. eigenvalues --   -0.41250  -0.40870  -0.39752  -0.39006  -0.38829
 Alpha  occ. eigenvalues --   -0.37791  -0.37042  -0.35244  -0.34320  -0.32413
 Alpha  occ. eigenvalues --   -0.31081  -0.27777
 Alpha virt. eigenvalues --   -0.12356  -0.09856  -0.09351  -0.08621  -0.07602
 Alpha virt. eigenvalues --   -0.06273  -0.05226  -0.04826  -0.03968  -0.03719
 Alpha virt. eigenvalues --   -0.02080  -0.01397  -0.00116   0.00922   0.01438

 Mulliken charges:
               1
     1  N   -0.690418
     2  C   -0.068279
     3  C    0.600505
     4  O   -0.560536
     5  C   -0.360840
     6  C    0.166921
     7  C   -0.160821
     8  C   -0.196161
     9  C   -0.197518
    10  C   -0.157749
    11  C    0.355042
    12  O   -0.634934
    13  H    0.152446
    14  H    0.121436
    15  H    0.153423
    16  H    0.148216
    17  H    0.110675
    18  H    0.130315
    19  H    0.147847
    20  H    0.413444
    21  H    0.319927
    22  H    0.315927
    23  N   -0.641970
    24  C    0.001491
    25  C    0.604968
    26  O   -0.508519
    27  C   -0.130337
    28  C   -0.460197
    29  C   -0.450761
    30  H    0.348083
    31  H    0.198254
    32  H    0.145380
    33  H    0.130052
    34  H    0.174243
    35  H    0.160022
    36  H    0.178514
    37  H    0.160955
    38  H    0.159127
    39  N   -0.649172
    40  C   -0.017929
    41  C    0.631490
    42  O   -0.522477
    43  C   -0.325595
    44  C   -0.270799
    45  C   -0.190425
    46  N   -0.596133
    47  C    0.815424
    48  N   -0.786480
    49  N   -0.766587
    50  O   -0.570513
    51  H    0.486173
    52  H    0.352917
    53  H    0.201436
    54  H    0.181559
    55  H    0.162430
    56  H    0.168373
    57  H    0.163504
    58  H    0.189880
    59  H    0.212181
    60  H    0.361196
    61  H    0.372984
    62  H    0.457483
    63  H    0.381140
    64  H    0.379765
 Sum of Mulliken charges =   1.00000

 Dipole moment (field-independent basis, Debye):
    X=            167.7222    Y=           -161.9088    Z=            215.1723  Tot=            317.2449
 Quadrupole moment (field-independent basis, Debye-Ang):
   XX=           5669.6960   YY=           5375.5903   ZZ=           9515.7652
   XY=          -5656.4391   XZ=           7520.3391   YZ=          -7303.8499

 Normal termination of Gaussian 16 at Mon Jun 27 16:17:20 2022.
