 Gaussian 16, Revision C.01,
 Gaussian 16:  ES64L-G16RevC.01  3-Jul-2019

 ----------------------------------------------------------------------
 # B3LYP/6-31G* empiricaldispersion=gd3bj guess=read geom=check nosymm
 integral(ultrafinegrid)
 ----------------------------------------------------------------------

 ------------------------------------------------------
 Candidate Structure: Conf:684 Charge calc in gas phase
 ------------------------------------------------------
 Structure from the checkpoint file:  "conf-684.chk"
 Charge =  1 Multiplicity = 1

                          Input orientation:
 ---------------------------------------------------------------------
 Center     Atomic      Atomic             Coordinates (Angstroms)
 Number     Number       Type             X           Y           Z
 ---------------------------------------------------------------------
      1          7           0       -4.226585    2.250489    2.225032
      2          1           0       -4.864590    3.003832    2.475847
      3          1           0       -4.399001    2.038943    1.243230
      4          6           0       -2.839565    2.681349    2.442584
      5          1           0       -2.549936    3.586056    1.883461
      6          6           0       -1.921640    1.535734    1.998959
      7          6           0       -2.609176    2.935827    3.931595
      8          1           0       -3.198397    3.802297    4.257810
      9          1           0       -2.947828    2.063771    4.495717
     10          8           0       -1.432566    0.725346    2.771142
     11          6           0       -1.143684    3.226903    4.192371
     12          7           0       -0.652066    2.844164    5.387410
     13          1           0        0.335913    2.960004    5.568232
     14          1           0       -1.168393    2.214945    5.984780
     15          8           0       -0.463242    3.829782    3.352322
     16          7           0       -1.709824    1.474106    0.645226
     17          1           0       -2.326227    2.028495    0.062564
     18          6           0       -1.254421    0.225577    0.065826
     19          1           0       -1.685712   -0.602052    0.641794
     20          6           0        0.272527    0.096832    0.170668
     21          6           0       -1.732243    0.118514   -1.409611
     22          1           0       -1.123007    0.774723   -2.041407
     23          1           0       -1.563661   -0.903699   -1.762061
     24          8           0        1.001104    1.015925    0.584360
     25          6           0       -3.188414    0.504681   -1.524514
     26          6           0       -4.185092   -0.300881   -0.958057
     27          1           0       -3.916964   -1.256583   -0.515063
     28          6           0       -3.554764    1.733068   -2.088714
     29          1           0       -2.792469    2.357605   -2.551111
     30          6           0       -5.513863    0.118358   -0.945757
     31          1           0       -6.274888   -0.516274   -0.502103
     32          6           0       -4.886554    2.156643   -2.079247
     33          1           0       -5.154848    3.108940   -2.527135
     34          6           0       -5.867798    1.352037   -1.500988
     35          1           0       -6.903814    1.676496   -1.490919
     36          7           0        0.740336   -1.078963   -0.266437
     37          1           0        0.112903   -1.773759   -0.685520
     38          6           0        2.154433   -1.426187   -0.413615
     39          1           0        2.679575   -1.141761    0.504379
     40          6           0        2.771117   -0.666695   -1.611641
     41          6           0        2.280947   -2.939499   -0.637201
     42          1           0        1.954851   -3.457122    0.271560
     43          1           0        3.331512   -3.186161   -0.804271
     44          8           0        2.944873   -1.200096   -2.699519
     45          6           0        1.394227   -3.444552   -1.775871
     46          7           0        1.989864   -4.223052   -2.706264
     47          1           0        1.424601   -4.489937   -3.502827
     48          1           0        2.984131   -4.138780   -2.863031
     49          8           0        0.177892   -3.221086   -1.781189
     50          7           0        3.074777    0.630682   -1.335152
     51          1           0        2.726055    0.997292   -0.451701
     52          6           0        3.469282    1.580188   -2.367282
     53          1           0        3.266369    1.101573   -3.331289
     54          6           0        4.975490    1.845975   -2.272819
     55          6           0        2.704469    2.897645   -2.195962
     56          1           0        3.009749    3.294796   -1.221930
     57          1           0        3.062482    3.612533   -2.944107
     58          8           0        5.467044    2.912406   -1.972537
     59          6           0        1.180132    2.741757   -2.259962
     60          1           0        0.825064    2.823840   -3.293701
     61          1           0        0.904425    1.744146   -1.912385
     62          6           0        0.415170    3.766689   -1.406592
     63          1           0        0.544732    4.785863   -1.780780
     64          1           0       -0.657623    3.552254   -1.452634
     65          7           0        0.795713    3.735858    0.006889
     66          1           0        0.595919    2.855090    0.501244
     67          7           0        2.203317    5.597313   -0.088935
     68          1           0        2.728360    6.304857    0.403816
     69          1           0        2.476080    5.434443   -1.047025
     70          7           0        1.746026    4.562658    1.940389
     71          1           0        2.418844    5.174152    2.379214
     72          1           0        1.011545    4.161043    2.544145
     73          6           0        1.581820    4.621424    0.615770
     74          8           0        5.690461    0.741061   -2.543237
     75          1           0        6.632177    0.979363   -2.443792
 ---------------------------------------------------------------------

 SCF Done:  E(RB3LYP) =  -1917.56312836     A.U. after    1 cycles

 Alpha  occ. eigenvalues --  -19.28175 -19.22889 -19.22884 -19.22079 -19.21019
 Alpha  occ. eigenvalues --  -19.20691 -19.20606 -14.50059 -14.48674 -14.47961
 Alpha  occ. eigenvalues --  -14.45651 -14.45606 -14.45202 -14.45183 -14.43904
 Alpha  occ. eigenvalues --  -14.40449 -10.45570 -10.40791 -10.39431 -10.39195
 Alpha  occ. eigenvalues --  -10.38195 -10.37941 -10.37319 -10.34612 -10.33649
 Alpha  occ. eigenvalues --  -10.33312 -10.33297 -10.31366 -10.29740 -10.29600
 Alpha  occ. eigenvalues --  -10.29594 -10.29230 -10.29013 -10.28337 -10.28190
 Alpha  occ. eigenvalues --  -10.27963 -10.27721 -10.27657 -10.27589  -1.19316
 Alpha  occ. eigenvalues --   -1.14519  -1.14060  -1.13600  -1.12925  -1.12420
 Alpha  occ. eigenvalues --   -1.12121  -1.10369  -1.03650  -1.02880  -1.02391
 Alpha  occ. eigenvalues --   -1.02113  -1.01974  -1.00534  -0.98980  -0.97672
 Alpha  occ. eigenvalues --   -0.94619  -0.90890  -0.89276  -0.87374  -0.85690
 Alpha  occ. eigenvalues --   -0.85345  -0.83352  -0.82687  -0.80066  -0.77296
 Alpha  occ. eigenvalues --   -0.76409  -0.76016  -0.73929  -0.72562  -0.71233
 Alpha  occ. eigenvalues --   -0.70542  -0.69694  -0.68874  -0.68343  -0.67599
 Alpha  occ. eigenvalues --   -0.67451  -0.67205  -0.66737  -0.66541  -0.64014
 Alpha  occ. eigenvalues --   -0.63750  -0.63113  -0.62498  -0.61873  -0.60844
 Alpha  occ. eigenvalues --   -0.60025  -0.59767  -0.59306  -0.59154  -0.58957
 Alpha  occ. eigenvalues --   -0.58513  -0.57625  -0.57034  -0.56783  -0.56191
 Alpha  occ. eigenvalues --   -0.55788  -0.55583  -0.54699  -0.54505  -0.53887
 Alpha  occ. eigenvalues --   -0.53581  -0.53286  -0.53148  -0.52177  -0.51920
 Alpha  occ. eigenvalues --   -0.51328  -0.50774  -0.50583  -0.50324  -0.49874
 Alpha  occ. eigenvalues --   -0.49471  -0.49233  -0.48795  -0.48693  -0.48283
 Alpha  occ. eigenvalues --   -0.48059  -0.47866  -0.47398  -0.46929  -0.46001
 Alpha  occ. eigenvalues --   -0.45904  -0.45533  -0.45460  -0.45237  -0.44862
 Alpha  occ. eigenvalues --   -0.44387  -0.43725  -0.43014  -0.42586  -0.40985
 Alpha  occ. eigenvalues --   -0.40445  -0.38412  -0.38016  -0.37725  -0.37307
 Alpha  occ. eigenvalues --   -0.37154  -0.36410  -0.35540  -0.35357  -0.34767
 Alpha  occ. eigenvalues --   -0.34389  -0.34174  -0.34037  -0.33405  -0.33268
 Alpha  occ. eigenvalues --   -0.31961
 Alpha virt. eigenvalues --   -0.10322  -0.09954  -0.09453  -0.08745  -0.07899
 Alpha virt. eigenvalues --   -0.07574  -0.06999  -0.06508  -0.06125  -0.05871
 Alpha virt. eigenvalues --   -0.03629  -0.02137  -0.01117  -0.00838  -0.00520

 Mulliken charges:
               1
     1  N   -0.726787
     2  H    0.312693
     3  H    0.312112
     4  C   -0.066520
     5  H    0.141528
     6  C    0.639031
     7  C   -0.361255
     8  H    0.181084
     9  H    0.191727
    10  O   -0.513286
    11  C    0.644236
    12  N   -0.728355
    13  H    0.348884
    14  H    0.363225
    15  O   -0.564537
    16  N   -0.634954
    17  H    0.341199
    18  C   -0.056234
    19  H    0.198825
    20  C    0.674036
    21  C   -0.416449
    22  H    0.159899
    23  H    0.205367
    24  O   -0.587121
    25  C    0.152632
    26  C   -0.170141
    27  H    0.149959
    28  C   -0.219130
    29  H    0.130988
    30  C   -0.127826
    31  H    0.159733
    32  C   -0.126686
    33  H    0.149964
    34  C   -0.137515
    35  H    0.155721
    36  N   -0.623262
    37  H    0.403464
    38  C   -0.073530
    39  H    0.186183
    40  C    0.630011
    41  C   -0.382476
    42  H    0.199987
    43  H    0.175401
    44  O   -0.512423
    45  C    0.631339
    46  N   -0.719974
    47  H    0.355017
    48  H    0.358130
    49  O   -0.541056
    50  N   -0.622489
    51  H    0.368700
    52  C   -0.050291
    53  H    0.208557
    54  C    0.602171
    55  C   -0.303751
    56  H    0.145422
    57  H    0.171670
    58  O   -0.465249
    59  C   -0.282288
    60  H    0.167464
    61  H    0.171919
    62  C   -0.186942
    63  H    0.173545
    64  H    0.174654
    65  N   -0.591776
    66  H    0.419025
    67  N   -0.752687
    68  H    0.369338
    69  H    0.379885
    70  N   -0.778093
    71  H    0.354791
    72  H    0.424811
    73  C    0.765283
    74  O   -0.548926
    75  H    0.422399
 Sum of Mulliken charges =   1.00000

 Dipole moment (field-independent basis, Debye):
    X=              3.1738    Y=             13.2754    Z=              1.7166  Tot=             13.7570
 Quadrupole moment (field-independent basis, Debye-Ang):
   XX=           -161.9366   YY=           -133.5581   ZZ=           -177.4763
   XY=             -1.8019   XZ=             -4.6740   YZ=             20.6399

 Normal termination of Gaussian 16 at Mon Jun 27 16:17:34 2022.
