 Gaussian 16, Revision C.01,
 Gaussian 16:  ES64L-G16RevC.01  3-Jul-2019

 ----------------------------------------------------------------------
 # B3LYP/6-31G* empiricaldispersion=gd3bj guess=read geom=check nosymm
 integral(ultrafinegrid)
 ----------------------------------------------------------------------

 ------------------------------------------------------
 Candidate Structure: Conf:433 Charge calc in gas phase
 ------------------------------------------------------
 Structure from the checkpoint file:  "conf-433.chk"
 Charge =  1 Multiplicity = 1

                          Input orientation:
 ---------------------------------------------------------------------
 Center     Atomic      Atomic             Coordinates (Angstroms)
 Number     Number       Type             X           Y           Z
 ---------------------------------------------------------------------
      1          7           0       -3.014256    2.249053    3.122970
      2          1           0       -4.013804    2.127373    2.968084
      3          1           0       -2.881037    2.969015    3.827726
      4          6           0       -2.447214    0.973169    3.558922
      5          1           0       -1.457785    1.177148    3.989317
      6          6           0       -2.161280    0.083149    2.343147
      7          6           0       -3.256519    0.188176    4.602423
      8          1           0       -2.691653   -0.693271    4.921583
      9          1           0       -3.411131    0.816082    5.488767
     10          8           0       -1.987739   -1.137787    2.481902
     11          6           0       -4.611268   -0.249520    4.054933
     12          7           0       -5.317557   -1.092467    4.846324
     13          1           0       -6.257108   -1.343177    4.569676
     14          1           0       -5.000598   -1.361587    5.766051
     15          8           0       -5.036328    0.135790    2.964833
     16          7           0       -2.058034    0.750411    1.178619
     17          1           0       -2.297055    1.739758    1.252556
     18          6           0       -1.676404    0.157690   -0.087848
     19          1           0       -1.614661   -0.918436    0.091643
     20          6           0       -0.243151    0.506325   -0.538949
     21          6           0       -2.712144    0.400070   -1.207212
     22          1           0       -3.108938    1.418568   -1.115247
     23          1           0       -2.180570    0.337431   -2.159483
     24          8           0        0.164457    0.081315   -1.611012
     25          6           0       -3.821687   -0.623589   -1.163205
     26          6           0       -3.903893   -1.617520   -2.148833
     27          1           0       -3.215160   -1.590028   -2.989766
     28          6           0       -4.733411   -0.654693   -0.100457
     29          1           0       -4.694261    0.096487    0.679430
     30          6           0       -4.866728   -2.628866   -2.067968
     31          1           0       -4.944962   -3.369078   -2.861066
     32          6           0       -5.685209   -1.672659   -0.005951
     33          1           0       -6.368225   -1.677207    0.837895
     34          6           0       -5.753682   -2.667951   -0.985297
     35          1           0       -6.503079   -3.451254   -0.921413
     36          7           0        0.512460    1.210895    0.353953
     37          1           0        0.112746    1.306296    1.281939
     38          6           0        1.954560    0.984006    0.391812
     39          1           0        2.237759    0.543425   -0.563315
     40          6           0        2.154605   -0.023194    1.541185
     41          6           0        2.747555    2.271854    0.609581
     42          1           0        2.591324    2.654851    1.625802
     43          1           0        2.383325    3.037565   -0.085568
     44          8           0        1.526175    0.117075    2.594792
     45          6           0        4.235321    2.018211    0.362978
     46          7           0        5.051204    3.082501    0.570236
     47          1           0        6.036064    2.979532    0.366998
     48          1           0        4.698940    4.000581    0.795995
     49          8           0        4.657982    0.923104    0.003613
     50          7           0        2.940073   -1.084057    1.261449
     51          1           0        3.632608   -0.977625    0.521561
     52          6           0        3.145990   -2.156182    2.216689
     53          1           0        3.065057   -1.756861    3.233254
     54          6           0        4.548261   -2.706728    2.006168
     55          6           0        2.108907   -3.293049    2.039723
     56          1           0        2.158373   -3.618437    0.990896
     57          1           0        2.417631   -4.142522    2.660585
     58          8           0        5.240221   -2.472489    1.042668
     59          6           0        0.684788   -2.872098    2.416455
     60          1           0        0.662874   -2.573646    3.470121
     61          1           0        0.365768   -1.993328    1.855232
     62          6           0       -0.349778   -3.983124    2.219734
     63          1           0        0.007321   -4.932204    2.636198
     64          1           0       -1.277196   -3.729921    2.733205
     65          7           0       -0.684825   -4.225716    0.806761
     66          1           0        0.042135   -4.608641    0.217699
     67          7           0       -2.772238   -3.192097    0.834017
     68          1           0       -3.671711   -3.060610    0.382968
     69          1           0       -2.496314   -2.461666    1.509515
     70          7           0       -2.101852   -4.388696   -1.022632
     71          1           0       -2.845900   -3.965270   -1.564995
     72          1           0       -1.542902   -5.113859   -1.445931
     73          6           0       -1.847138   -3.921654    0.213090
     74          8           0        4.910479   -3.525813    3.013670
     75          1           0        5.803959   -3.858099    2.801878
 ---------------------------------------------------------------------

 SCF Done:  E(RB3LYP) =  -1917.57549810     A.U. after    1 cycles

 Alpha  occ. eigenvalues --  -19.28161 -19.22776 -19.22564 -19.21693 -19.20170
 Alpha  occ. eigenvalues --  -19.20122 -19.19311 -14.50132 -14.49590 -14.47322
 Alpha  occ. eigenvalues --  -14.46183 -14.45620 -14.44099 -14.43904 -14.43396
 Alpha  occ. eigenvalues --  -14.41833 -10.45651 -10.40562 -10.39371 -10.39215
 Alpha  occ. eigenvalues --  -10.37372 -10.37066 -10.36917 -10.33658 -10.33076
 Alpha  occ. eigenvalues --  -10.32774 -10.32511 -10.31279 -10.29435 -10.29208
 Alpha  occ. eigenvalues --  -10.29046 -10.28779 -10.28775 -10.28711 -10.28430
 Alpha  occ. eigenvalues --  -10.28337 -10.28099 -10.28005 -10.27759  -1.19155
 Alpha  occ. eigenvalues --   -1.14500  -1.14107  -1.13220  -1.12579  -1.11670
 Alpha  occ. eigenvalues --   -1.11044  -1.10278  -1.03897  -1.03779  -1.01673
 Alpha  occ. eigenvalues --   -1.01049  -1.00770  -1.00410  -0.98800  -0.98186
 Alpha  occ. eigenvalues --   -0.95283  -0.90007  -0.88749  -0.86806  -0.85951
 Alpha  occ. eigenvalues --   -0.84913  -0.84014  -0.83162  -0.79145  -0.77317
 Alpha  occ. eigenvalues --   -0.76613  -0.75835  -0.73878  -0.71724  -0.70896
 Alpha  occ. eigenvalues --   -0.70149  -0.69855  -0.69101  -0.68199  -0.67695
 Alpha  occ. eigenvalues --   -0.67154  -0.66646  -0.66601  -0.65527  -0.64376
 Alpha  occ. eigenvalues --   -0.63575  -0.62751  -0.62270  -0.62010  -0.61543
 Alpha  occ. eigenvalues --   -0.60589  -0.59899  -0.59190  -0.58279  -0.57665
 Alpha  occ. eigenvalues --   -0.57417  -0.56534  -0.56420  -0.56204  -0.56017
 Alpha  occ. eigenvalues --   -0.55559  -0.55191  -0.54818  -0.54527  -0.53807
 Alpha  occ. eigenvalues --   -0.53301  -0.52895  -0.52495  -0.52020  -0.51600
 Alpha  occ. eigenvalues --   -0.51489  -0.51252  -0.50962  -0.50342  -0.50143
 Alpha  occ. eigenvalues --   -0.49963  -0.49211  -0.48969  -0.48558  -0.47936
 Alpha  occ. eigenvalues --   -0.47585  -0.46903  -0.46685  -0.46350  -0.46102
 Alpha  occ. eigenvalues --   -0.45586  -0.45376  -0.44927  -0.44137  -0.44076
 Alpha  occ. eigenvalues --   -0.43755  -0.43147  -0.43080  -0.42631  -0.40379
 Alpha  occ. eigenvalues --   -0.40211  -0.38632  -0.38035  -0.37559  -0.36759
 Alpha  occ. eigenvalues --   -0.36322  -0.35561  -0.35541  -0.35031  -0.34635
 Alpha  occ. eigenvalues --   -0.34520  -0.34235  -0.34062  -0.33512  -0.33058
 Alpha  occ. eigenvalues --   -0.32333
 Alpha virt. eigenvalues --   -0.10743  -0.09948  -0.09810  -0.08267  -0.07774
 Alpha virt. eigenvalues --   -0.07552  -0.07353  -0.05945  -0.05608  -0.04724
 Alpha virt. eigenvalues --   -0.02091  -0.01556  -0.01035  -0.00285   0.00047

 Mulliken charges:
               1
     1  N   -0.760363
     2  H    0.343658
     3  H    0.324327
     4  C   -0.077543
     5  H    0.196778
     6  C    0.663107
     7  C   -0.380021
     8  H    0.189923
     9  H    0.179579
    10  O   -0.589399
    11  C    0.620348
    12  N   -0.744374
    13  H    0.355416
    14  H    0.353829
    15  O   -0.526739
    16  N   -0.623998
    17  H    0.375599
    18  C   -0.041767
    19  H    0.178230
    20  C    0.592006
    21  C   -0.368830
    22  H    0.169269
    23  H    0.199068
    24  O   -0.507827
    25  C    0.159077
    26  C   -0.203655
    27  H    0.155803
    28  C   -0.187132
    29  H    0.185496
    30  C   -0.179354
    31  H    0.154409
    32  C   -0.159777
    33  H    0.157551
    34  C   -0.147173
    35  H    0.156513
    36  N   -0.600198
    37  H    0.346493
    38  C   -0.057317
    39  H    0.207945
    40  C    0.604264
    41  C   -0.390207
    42  H    0.180664
    43  H    0.191330
    44  O   -0.557018
    45  C    0.620422
    46  N   -0.748877
    47  H    0.358119
    48  H    0.347987
    49  O   -0.511852
    50  N   -0.606248
    51  H    0.395051
    52  C   -0.033252
    53  H    0.200108
    54  C    0.575574
    55  C   -0.278014
    56  H    0.133768
    57  H    0.168101
    58  O   -0.443046
    59  C   -0.254301
    60  H    0.170471
    61  H    0.176480
    62  C   -0.172302
    63  H    0.176380
    64  H    0.195388
    65  N   -0.598306
    66  H    0.354473
    67  N   -0.800834
    68  H    0.379774
    69  H    0.436514
    70  N   -0.775660
    71  H    0.380806
    72  H    0.367625
    73  C    0.786214
    74  O   -0.564901
    75  H    0.426346
 Sum of Mulliken charges =   1.00000

 Dipole moment (field-independent basis, Debye):
    X=             -7.4388    Y=             -8.3858    Z=              9.7474  Tot=             14.8549
 Quadrupole moment (field-independent basis, Debye-Ang):
   XX=           -150.5169   YY=           -133.8676   ZZ=           -171.4462
   XY=             31.4376   XZ=            -15.7023   YZ=              3.8130

 Normal termination of Gaussian 16 at Mon Jun 27 16:17:35 2022.
