 Gaussian 16, Revision C.01,
 Gaussian 16:  ES64L-G16RevC.01  3-Jul-2019

 ----------------------------------------------------------------------
 # B3LYP/6-31G* empiricaldispersion=gd3bj guess=read geom=check nosymm
 integral(ultrafinegrid)
 ----------------------------------------------------------------------

 ------------------------------------------------------
 Candidate Structure: Conf:950 Charge calc in gas phase
 ------------------------------------------------------
 Structure from the checkpoint file:  "conf-950.chk"
 Charge =  1 Multiplicity = 1

                          Input orientation:
 ---------------------------------------------------------------------
 Center     Atomic      Atomic             Coordinates (Angstroms)
 Number     Number       Type             X           Y           Z
 ---------------------------------------------------------------------
      1          7           0       -3.749335   -1.075807    3.248754
      2          1           0       -4.710696   -0.752519    3.152390
      3          1           0       -3.669798   -1.919277    2.678524
      4          6           0       -2.823184   -0.074904    2.722814
      5          1           0       -3.042383    0.884715    3.204745
      6          6           0       -2.849895    0.047965    1.194076
      7          6           0       -1.363493   -0.485763    3.003216
      8          1           0       -1.186860   -1.428373    2.469963
      9          1           0       -0.695332    0.258711    2.560893
     10          8           0       -2.788210   -0.969111    0.496406
     11          6           0       -0.872464   -0.692605    4.430093
     12          7           0       -1.812691   -0.909818    5.367305
     13          1           0       -1.511745   -1.148905    6.303080
     14          1           0       -2.768719   -1.094643    5.061408
     15          8           0        0.341946   -0.675982    4.651749
     16          7           0       -2.770803    1.294008    0.671740
     17          1           0       -2.856986    2.101810    1.274191
     18          6           0       -2.485583    1.511123   -0.747329
     19          1           0       -2.936717    0.669001   -1.280140
     20          6           0       -0.954308    1.456175   -0.930454
     21          6           0       -3.083669    2.834603   -1.236869
     22          1           0       -2.527973    3.664621   -0.788109
     23          1           0       -2.913371    2.895262   -2.318375
     24          8           0       -0.295385    2.470558   -1.220159
     25          6           0       -4.555570    2.942326   -0.913539
     26          6           0       -5.491824    2.131249   -1.566342
     27          1           0       -5.162705    1.445320   -2.343873
     28          6           0       -5.000308    3.821850    0.078801
     29          1           0       -4.285209    4.470932    0.580487
     30          6           0       -6.842925    2.196679   -1.231737
     31          1           0       -7.558545    1.564969   -1.749583
     32          6           0       -6.353243    3.891143    0.416370
     33          1           0       -6.684004    4.585246    1.183383
     34          6           0       -7.277005    3.076449   -0.237292
     35          1           0       -8.330421    3.130477    0.020149
     36          7           0       -0.399417    0.261962   -0.656050
     37          1           0       -1.026484   -0.524936   -0.501558
     38          6           0        1.033703    0.076938   -0.552769
     39          1           0        1.452288    1.065351   -0.356936
     40          6           0        1.629659   -0.434146   -1.888725
     41          6           0        1.414519   -0.841478    0.638088
     42          1           0        1.715673   -1.833267    0.281424
     43          1           0        0.552847   -0.988575    1.287298
     44          8           0        0.925738   -0.936925   -2.754812
     45          6           0        2.591057   -0.241450    1.405300
     46          7           0        2.519085   -0.265004    2.744619
     47          1           0        3.302747    0.127597    3.251565
     48          1           0        1.695580   -0.532861    3.293515
     49          8           0        3.552829    0.239565    0.787413
     50          7           0        2.965941   -0.206107   -1.941200
     51          1           0        3.377023    0.077423   -1.039966
     52          6           0        3.925139   -0.565154   -2.974388
     53          1           0        4.399949   -1.525407   -2.734847
     54          6           0        5.028075    0.487522   -2.914323
     55          6           0        3.383516   -0.705863   -4.424854
     56          1           0        4.257611   -0.865454   -5.067514
     57          1           0        2.798461   -1.627096   -4.449767
     58          8           0        4.869973    1.648791   -2.575047
     59          6           0        2.478345    0.403991   -4.980847
     60          1           0        2.058017    0.034128   -5.923122
     61          1           0        1.630325    0.502512   -4.303152
     62          6           0        3.094941    1.797720   -5.235385
     63          1           0        3.941272    2.016715   -4.587430
     64          1           0        3.460837    1.898117   -6.259311
     65          7           0        2.092203    2.862712   -5.046182
     66          1           0        1.594624    3.185761   -5.864345
     67          7           0        2.089274    2.733525   -2.720708
     68          1           0        1.498167    2.678004   -1.891434
     69          1           0        3.040347    2.363881   -2.672772
     70          7           0        0.275197    3.646003   -3.808205
     71          1           0       -0.199219    3.628681   -2.907252
     72          1           0       -0.319551    3.599404   -4.623238
     73          6           0        1.492048    3.062024   -3.858754
     74          8           0        6.205862   -0.001975   -3.311603
     75          1           0        6.860288    0.722940   -3.274427
 ---------------------------------------------------------------------

 SCF Done:  E(RB3LYP) =  -1917.57055201     A.U. after    1 cycles

 Alpha  occ. eigenvalues --  -19.31063 -19.25851 -19.24574 -19.22647 -19.21157
 Alpha  occ. eigenvalues --  -19.20744 -19.20295 -14.49667 -14.48844 -14.47720
 Alpha  occ. eigenvalues --  -14.47528 -14.47295 -14.44974 -14.43627 -14.43426
 Alpha  occ. eigenvalues --  -14.42834 -10.45189 -10.43541 -10.40818 -10.39419
 Alpha  occ. eigenvalues --  -10.38401 -10.38385 -10.37974 -10.34618 -10.34503
 Alpha  occ. eigenvalues --  -10.33999 -10.33886 -10.33653 -10.30060 -10.29618
 Alpha  occ. eigenvalues --  -10.29544 -10.29475 -10.28763 -10.28221 -10.27165
 Alpha  occ. eigenvalues --  -10.27021 -10.26880 -10.26845 -10.26628  -1.22307
 Alpha  occ. eigenvalues --   -1.15928  -1.14580  -1.13979  -1.13330  -1.12921
 Alpha  occ. eigenvalues --   -1.12181  -1.11772  -1.04521  -1.03645  -1.03413
 Alpha  occ. eigenvalues --   -1.02433  -1.01477  -1.00421  -0.98799  -0.98201
 Alpha  occ. eigenvalues --   -0.93929  -0.91046  -0.89571  -0.88124  -0.86382
 Alpha  occ. eigenvalues --   -0.85665  -0.82896  -0.82407  -0.80456  -0.78532
 Alpha  occ. eigenvalues --   -0.76840  -0.75894  -0.74738  -0.72613  -0.71584
 Alpha  occ. eigenvalues --   -0.71310  -0.70153  -0.69898  -0.68532  -0.67900
 Alpha  occ. eigenvalues --   -0.67299  -0.67041  -0.66739  -0.64970  -0.64458
 Alpha  occ. eigenvalues --   -0.63828  -0.63175  -0.62376  -0.61772  -0.61576
 Alpha  occ. eigenvalues --   -0.61495  -0.61304  -0.60541  -0.59337  -0.59193
 Alpha  occ. eigenvalues --   -0.58933  -0.58509  -0.57780  -0.57121  -0.56500
 Alpha  occ. eigenvalues --   -0.56387  -0.55626  -0.55141  -0.54738  -0.54207
 Alpha  occ. eigenvalues --   -0.54097  -0.53821  -0.53050  -0.52871  -0.52718
 Alpha  occ. eigenvalues --   -0.52196  -0.51910  -0.51122  -0.50963  -0.50508
 Alpha  occ. eigenvalues --   -0.50162  -0.49922  -0.49859  -0.49612  -0.49503
 Alpha  occ. eigenvalues --   -0.48541  -0.48253  -0.47320  -0.47106  -0.46508
 Alpha  occ. eigenvalues --   -0.46471  -0.46087  -0.45754  -0.44860  -0.44597
 Alpha  occ. eigenvalues --   -0.43854  -0.43749  -0.42925  -0.42236  -0.42049
 Alpha  occ. eigenvalues --   -0.40339  -0.39665  -0.39405  -0.38287  -0.38089
 Alpha  occ. eigenvalues --   -0.37644  -0.36065  -0.35734  -0.35661  -0.35361
 Alpha  occ. eigenvalues --   -0.35053  -0.34781  -0.34039  -0.33855  -0.33040
 Alpha  occ. eigenvalues --   -0.32527
 Alpha virt. eigenvalues --   -0.11318  -0.11026  -0.10155  -0.08632  -0.08283
 Alpha virt. eigenvalues --   -0.08011  -0.07356  -0.06415  -0.05819  -0.05601
 Alpha virt. eigenvalues --   -0.02806  -0.02715  -0.02073  -0.00640  -0.00219

 Mulliken charges:
               1
     1  N   -0.727254
     2  H    0.330126
     3  H    0.335089
     4  C   -0.075453
     5  H    0.157002
     6  C    0.618512
     7  C   -0.389409
     8  H    0.200659
     9  H    0.171976
    10  O   -0.547662
    11  C    0.610562
    12  N   -0.744806
    13  H    0.352641
    14  H    0.388516
    15  O   -0.526980
    16  N   -0.588960
    17  H    0.345712
    18  C   -0.065899
    19  H    0.208836
    20  C    0.641548
    21  C   -0.393522
    22  H    0.169249
    23  H    0.155965
    24  O   -0.579767
    25  C    0.183214
    26  C   -0.179156
    27  H    0.130578
    28  C   -0.205762
    29  H    0.126835
    30  C   -0.128455
    31  H    0.149765
    32  C   -0.127651
    33  H    0.148040
    34  C   -0.128725
    35  H    0.150873
    36  N   -0.597607
    37  H    0.386953
    38  C   -0.067856
    39  H    0.188958
    40  C    0.600583
    41  C   -0.404420
    42  H    0.204854
    43  H    0.173285
    44  O   -0.521244
    45  C    0.617022
    46  N   -0.770659
    47  H    0.352972
    48  H    0.402084
    49  O   -0.540435
    50  N   -0.655929
    51  H    0.395768
    52  C   -0.003260
    53  H    0.197520
    54  C    0.584662
    55  C   -0.294682
    56  H    0.168237
    57  H    0.200688
    58  O   -0.474547
    59  C   -0.296303
    60  H    0.162893
    61  H    0.191398
    62  C   -0.197454
    63  H    0.195364
    64  H    0.185097
    65  N   -0.583618
    66  H    0.352418
    67  N   -0.798869
    68  H    0.408514
    69  H    0.424915
    70  N   -0.770428
    71  H    0.399407
    72  H    0.355966
    73  C    0.767301
    74  O   -0.539355
    75  H    0.433568
 Sum of Mulliken charges =   1.00000

 Dipole moment (field-independent basis, Debye):
    X=             -0.9207    Y=              7.1615    Z=             -7.9372  Tot=             10.7301
 Quadrupole moment (field-independent basis, Debye-Ang):
   XX=           -145.6684   YY=           -203.4136   ZZ=           -130.3842
   XY=             -8.2680   XZ=            -49.8764   YZ=            -32.6405

 Normal termination of Gaussian 16 at Mon Jun 27 16:17:32 2022.
