 Gaussian 16, Revision C.01,
 Gaussian 16:  ES64L-G16RevC.01  3-Jul-2019

 ----------------------------------------------------------------------
 # B3LYP/6-31G* empiricaldispersion=gd3bj guess=read geom=check nosymm
 integral(ultrafinegrid)
 ----------------------------------------------------------------------

 ------------------------------------------------------
 Candidate Structure: Conf:727 Charge calc in gas phase
 ------------------------------------------------------
 Structure from the checkpoint file:  "conf-727.chk"
 Charge =  1 Multiplicity = 1

                          Input orientation:
 ---------------------------------------------------------------------
 Center     Atomic      Atomic             Coordinates (Angstroms)
 Number     Number       Type             X           Y           Z
 ---------------------------------------------------------------------
      1          7           0       -3.449255    3.942371    2.474975
      2          1           0       -4.383748    3.949326    2.068168
      3          1           0       -3.436147    3.117962    3.078681
      4          6           0       -2.474515    3.717626    1.414585
      5          1           0       -2.674819    4.411974    0.592608
      6          6           0       -2.490893    2.269639    0.894166
      7          6           0       -1.070004    4.024714    1.970118
      8          1           0       -1.162413    4.937519    2.572463
      9          1           0       -0.754240    3.223723    2.647616
     10          8           0       -2.867227    1.342053    1.597216
     11          6           0        0.009000    4.268667    0.932663
     12          7           0        1.271734    4.239638    1.376898
     13          1           0        2.059116    4.251715    0.727379
     14          1           0        1.461314    3.873004    2.299657
     15          8           0       -0.267646    4.574035   -0.253084
     16          7           0       -2.035473    2.104837   -0.388376
     17          1           0       -1.510618    2.895517   -0.750962
     18          6           0       -1.577282    0.796714   -0.804982
     19          1           0       -2.304151    0.065180   -0.441972
     20          6           0       -0.211972    0.497368   -0.140242
     21          6           0       -1.520959    0.749737   -2.354591
     22          1           0       -2.491053    1.121001   -2.702861
     23          1           0       -0.763083    1.462817   -2.702446
     24          8           0        0.360415    1.349777    0.550589
     25          6           0       -1.243689   -0.616841   -2.938154
     26          6           0       -0.017429   -0.908125   -3.547814
     27          1           0        0.745915   -0.140361   -3.625987
     28          6           0       -2.193142   -1.641986   -2.813303
     29          1           0       -3.151968   -1.431990   -2.345112
     30          6           0        0.264096   -2.194187   -4.010393
     31          1           0        1.230278   -2.399332   -4.460536
     32          6           0       -1.918053   -2.927012   -3.280155
     33          1           0       -2.664654   -3.708838   -3.177648
     34          6           0       -0.686507   -3.207045   -3.877643
     35          1           0       -0.471763   -4.208726   -4.237799
     36          7           0        0.318130   -0.721329   -0.388875
     37          1           0       -0.155680   -1.308382   -1.064045
     38          6           0        1.715213   -1.059055   -0.091902
     39          1           0        1.936740   -0.757699    0.932748
     40          6           0        2.608738   -0.265326   -1.070639
     41          6           0        1.937631   -2.554307   -0.257638
     42          1           0        1.772160   -2.838849   -1.303248
     43          1           0        1.224478   -3.108527    0.363828
     44          8           0        2.939735   -0.695457   -2.166736
     45          6           0        3.366854   -2.899676    0.158679
     46          7           0        3.737675   -4.190041   -0.054149
     47          1           0        4.689474   -4.454464    0.158918
     48          1           0        3.162079   -4.840574   -0.567085
     49          8           0        4.104269   -2.067937    0.671513
     50          7           0        2.891592    0.999883   -0.628066
     51          1           0        2.306469    1.314877    0.144302
     52          6           0        3.280577    2.034732   -1.576098
     53          1           0        3.867655    1.551224   -2.358348
     54          6           0        4.169084    3.006753   -0.812959
     55          6           0        2.022463    2.709411   -2.151205
     56          1           0        1.545358    1.969725   -2.804696
     57          1           0        1.329131    2.896854   -1.326589
     58          8           0        3.759293    3.897589   -0.083648
     59          6           0        2.243648    4.022802   -2.902905
     60          1           0        2.709382    4.746352   -2.226454
     61          1           0        2.918421    3.893570   -3.757802
     62          6           0        0.895096    4.584230   -3.373893
     63          1           0        0.536734    4.070146   -4.268731
     64          1           0        0.135324    4.440954   -2.601624
     65          7           0        0.948082    6.015657   -3.708087
     66          1           0        1.079223    6.269062   -4.677237
     67          7           0        0.834826    6.757470   -1.506847
     68          1           0        0.969478    7.507398   -0.843650
     69          1           0        0.490453    5.858053   -1.115484
     70          7           0        1.320103    8.249364   -3.210340
     71          1           0        1.130169    9.040787   -2.612808
     72          1           0        1.482803    8.453508   -4.185347
     73          6           0        1.024005    6.996376   -2.801037
     74          8           0        5.467996    2.771121   -1.002523
     75          1           0        5.971107    3.381161   -0.427926
 ---------------------------------------------------------------------

 SCF Done:  E(RB3LYP) =  -1917.56117408     A.U. after    1 cycles

 Alpha  occ. eigenvalues --  -19.30292 -19.25293 -19.23589 -19.21332 -19.19906
 Alpha  occ. eigenvalues --  -19.19035 -19.17973 -14.52393 -14.52379 -14.50545
 Alpha  occ. eigenvalues --  -14.45528 -14.45125 -14.43917 -14.43024 -14.42320
 Alpha  occ. eigenvalues --  -14.38286 -10.48349 -10.42997 -10.40353 -10.37874
 Alpha  occ. eigenvalues --  -10.36773 -10.35904 -10.35678 -10.35492 -10.33219
 Alpha  occ. eigenvalues --  -10.31923 -10.31602 -10.30401 -10.30113 -10.29230
 Alpha  occ. eigenvalues --  -10.28653 -10.28389 -10.28004 -10.27409 -10.26958
 Alpha  occ. eigenvalues --  -10.26829 -10.26816 -10.26706 -10.26652  -1.21589
 Alpha  occ. eigenvalues --   -1.16846  -1.14338  -1.13212  -1.12423  -1.11702
 Alpha  occ. eigenvalues --   -1.10791  -1.09841  -1.06329  -1.04498  -1.01787
 Alpha  occ. eigenvalues --   -1.01342  -1.01034  -1.00251  -0.97108  -0.96119
 Alpha  occ. eigenvalues --   -0.93757  -0.91659  -0.88192  -0.86649  -0.85363
 Alpha  occ. eigenvalues --   -0.84713  -0.82303  -0.81490  -0.81320  -0.78084
 Alpha  occ. eigenvalues --   -0.76230  -0.75204  -0.74387  -0.73958  -0.72356
 Alpha  occ. eigenvalues --   -0.70685  -0.69784  -0.68669  -0.68304  -0.67592
 Alpha  occ. eigenvalues --   -0.66793  -0.66381  -0.65581  -0.65175  -0.64740
 Alpha  occ. eigenvalues --   -0.64317  -0.63664  -0.62892  -0.61537  -0.61230
 Alpha  occ. eigenvalues --   -0.60033  -0.59988  -0.59368  -0.59017  -0.58820
 Alpha  occ. eigenvalues --   -0.58155  -0.57844  -0.57566  -0.57185  -0.56089
 Alpha  occ. eigenvalues --   -0.55554  -0.54360  -0.54021  -0.53925  -0.53609
 Alpha  occ. eigenvalues --   -0.52911  -0.52662  -0.52416  -0.52017  -0.51460
 Alpha  occ. eigenvalues --   -0.50886  -0.50778  -0.50303  -0.50067  -0.49727
 Alpha  occ. eigenvalues --   -0.49229  -0.48630  -0.48243  -0.47954  -0.47795
 Alpha  occ. eigenvalues --   -0.47025  -0.46865  -0.46665  -0.46372  -0.45431
 Alpha  occ. eigenvalues --   -0.45291  -0.44923  -0.44361  -0.44031  -0.43258
 Alpha  occ. eigenvalues --   -0.43043  -0.42699  -0.42529  -0.42351  -0.41980
 Alpha  occ. eigenvalues --   -0.41661  -0.40732  -0.39140  -0.38112  -0.37339
 Alpha  occ. eigenvalues --   -0.36685  -0.35586  -0.34376  -0.34085  -0.33393
 Alpha  occ. eigenvalues --   -0.33063  -0.32941  -0.32432  -0.31955  -0.31800
 Alpha  occ. eigenvalues --   -0.30888
 Alpha virt. eigenvalues --   -0.11999  -0.10469  -0.09258  -0.08900  -0.08772
 Alpha virt. eigenvalues --   -0.08154  -0.07350  -0.05695  -0.05186  -0.04965
 Alpha virt. eigenvalues --   -0.03994  -0.03704  -0.02611  -0.01787  -0.01224

 Mulliken charges:
               1
     1  N   -0.702332
     2  H    0.310944
     3  H    0.321158
     4  C   -0.094397
     5  H    0.155079
     6  C    0.596038
     7  C   -0.358617
     8  H    0.206821
     9  H    0.188272
    10  O   -0.513904
    11  C    0.652919
    12  N   -0.760512
    13  H    0.397175
    14  H    0.357699
    15  O   -0.612767
    16  N   -0.599224
    17  H    0.349474
    18  C   -0.085475
    19  H    0.206957
    20  C    0.643094
    21  C   -0.364312
    22  H    0.183368
    23  H    0.133172
    24  O   -0.567871
    25  C    0.111510
    26  C   -0.190515
    27  H    0.146560
    28  C   -0.183749
    29  H    0.145720
    30  C   -0.129517
    31  H    0.157613
    32  C   -0.127890
    33  H    0.152868
    34  C   -0.136516
    35  H    0.149185
    36  N   -0.609073
    37  H    0.365001
    38  C   -0.043700
    39  H    0.199257
    40  C    0.650555
    41  C   -0.415237
    42  H    0.188836
    43  H    0.187170
    44  O   -0.531166
    45  C    0.633495
    46  N   -0.754521
    47  H    0.354039
    48  H    0.343315
    49  O   -0.507457
    50  N   -0.613441
    51  H    0.367879
    52  C   -0.038963
    53  H    0.209592
    54  C    0.597097
    55  C   -0.320705
    56  H    0.173889
    57  H    0.180475
    58  O   -0.495459
    59  C   -0.284544
    60  H    0.166401
    61  H    0.161762
    62  C   -0.192095
    63  H    0.187992
    64  H    0.211417
    65  N   -0.598175
    66  H    0.359408
    67  N   -0.798080
    68  H    0.367356
    69  H    0.450901
    70  N   -0.766508
    71  H    0.379628
    72  H    0.376600
    73  C    0.819522
    74  O   -0.527215
    75  H    0.426721
 Sum of Mulliken charges =   1.00000

 Dipole moment (field-independent basis, Debye):
    X=              5.8167    Y=             22.1740    Z=            -12.8996  Tot=             26.3044
 Quadrupole moment (field-independent basis, Debye-Ang):
   XX=           -206.2860   YY=              3.8877   ZZ=           -176.6766
   XY=             33.5215   XZ=             -7.0487   YZ=            -66.7332

 Normal termination of Gaussian 16 at Mon Jun 27 16:17:36 2022.
