 Gaussian 16, Revision C.01,
 Gaussian 16:  ES64L-G16RevC.01  3-Jul-2019

 ----------------------------------------------------------------------
 # B3LYP/6-31G* empiricaldispersion=gd3bj guess=read geom=check nosymm
 integral(ultrafinegrid)
 ----------------------------------------------------------------------

 ------------------------------------------------------
 Candidate Structure: Conf:549 Charge calc in gas phase
 ------------------------------------------------------
 Structure from the checkpoint file:  "conf-549.chk"
 Charge =  1 Multiplicity = 1

                          Input orientation:
 ---------------------------------------------------------------------
 Center     Atomic      Atomic             Coordinates (Angstroms)
 Number     Number       Type             X           Y           Z
 ---------------------------------------------------------------------
      1          7           0       -1.289759   -1.840535    0.192485
      2          1           0       -1.033827   -1.717074   -0.785986
      3          1           0       -0.449691   -1.624609    0.733559
      4          6           0       -2.300805   -0.837478    0.527099
      5          1           0       -3.217010   -1.089265   -0.026076
      6          6           0       -1.872669    0.553742    0.012594
      7          6           0       -2.579472   -0.967736    2.042631
      8          1           0       -2.597825   -2.042085    2.243527
      9          1           0       -1.736736   -0.549721    2.601119
     10          8           0       -1.279838    0.628705   -1.080227
     11          6           0       -3.851842   -0.307021    2.540445
     12          7           0       -4.853069   -1.136228    2.905632
     13          1           0       -5.711013   -0.735524    3.260987
     14          1           0       -4.757143   -2.140178    2.892416
     15          8           0       -3.975970    0.921975    2.611621
     16          7           0       -2.098789    1.648690    0.761318
     17          1           0       -2.744051    1.579604    1.565147
     18          6           0       -1.638114    2.940633    0.288493
     19          1           0       -2.010365    3.113257   -0.726740
     20          6           0       -0.108834    2.990966    0.194918
     21          6           0       -2.158700    4.084776    1.184067
     22          1           0       -1.939917    3.847644    2.231143
     23          1           0       -1.584261    4.982424    0.929815
     24          8           0        0.444727    3.793884   -0.590068
     25          6           0       -3.635883    4.334729    0.979692
     26          6           0       -4.579581    3.932854    1.928223
     27          1           0       -4.254666    3.435985    2.836173
     28          6           0       -4.078286    4.956358   -0.195628
     29          1           0       -3.349941    5.279713   -0.937524
     30          6           0       -5.940979    4.147019    1.705807
     31          1           0       -6.662688    3.829296    2.452381
     32          6           0       -5.435900    5.171861   -0.419933
     33          1           0       -5.764556    5.662618   -1.331621
     34          6           0       -6.372534    4.766264    0.533829
     35          1           0       -7.431427    4.936620    0.363677
     36          7           0        0.559221    2.188300    1.021754
     37          1           0        0.053006    1.447506    1.509118
     38          6           0        2.013806    2.072995    1.110764
     39          1           0        2.433747    3.084546    1.124360
     40          6           0        2.630524    1.308638   -0.086410
     41          6           0        2.378307    1.344057    2.410275
     42          1           0        1.978065    1.909571    3.259505
     43          1           0        3.464750    1.315005    2.509561
     44          8           0        3.162642    0.213399    0.065148
     45          6           0        1.777398   -0.057105    2.468815
     46          7           0        2.589339   -1.050593    2.880479
     47          1           0        2.219064   -1.992515    2.854227
     48          1           0        3.590687   -0.951080    2.792914
     49          8           0        0.573810   -0.242703    2.232281
     50          7           0        2.547994    1.958463   -1.271063
     51          1           0        2.069908    2.856523   -1.282080
     52          6           0        3.177388    1.458275   -2.477780
     53          1           0        3.523109    0.445825   -2.235678
     54          6           0        4.426729    2.262005   -2.849706
     55          6           0        2.190897    1.417154   -3.649548
     56          1           0        1.781947    2.429226   -3.771792
     57          1           0        2.745488    1.203049   -4.566149
     58          8           0        4.817806    2.424350   -3.982928
     59          6           0        1.059888    0.402508   -3.432801
     60          1           0        1.342185   -0.576085   -3.837596
     61          1           0        0.865129    0.260713   -2.364570
     62          6           0       -0.255692    0.842387   -4.084491
     63          1           0       -0.104739    1.074682   -5.142027
     64          1           0       -1.008159    0.052955   -4.013762
     65          7           0       -0.777775    2.024856   -3.387777
     66          1           0       -0.967933    1.847959   -2.393013
     67          7           0       -0.875857    3.517518   -5.172257
     68          1           0       -0.676273    4.436917   -5.535659
     69          1           0       -1.117485    2.794174   -5.831604
     70          7           0       -0.859988    4.297267   -2.987226
     71          1           0       -1.104866    5.219991   -3.316024
     72          1           0       -0.436820    4.201228   -2.047063
     73          6           0       -0.830866    3.269036   -3.847176
     74          8           0        5.065202    2.747465   -1.764942
     75          1           0        5.867611    3.194570   -2.096340
 ---------------------------------------------------------------------

 SCF Done:  E(RB3LYP) =  -1917.58766354     A.U. after    1 cycles

 Alpha  occ. eigenvalues --  -19.28176 -19.24007 -19.22572 -19.22487 -19.22317
 Alpha  occ. eigenvalues --  -19.21408 -19.21302 -14.50446 -14.48706 -14.48510
 Alpha  occ. eigenvalues --  -14.46698 -14.45449 -14.45444 -14.45366 -14.45156
 Alpha  occ. eigenvalues --  -14.39179 -10.45938 -10.40570 -10.40144 -10.39762
 Alpha  occ. eigenvalues --  -10.38856 -10.38639 -10.38335 -10.34346 -10.33943
 Alpha  occ. eigenvalues --  -10.33732 -10.32954 -10.32026 -10.30184 -10.28872
 Alpha  occ. eigenvalues --  -10.28514 -10.28472 -10.28290 -10.27233 -10.26406
 Alpha  occ. eigenvalues --  -10.26140 -10.25831 -10.25787 -10.25740  -1.19142
 Alpha  occ. eigenvalues --   -1.15451  -1.14326  -1.13929  -1.13831  -1.13024
 Alpha  occ. eigenvalues --   -1.12996  -1.10118  -1.04296  -1.03751  -1.02482
 Alpha  occ. eigenvalues --   -1.02284  -1.01869  -1.00523  -1.00131  -0.97235
 Alpha  occ. eigenvalues --   -0.93029  -0.90355  -0.89307  -0.87692  -0.85498
 Alpha  occ. eigenvalues --   -0.84582  -0.81966  -0.81485  -0.79743  -0.77858
 Alpha  occ. eigenvalues --   -0.76208  -0.75602  -0.73756  -0.72251  -0.71397
 Alpha  occ. eigenvalues --   -0.70874  -0.69660  -0.68715  -0.68414  -0.68185
 Alpha  occ. eigenvalues --   -0.67848  -0.67777  -0.66857  -0.65876  -0.64412
 Alpha  occ. eigenvalues --   -0.63832  -0.63725  -0.63447  -0.62716  -0.61995
 Alpha  occ. eigenvalues --   -0.60660  -0.60068  -0.59530  -0.58921  -0.58515
 Alpha  occ. eigenvalues --   -0.58029  -0.57251  -0.57170  -0.56489  -0.55832
 Alpha  occ. eigenvalues --   -0.55527  -0.55056  -0.54200  -0.53549  -0.53135
 Alpha  occ. eigenvalues --   -0.53080  -0.52895  -0.52588  -0.52244  -0.51867
 Alpha  occ. eigenvalues --   -0.51498  -0.51379  -0.50842  -0.50593  -0.49812
 Alpha  occ. eigenvalues --   -0.49487  -0.49351  -0.48853  -0.48625  -0.48192
 Alpha  occ. eigenvalues --   -0.47895  -0.47512  -0.47401  -0.47244  -0.46574
 Alpha  occ. eigenvalues --   -0.46393  -0.45393  -0.45056  -0.44358  -0.43936
 Alpha  occ. eigenvalues --   -0.43183  -0.42791  -0.41616  -0.41201  -0.41079
 Alpha  occ. eigenvalues --   -0.40288  -0.39370  -0.38794  -0.38166  -0.37680
 Alpha  occ. eigenvalues --   -0.37143  -0.37047  -0.36426  -0.36198  -0.35699
 Alpha  occ. eigenvalues --   -0.35330  -0.34129  -0.33810  -0.32248  -0.31997
 Alpha  occ. eigenvalues --   -0.31594
 Alpha virt. eigenvalues --   -0.10572  -0.10001  -0.08914  -0.08351  -0.07757
 Alpha virt. eigenvalues --   -0.07327  -0.07039  -0.06881  -0.06540  -0.06168
 Alpha virt. eigenvalues --   -0.03038  -0.01389  -0.01146  -0.00441  -0.00280

 Mulliken charges:
               1
     1  N   -0.717362
     2  H    0.311111
     3  H    0.325830
     4  C   -0.060304
     5  H    0.174514
     6  C    0.596333
     7  C   -0.406776
     8  H    0.178624
     9  H    0.213425
    10  O   -0.572467
    11  C    0.610924
    12  N   -0.727875
    13  H    0.360416
    14  H    0.359329
    15  O   -0.531781
    16  N   -0.666077
    17  H    0.419013
    18  C   -0.009862
    19  H    0.167056
    20  C    0.653091
    21  C   -0.401944
    22  H    0.169495
    23  H    0.178391
    24  O   -0.613028
    25  C    0.168987
    26  C   -0.171506
    27  H    0.152258
    28  C   -0.175768
    29  H    0.102859
    30  C   -0.131809
    31  H    0.143339
    32  C   -0.128052
    33  H    0.135818
    34  C   -0.127288
    35  H    0.144742
    36  N   -0.605065
    37  H    0.401610
    38  C   -0.084949
    39  H    0.197040
    40  C    0.651598
    41  C   -0.380786
    42  H    0.197432
    43  H    0.181952
    44  O   -0.526760
    45  C    0.638609
    46  N   -0.715594
    47  H    0.356149
    48  H    0.363489
    49  O   -0.551203
    50  N   -0.620631
    51  H    0.368252
    52  C   -0.076251
    53  H    0.221987
    54  C    0.594608
    55  C   -0.275851
    56  H    0.130539
    57  H    0.190298
    58  O   -0.452039
    59  C   -0.291858
    60  H    0.167492
    61  H    0.190457
    62  C   -0.166298
    63  H    0.154862
    64  H    0.191681
    65  N   -0.616885
    66  H    0.419603
    67  N   -0.755793
    68  H    0.374039
    69  H    0.379204
    70  N   -0.800404
    71  H    0.358070
    72  H    0.427564
    73  C    0.776672
    74  O   -0.560034
    75  H    0.423535
 Sum of Mulliken charges =   1.00000

 Dipole moment (field-independent basis, Debye):
    X=             -3.7481    Y=              9.3034    Z=             -5.3688  Tot=             11.3765
 Quadrupole moment (field-independent basis, Debye-Ang):
   XX=           -167.0766   YY=           -169.6120   ZZ=           -146.0036
   XY=              0.2860   XZ=              9.5339   YZ=            -47.3565

 Normal termination of Gaussian 16 at Mon Jun 27 16:17:35 2022.
