 Gaussian 16, Revision C.01,
 Gaussian 16:  ES64L-G16RevC.01  3-Jul-2019

 ----------------------------------------------------------------------
 # B3LYP/6-31G* empiricaldispersion=gd3bj guess=read geom=check nosymm
 integral(ultrafinegrid)
 ----------------------------------------------------------------------

 ------------------------------------------------------
 Candidate Structure: Conf:123 Charge calc in gas phase
 ------------------------------------------------------
 Structure from the checkpoint file:  "conf-123.chk"
 Charge =  1 Multiplicity = 1

                          Input orientation:
 ---------------------------------------------------------------------
 Center     Atomic      Atomic             Coordinates (Angstroms)
 Number     Number       Type             X           Y           Z
 ---------------------------------------------------------------------
      1          7           0       -5.997045    2.438952    2.433807
      2          1           0       -5.969311    3.167141    1.722572
      3          1           0       -6.497920    1.657755    2.007315
      4          6           0       -4.640372    1.983833    2.718094
      5          1           0       -3.979991    2.855896    2.779621
      6          6           0       -4.110321    1.022103    1.647202
      7          6           0       -4.608273    1.319159    4.104582
      8          1           0       -5.412703    0.579020    4.178681
      9          1           0       -3.658238    0.793545    4.258377
     10          8           0       -4.863002    0.409808    0.887487
     11          6           0       -4.703514    2.405533    5.175645
     12          7           0       -5.586618    2.167953    6.186264
     13          1           0       -5.735604    2.913958    6.853036
     14          1           0       -6.321882    1.484816    6.081516
     15          8           0       -3.980951    3.391581    5.138692
     16          7           0       -2.759779    0.889110    1.599304
     17          1           0       -2.154770    1.500028    2.139235
     18          6           0       -2.086060    0.096183    0.599141
     19          1           0       -2.395248   -0.952524    0.678441
     20          6           0       -0.582474    0.224410    0.849964
     21          6           0       -2.405506    0.559335   -0.865479
     22          1           0       -1.695186    0.078989   -1.547498
     23          1           0       -3.407668    0.198435   -1.098564
     24          8           0       -0.116272    1.156547    1.496875
     25          6           0       -2.358355    2.059703   -1.010448
     26          6           0       -3.547659    2.805736   -1.018778
     27          1           0       -4.494580    2.280446   -0.932035
     28          6           0       -1.139402    2.755026   -1.059533
     29          1           0       -0.206668    2.203187   -1.010903
     30          6           0       -3.519355    4.204313   -1.078208
     31          1           0       -4.451272    4.763126   -1.065760
     32          6           0       -1.108117    4.152361   -1.116173
     33          1           0       -0.152669    4.669537   -1.125521
     34          6           0       -2.299723    4.882473   -1.133004
     35          1           0       -2.276053    5.967249   -1.164284
     36          7           0        0.179923   -0.724426    0.233209
     37          1           0       -0.291554   -1.320384   -0.441495
     38          6           0        1.544660   -0.417858   -0.162970
     39          1           0        1.766822    0.597949    0.173972
     40          6           0        1.563933   -0.467360   -1.706927
     41          6           0        2.573396   -1.364128    0.487584
     42          1           0        2.639585   -2.313469   -0.058985
     43          1           0        2.217221   -1.603939    1.495055
     44          8           0        0.604335   -0.942182   -2.326886
     45          6           0        3.961268   -0.731199    0.574882
     46          7           0        4.842462   -1.369658    1.376559
     47          1           0        5.777290   -0.993768    1.461206
     48          1           0        4.594493   -2.178832    1.925915
     49          8           0        4.260040    0.294216   -0.039411
     50          7           0        2.652982    0.052309   -2.305520
     51          1           0        3.449228    0.309125   -1.711403
     52          6           0        2.814207   -0.023460   -3.744332
     53          1           0        2.207733   -0.863226   -4.101436
     54          6           0        4.273221   -0.323805   -4.058287
     55          6           0        2.335817    1.253959   -4.475862
     56          1           0        3.017422    2.083894   -4.248863
     57          1           0        2.399885    1.067773   -5.553378
     58          8           0        5.150074   -0.437318   -3.235493
     59          6           0        0.908953    1.627579   -4.066411
     60          1           0        0.250841    0.757091   -4.139168
     61          1           0        0.915859    1.923970   -3.012242
     62          6           0        0.329674    2.773059   -4.895688
     63          1           0        1.004453    3.637449   -4.909361
     64          1           0        0.176882    2.446942   -5.928930
     65          7           0       -0.966077    3.178038   -4.331474
     66          1           0       -1.021779    3.216753   -3.313165
     67          7           0       -2.103549    3.576445   -6.325065
     68          1           0       -2.962928    3.512582   -6.850524
     69          1           0       -1.249941    3.727055   -6.839858
     70          7           0       -3.260984    3.448508   -4.327312
     71          1           0       -4.052054    3.934260   -4.725361
     72          1           0       -3.299869    3.257047   -3.327965
     73          6           0       -2.095708    3.404402   -4.991252
     74          8           0        4.467172   -0.440718   -5.389015
     75          1           0        5.415531   -0.632382   -5.520879
 ---------------------------------------------------------------------

 SCF Done:  E(RB3LYP) =  -1917.54271581     A.U. after    1 cycles

 Alpha  occ. eigenvalues --  -19.28720 -19.23074 -19.21498 -19.21099 -19.20693
 Alpha  occ. eigenvalues --  -19.18658 -19.15845 -14.52730 -14.52016 -14.51578
 Alpha  occ. eigenvalues --  -14.44690 -14.44536 -14.44536 -14.43086 -14.40515
 Alpha  occ. eigenvalues --  -14.37308 -10.48623 -10.41171 -10.38360 -10.38251
 Alpha  occ. eigenvalues --  -10.37802 -10.36433 -10.35183 -10.33746 -10.33450
 Alpha  occ. eigenvalues --  -10.32618 -10.32344 -10.30656 -10.30306 -10.30263
 Alpha  occ. eigenvalues --  -10.30187 -10.29963 -10.29946 -10.29881 -10.29598
 Alpha  occ. eigenvalues --  -10.29204 -10.28345 -10.28305 -10.25264  -1.19688
 Alpha  occ. eigenvalues --   -1.17145  -1.13712  -1.12789  -1.12349  -1.10821
 Alpha  occ. eigenvalues --   -1.10419  -1.07791  -1.06485  -1.05177  -1.02122
 Alpha  occ. eigenvalues --   -1.01545  -1.00067  -0.99378  -0.96596  -0.95227
 Alpha  occ. eigenvalues --   -0.94779  -0.91991  -0.89075  -0.87909  -0.86158
 Alpha  occ. eigenvalues --   -0.85588  -0.83534  -0.81276  -0.81152  -0.78494
 Alpha  occ. eigenvalues --   -0.77582  -0.75542  -0.74726  -0.72013  -0.71847
 Alpha  occ. eigenvalues --   -0.71353  -0.70547  -0.70261  -0.68844  -0.68090
 Alpha  occ. eigenvalues --   -0.67496  -0.66335  -0.66035  -0.65213  -0.65005
 Alpha  occ. eigenvalues --   -0.63621  -0.62922  -0.62392  -0.61851  -0.61612
 Alpha  occ. eigenvalues --   -0.60451  -0.59500  -0.58820  -0.58546  -0.58028
 Alpha  occ. eigenvalues --   -0.57306  -0.56971  -0.56774  -0.56501  -0.56105
 Alpha  occ. eigenvalues --   -0.55947  -0.55682  -0.54923  -0.54207  -0.53712
 Alpha  occ. eigenvalues --   -0.53016  -0.52929  -0.52384  -0.52241  -0.51808
 Alpha  occ. eigenvalues --   -0.51459  -0.51249  -0.50482  -0.50239  -0.49963
 Alpha  occ. eigenvalues --   -0.49160  -0.48536  -0.47958  -0.47645  -0.47461
 Alpha  occ. eigenvalues --   -0.47272  -0.46650  -0.46505  -0.46493  -0.45910
 Alpha  occ. eigenvalues --   -0.45593  -0.45339  -0.44713  -0.44494  -0.44348
 Alpha  occ. eigenvalues --   -0.43738  -0.43483  -0.42931  -0.41313  -0.41111
 Alpha  occ. eigenvalues --   -0.40837  -0.40484  -0.36960  -0.36706  -0.35969
 Alpha  occ. eigenvalues --   -0.35784  -0.35568  -0.35378  -0.34942  -0.34842
 Alpha  occ. eigenvalues --   -0.34081  -0.32910  -0.32678  -0.31656  -0.30138
 Alpha  occ. eigenvalues --   -0.29709
 Alpha virt. eigenvalues --   -0.12591  -0.11882  -0.11614  -0.08181  -0.08054
 Alpha virt. eigenvalues --   -0.07567  -0.07234  -0.06330  -0.04915  -0.04721
 Alpha virt. eigenvalues --   -0.02885  -0.02169  -0.01724  -0.01189  -0.00583

 Mulliken charges:
               1
     1  N   -0.699655
     2  H    0.295560
     3  H    0.313407
     4  C   -0.099871
     5  H    0.177685
     6  C    0.600965
     7  C   -0.341086
     8  H    0.148483
     9  H    0.173601
    10  O   -0.548613
    11  C    0.619576
    12  N   -0.740465
    13  H    0.345998
    14  H    0.339989
    15  O   -0.511768
    16  N   -0.624167
    17  H    0.363651
    18  C   -0.009039
    19  H    0.184492
    20  C    0.588709
    21  C   -0.404018
    22  H    0.177398
    23  H    0.199158
    24  O   -0.518009
    25  C    0.175318
    26  C   -0.240845
    27  H    0.181234
    28  C   -0.224997
    29  H    0.167111
    30  C   -0.157547
    31  H    0.159710
    32  C   -0.156665
    33  H    0.162219
    34  C   -0.123587
    35  H    0.162953
    36  N   -0.593956
    37  H    0.352150
    38  C   -0.079371
    39  H    0.212807
    40  C    0.592882
    41  C   -0.385054
    42  H    0.191616
    43  H    0.196656
    44  O   -0.550315
    45  C    0.635773
    46  N   -0.740875
    47  H    0.363880
    48  H    0.354535
    49  O   -0.524631
    50  N   -0.623257
    51  H    0.410350
    52  C   -0.048238
    53  H    0.207945
    54  C    0.581893
    55  C   -0.274518
    56  H    0.159028
    57  H    0.172253
    58  O   -0.441482
    59  C   -0.297087
    60  H    0.193153
    61  H    0.158010
    62  C   -0.155708
    63  H    0.188547
    64  H    0.167645
    65  N   -0.612359
    66  H    0.382162
    67  N   -0.758378
    68  H    0.383740
    69  H    0.386001
    70  N   -0.774405
    71  H    0.372410
    72  H    0.396119
    73  C    0.802589
    74  O   -0.567060
    75  H    0.427665
 Sum of Mulliken charges =   1.00000

 Dipole moment (field-independent basis, Debye):
    X=             -3.8318    Y=              9.0940    Z=            -18.8679  Tot=             21.2928
 Quadrupole moment (field-independent basis, Debye-Ang):
   XX=           -154.5924   YY=           -172.5191   ZZ=            -88.5235
   XY=            -46.2075   XZ=             17.9000   YZ=            -86.0992

 Normal termination of Gaussian 16 at Mon Jun 27 16:17:31 2022.
