 Gaussian 16, Revision C.01,
 Gaussian 16:  ES64L-G16RevC.01  3-Jul-2019

 ----------------------------------------------------------------------
 # B3LYP/6-31G* empiricaldispersion=gd3bj guess=read geom=check nosymm
 integral(ultrafinegrid)
 ----------------------------------------------------------------------

 ------------------------------------------------------
 Candidate Structure: Conf:496 Charge calc in gas phase
 ------------------------------------------------------
 Structure from the checkpoint file:  "conf-496.chk"
 Charge =  1 Multiplicity = 1

                          Input orientation:
 ---------------------------------------------------------------------
 Center     Atomic      Atomic             Coordinates (Angstroms)
 Number     Number       Type             X           Y           Z
 ---------------------------------------------------------------------
      1          7           0       32.840799  -33.227597   45.174344
      2          6           0       33.871169  -33.316941   44.138575
      3          6           0       33.456614  -32.520696   42.901339
      4          8           0       34.047978  -32.712681   41.814365
      5          6           0       35.209932  -32.721940   44.655261
      6          6           0       35.748248  -33.484772   45.839799
      7          6           0       35.578048  -33.008113   47.147414
      8          6           0       36.393647  -34.714801   45.664948
      9          6           0       36.030030  -33.730138   48.247884
     10          6           0       36.853612  -35.448138   46.754559
     11          6           0       36.671026  -34.957804   48.053749
     12          8           0       37.095562  -35.622982   49.162431
     13          1           0       34.064641  -34.341003   43.793414
     14          1           0       35.926410  -32.726466   43.828242
     15          1           0       35.033512  -31.674500   44.928825
     16          1           0       35.097620  -32.045316   47.307581
     17          1           0       36.548452  -35.103908   44.661362
     18          1           0       35.905330  -33.356960   49.258708
     19          1           0       37.360585  -36.397731   46.598010
     20          1           0       37.538559  -36.444739   48.898929
     21          1           0       32.148997  -33.965435   45.059375
     22          1           0       33.264662  -33.364034   46.090902
     23          7           0       32.503303  -31.607624   43.134512
     24          6           0       31.871085  -30.595275   42.275450
     25          6           0       32.865278  -29.677486   41.548749
     26          8           0       32.718818  -28.439921   41.635834
     27          6           0       30.756188  -31.161508   41.348734
     28          6           0       31.228996  -32.182178   40.308290
     29          6           0       29.990661  -30.010890   40.681754
     30          1           0       32.173501  -31.678640   44.102552
     31          1           0       31.376059  -29.916481   42.972905
     32          1           0       30.070626  -31.674724   42.036148
     33          1           0       31.779901  -33.011983   40.755618
     34          1           0       30.360736  -32.595375   39.785185
     35          1           0       31.872285  -31.716234   39.553181
     36          1           0       30.617607  -29.487168   39.949792
     37          1           0       29.641984  -29.272260   41.411082
     38          1           0       29.119041  -30.400280   40.147473
     39          7           0       33.816571  -30.265391   40.810949
     40          6           0       34.978496  -29.582120   40.263854
     41          6           0       36.333478  -30.100811   40.802705
     42          8           0       37.316391  -29.427724   40.601764
     43          6           0       35.003655  -29.617768   38.721188
     44          6           0       33.822510  -28.928425   38.023771
     45          6           0       33.823885  -27.394969   38.080794
     46          7           0       33.514573  -26.915514   39.432668
     47          6           0       34.120436  -25.924752   40.080355
     48          7           0       34.795642  -24.965243   39.425516
     49          7           0       34.063400  -25.901923   41.420993
     50          8           0       36.401771  -31.266604   41.454211
     51          1           0       35.556061  -31.762896   41.538375
     52          1           0       33.820326  -31.291615   40.841471
     53          1           0       34.936486  -28.551985   40.611655
     54          1           0       35.029341  -30.667586   38.404564
     55          1           0       35.949132  -29.169099   38.399563
     56          1           0       32.869689  -29.307621   38.417004
     57          1           0       33.839862  -29.204252   36.963862
     58          1           0       33.085994  -26.996094   37.375530
     59          1           0       34.810757  -27.017315   37.790526
     60          1           0       32.980541  -27.540111   40.047554
     61          1           0       35.446598  -24.365374   39.910813
     62          1           0       34.742926  -24.883684   38.421731
     63          1           0       34.212444  -25.044217   41.932101
     64          1           0       33.615940  -26.686924   41.892039
 ---------------------------------------------------------------------

 SCF Done:  E(RB3LYP) =  -1486.63967570     A.U. after    1 cycles

 Alpha  occ. eigenvalues --  -19.27361 -19.25113 -19.24398 -19.23862 -19.21670
 Alpha  occ. eigenvalues --  -14.52038 -14.50643 -14.50630 -14.47835 -14.47617
 Alpha  occ. eigenvalues --  -14.42293 -10.47633 -10.41821 -10.40797 -10.40229
 Alpha  occ. eigenvalues --  -10.36064 -10.35129 -10.34859 -10.32336 -10.31939
 Alpha  occ. eigenvalues --  -10.31283 -10.30437 -10.30280 -10.28124 -10.27463
 Alpha  occ. eigenvalues --  -10.26908 -10.26650 -10.26446 -10.26437 -10.26065
 Alpha  occ. eigenvalues --  -10.25481  -1.18377  -1.16702  -1.16027  -1.14971
 Alpha  occ. eigenvalues --   -1.12602  -1.10057  -1.05604  -1.05186  -1.04457
 Alpha  occ. eigenvalues --   -1.04307  -0.99220  -0.92599  -0.92399  -0.91174
 Alpha  occ. eigenvalues --   -0.87313  -0.85842  -0.83317  -0.81974  -0.80836
 Alpha  occ. eigenvalues --   -0.79567  -0.78193  -0.77882  -0.74251  -0.73699
 Alpha  occ. eigenvalues --   -0.72437  -0.71602  -0.70292  -0.69944  -0.69440
 Alpha  occ. eigenvalues --   -0.68711  -0.68392  -0.65906  -0.65192  -0.64872
 Alpha  occ. eigenvalues --   -0.64783  -0.63509  -0.61442  -0.61436  -0.60489
 Alpha  occ. eigenvalues --   -0.60087  -0.59292  -0.57863  -0.57245  -0.56762
 Alpha  occ. eigenvalues --   -0.56217  -0.55776  -0.55237  -0.54713  -0.54173
 Alpha  occ. eigenvalues --   -0.53496  -0.52956  -0.52708  -0.52064  -0.51985
 Alpha  occ. eigenvalues --   -0.50969  -0.50568  -0.50501  -0.50273  -0.49340
 Alpha  occ. eigenvalues --   -0.48874  -0.48411  -0.47903  -0.47630  -0.47049
 Alpha  occ. eigenvalues --   -0.46737  -0.46356  -0.45938  -0.45169  -0.44751
 Alpha  occ. eigenvalues --   -0.44138  -0.43875  -0.43514  -0.42836  -0.42664
 Alpha  occ. eigenvalues --   -0.40720  -0.40347  -0.40105  -0.40029  -0.39722
 Alpha  occ. eigenvalues --   -0.39181  -0.37851  -0.36493  -0.35049  -0.34844
 Alpha  occ. eigenvalues --   -0.32419  -0.28839
 Alpha virt. eigenvalues --   -0.11842  -0.11490  -0.09888  -0.07927  -0.07632
 Alpha virt. eigenvalues --   -0.07154  -0.05831  -0.04176  -0.03680  -0.02168
 Alpha virt. eigenvalues --   -0.01807  -0.00496  -0.00136   0.00763   0.01033

 Mulliken charges:
               1
     1  N   -0.771949
     2  C   -0.037446
     3  C    0.618765
     4  O   -0.601475
     5  C   -0.384355
     6  C    0.156166
     7  C   -0.207244
     8  C   -0.185411
     9  C   -0.155259
    10  C   -0.189355
    11  C    0.356152
    12  O   -0.630152
    13  H    0.172227
    14  H    0.187111
    15  H    0.152695
    16  H    0.134008
    17  H    0.139165
    18  H    0.156549
    19  H    0.137481
    20  H    0.416070
    21  H    0.326621
    22  H    0.339795
    23  N   -0.603196
    24  C   -0.053912
    25  C    0.611929
    26  O   -0.590771
    27  C   -0.081839
    28  C   -0.469952
    29  C   -0.457841
    30  H    0.383009
    31  H    0.187055
    32  H    0.155423
    33  H    0.176405
    34  H    0.169091
    35  H    0.141225
    36  H    0.139396
    37  H    0.161483
    38  H    0.172878
    39  N   -0.606645
    40  C   -0.095265
    41  C    0.597101
    42  O   -0.445162
    43  C   -0.270533
    44  C   -0.317249
    45  C   -0.150851
    46  N   -0.610281
    47  C    0.791993
    48  N   -0.758213
    49  N   -0.777234
    50  O   -0.592662
    51  H    0.456147
    52  H    0.395922
    53  H    0.175390
    54  H    0.170445
    55  H    0.187606
    56  H    0.169054
    57  H    0.184946
    58  H    0.191020
    59  H    0.172147
    60  H    0.403683
    61  H    0.383696
    62  H    0.385530
    63  H    0.371054
    64  H    0.417818
 Sum of Mulliken charges =   1.00000

 Dipole moment (field-independent basis, Debye):
    X=            159.5318    Y=           -137.8639    Z=            197.8128  Tot=            289.1138
 Quadrupole moment (field-independent basis, Debye-Ang):
   XX=           5116.6601   YY=           3875.0053   ZZ=           8013.3805
   XY=          -4571.3194   XZ=           6572.1328   YZ=          -5726.8263

 Normal termination of Gaussian 16 at Mon Jun 27 16:17:21 2022.
