 Gaussian 16, Revision C.01,
 Gaussian 16:  ES64L-G16RevC.01  3-Jul-2019

 ----------------------------------------------------------------------
 # B3LYP/6-31G* empiricaldispersion=gd3bj guess=read geom=check nosymm
 integral(ultrafinegrid)
 ----------------------------------------------------------------------

 ------------------------------------------------------
 Candidate Structure: Conf:962 Charge calc in gas phase
 ------------------------------------------------------
 Structure from the checkpoint file:  "conf-962.chk"
 Charge =  1 Multiplicity = 1

                          Input orientation:
 ---------------------------------------------------------------------
 Center     Atomic      Atomic             Coordinates (Angstroms)
 Number     Number       Type             X           Y           Z
 ---------------------------------------------------------------------
      1          7           0       -4.473985    1.760213    2.947464
      2          1           0       -5.223575    1.071232    2.921431
      3          1           0       -4.569626    2.281213    3.815354
      4          6           0       -3.166637    1.119573    2.867620
      5          1           0       -2.412064    1.891733    3.066945
      6          6           0       -2.868171    0.679556    1.435407
      7          6           0       -2.884208   -0.038095    3.839689
      8          1           0       -3.133049    0.288576    4.856629
      9          1           0       -3.509021   -0.906865    3.605252
     10          8           0       -2.142005   -0.288788    1.192743
     11          6           0       -1.404760   -0.396947    3.831120
     12          7           0       -1.099982   -1.716848    3.901878
     13          1           0       -0.126811   -1.977612    3.813357
     14          1           0       -1.787547   -2.411437    3.649803
     15          8           0       -0.542215    0.484475    3.843972
     16          7           0       -3.372939    1.477529    0.462803
     17          1           0       -3.823869    2.330605    0.781635
     18          6           0       -2.694484    1.491350   -0.821556
     19          1           0       -2.802955    0.502247   -1.279641
     20          6           0       -1.198761    1.746557   -0.553409
     21          6           0       -3.323976    2.537072   -1.772426
     22          1           0       -2.692902    2.591269   -2.667055
     23          1           0       -4.296457    2.145240   -2.089626
     24          8           0       -0.817501    2.589358    0.249113
     25          6           0       -3.508284    3.909732   -1.166419
     26          6           0       -4.734603    4.257898   -0.585533
     27          1           0       -5.558437    3.547883   -0.609376
     28          6           0       -2.465193    4.843194   -1.144405
     29          1           0       -1.505567    4.585574   -1.581631
     30          6           0       -4.914452    5.506468    0.011838
     31          1           0       -5.872897    5.759650    0.455469
     32          6           0       -2.643227    6.092179   -0.554140
     33          1           0       -1.824177    6.805432   -0.545683
     34          6           0       -3.867530    6.426894    0.028250
     35          1           0       -4.004432    7.401318    0.487785
     36          7           0       -0.325568    0.956455   -1.242212
     37          1           0       -0.667689    0.153019   -1.751318
     38          6           0        1.049326    0.895502   -0.791720
     39          1           0        1.408907    1.922645   -0.681883
     40          6           0        1.883385    0.197367   -1.865684
     41          6           0        1.167247    0.198128    0.597646
     42          1           0        1.314228   -0.881690    0.465108
     43          1           0        0.221777    0.323731    1.126401
     44          8           0        1.367592   -0.301623   -2.878721
     45          6           0        2.316632    0.738727    1.438676
     46          7           0        2.094394    0.785129    2.760349
     47          1           0        2.829201    1.171906    3.338642
     48          1           0        1.167142    0.645190    3.172956
     49          8           0        3.399081    1.084015    0.932333
     50          7           0        3.211501    0.164304   -1.603528
     51          1           0        3.525817    0.548092   -0.689718
     52          6           0        4.098067   -0.481174   -2.538673
     53          1           0        3.432736   -0.839981   -3.307702
     54          6           0        4.768139   -1.730784   -1.998024
     55          6           0        5.113840    0.490159   -3.172867
     56          1           0        4.517688    1.298051   -3.612162
     57          1           0        5.720185    0.950004   -2.385205
     58          8           0        4.855887   -2.764013   -2.649200
     59          6           0        6.062498   -0.106980   -4.231665
     60          1           0        6.581202    0.731300   -4.709582
     61          1           0        6.844575   -0.702998   -3.747535
     62          6           0        5.443804   -1.010689   -5.326808
     63          1           0        6.079799   -1.002893   -6.216456
     64          1           0        5.392720   -2.042483   -4.986094
     65          7           0        4.090260   -0.603593   -5.731689
     66          1           0        3.988128    0.343775   -6.072358
     67          7           0        2.957243   -2.455420   -4.869445
     68          1           0        2.057000   -2.893133   -4.725657
     69          1           0        3.698098   -2.732095   -4.216790
     70          7           0        1.758576   -0.734604   -5.827662
     71          1           0        1.066852   -0.746270   -5.080252
     72          1           0        1.766036    0.131738   -6.351106
     73          6           0        2.956569   -1.257556   -5.463522
     74          8           0        5.282010   -1.586913   -0.778917
     75          1           0        5.699771   -2.431161   -0.517310
 ---------------------------------------------------------------------

 SCF Done:  E(RB3LYP) =  -1917.55340706     A.U. after    1 cycles

 Alpha  occ. eigenvalues --  -19.32049 -19.27019 -19.22592 -19.19488 -19.19312
 Alpha  occ. eigenvalues --  -19.18825 -19.18480 -14.52851 -14.50645 -14.50481
 Alpha  occ. eigenvalues --  -14.45175 -14.43397 -14.43255 -14.41964 -14.41871
 Alpha  occ. eigenvalues --  -14.39649 -10.47829 -10.44601 -10.39165 -10.36978
 Alpha  occ. eigenvalues --  -10.36709 -10.36120 -10.35493 -10.35191 -10.34588
 Alpha  occ. eigenvalues --  -10.32114 -10.31505 -10.31141 -10.30628 -10.29509
 Alpha  occ. eigenvalues --  -10.27353 -10.26833 -10.26710 -10.25449 -10.24490
 Alpha  occ. eigenvalues --  -10.24330 -10.24297 -10.24227 -10.24162  -1.23276
 Alpha  occ. eigenvalues --   -1.16562  -1.14148  -1.13998  -1.11442  -1.10905
 Alpha  occ. eigenvalues --   -1.10766  -1.09876  -1.06265  -1.03941  -1.02883
 Alpha  occ. eigenvalues --   -1.00147  -0.99476  -0.98133  -0.97192  -0.96390
 Alpha  occ. eigenvalues --   -0.92382  -0.91133  -0.88162  -0.85909  -0.84562
 Alpha  occ. eigenvalues --   -0.83419  -0.81606  -0.79894  -0.79727  -0.78479
 Alpha  occ. eigenvalues --   -0.76763  -0.75103  -0.74145  -0.73431  -0.71970
 Alpha  occ. eigenvalues --   -0.70992  -0.68803  -0.68272  -0.66798  -0.66276
 Alpha  occ. eigenvalues --   -0.65879  -0.65448  -0.64983  -0.64452  -0.64170
 Alpha  occ. eigenvalues --   -0.64010  -0.63634  -0.61335  -0.61132  -0.60578
 Alpha  occ. eigenvalues --   -0.60534  -0.60123  -0.59971  -0.59195  -0.58245
 Alpha  occ. eigenvalues --   -0.57264  -0.56957  -0.56254  -0.56180  -0.55848
 Alpha  occ. eigenvalues --   -0.54971  -0.54492  -0.54088  -0.53494  -0.53277
 Alpha  occ. eigenvalues --   -0.53052  -0.52043  -0.51680  -0.51534  -0.51141
 Alpha  occ. eigenvalues --   -0.50891  -0.50585  -0.50370  -0.49272  -0.48698
 Alpha  occ. eigenvalues --   -0.48376  -0.48169  -0.47952  -0.47325  -0.47260
 Alpha  occ. eigenvalues --   -0.46536  -0.46195  -0.46137  -0.45864  -0.45317
 Alpha  occ. eigenvalues --   -0.45177  -0.44612  -0.44325  -0.44145  -0.43279
 Alpha  occ. eigenvalues --   -0.42875  -0.42758  -0.41652  -0.41232  -0.40976
 Alpha  occ. eigenvalues --   -0.40847  -0.39481  -0.39236  -0.36487  -0.35894
 Alpha  occ. eigenvalues --   -0.34859  -0.34289  -0.34186  -0.33809  -0.33598
 Alpha  occ. eigenvalues --   -0.32872  -0.32797  -0.31892  -0.30825  -0.30331
 Alpha  occ. eigenvalues --   -0.29559
 Alpha virt. eigenvalues --   -0.13291  -0.11997  -0.08055  -0.07859  -0.06475
 Alpha virt. eigenvalues --   -0.05693  -0.05572  -0.05237  -0.04853  -0.04285
 Alpha virt. eigenvalues --   -0.03711  -0.02782  -0.02645  -0.00475   0.00020

 Mulliken charges:
               1
     1  N   -0.732187
     2  H    0.310685
     3  H    0.321245
     4  C   -0.093183
     5  H    0.217301
     6  C    0.640177
     7  C   -0.359008
     8  H    0.179617
     9  H    0.146515
    10  O   -0.563142
    11  C    0.643394
    12  N   -0.732327
    13  H    0.340562
    14  H    0.348547
    15  O   -0.540024
    16  N   -0.593507
    17  H    0.376119
    18  C   -0.031367
    19  H    0.149908
    20  C    0.636391
    21  C   -0.379715
    22  H    0.155538
    23  H    0.167874
    24  O   -0.530632
    25  C    0.154051
    26  C   -0.201362
    27  H    0.132817
    28  C   -0.145648
    29  H    0.125564
    30  C   -0.123283
    31  H    0.139870
    32  C   -0.129469
    33  H    0.137964
    34  C   -0.128453
    35  H    0.140754
    36  N   -0.610183
    37  H    0.333547
    38  C   -0.041139
    39  H    0.212071
    40  C    0.597063
    41  C   -0.409886
    42  H    0.165108
    43  H    0.235431
    44  O   -0.594101
    45  C    0.629246
    46  N   -0.777863
    47  H    0.344452
    48  H    0.413879
    49  O   -0.561004
    50  N   -0.627157
    51  H    0.412043
    52  C   -0.064024
    53  H    0.172449
    54  C    0.620072
    55  C   -0.273872
    56  H    0.155198
    57  H    0.192810
    58  O   -0.495280
    59  C   -0.306965
    60  H    0.176960
    61  H    0.183763
    62  C   -0.178033
    63  H    0.202969
    64  H    0.204546
    65  N   -0.564087
    66  H    0.358739
    67  N   -0.733275
    68  H    0.379962
    69  H    0.414696
    70  N   -0.738868
    71  H    0.400195
    72  H    0.359823
    73  C    0.723099
    74  O   -0.528684
    75  H    0.434718
 Sum of Mulliken charges =   1.00000

 Dipole moment (field-independent basis, Debye):
    X=              8.8566    Y=             -4.1089    Z=            -13.0734  Tot=             16.3167
 Quadrupole moment (field-independent basis, Debye-Ang):
   XX=           -124.4390   YY=           -202.3579   ZZ=           -106.8196
   XY=            -18.9889   XZ=            -77.3046   YZ=             -0.6550

 Normal termination of Gaussian 16 at Mon Jun 27 16:17:30 2022.
