 Gaussian 16, Revision C.01,
 Gaussian 16:  ES64L-G16RevC.01  3-Jul-2019

 ----------------------------------------------------------------------
 # B3LYP/6-31G* empiricaldispersion=gd3bj guess=read geom=check nosymm
 integral(ultrafinegrid)
 ----------------------------------------------------------------------

 ------------------------------------------------------
 Candidate Structure: Conf:879 Charge calc in gas phase
 ------------------------------------------------------
 Structure from the checkpoint file:  "conf-879.chk"
 Charge =  1 Multiplicity = 1

                          Input orientation:
 ---------------------------------------------------------------------
 Center     Atomic      Atomic             Coordinates (Angstroms)
 Number     Number       Type             X           Y           Z
 ---------------------------------------------------------------------
      1          7           0       -3.721861   -2.054496    1.461480
      2          1           0       -4.097040   -2.365922    2.356576
      3          1           0       -4.516697   -1.745564    0.904206
      4          6           0       -2.778395   -0.941052    1.683003
      5          1           0       -3.145638   -0.243877    2.449829
      6          6           0       -2.582686   -0.163113    0.373112
      7          6           0       -1.412505   -1.463150    2.180837
      8          1           0       -0.740060   -0.618604    2.348902
      9          1           0       -1.559740   -1.955597    3.150694
     10          8           0       -1.975767   -0.651764   -0.588063
     11          6           0       -0.689911   -2.451173    1.274835
     12          7           0       -1.423330   -3.470319    0.803321
     13          1           0       -0.990155   -4.182703    0.230267
     14          1           0       -2.444645   -3.379834    0.860314
     15          8           0        0.532949   -2.338713    1.053507
     16          7           0       -3.103229    1.077179    0.372811
     17          1           0       -3.600570    1.403173    1.191575
     18          6           0       -2.962833    2.032001   -0.733387
     19          1           0       -3.165750    1.491651   -1.662763
     20          6           0       -1.503345    2.532398   -0.683188
     21          6           0       -3.954163    3.192035   -0.547414
     22          1           0       -3.568688    3.833381    0.251544
     23          1           0       -3.941466    3.787355   -1.466918
     24          8           0       -1.133527    3.318217    0.179956
     25          6           0       -5.348468    2.709396   -0.224949
     26          6           0       -5.853726    2.828286    1.075554
     27          1           0       -5.265947    3.344636    1.832171
     28          6           0       -6.133920    2.076556   -1.197014
     29          1           0       -5.759641    1.985992   -2.214245
     30          6           0       -7.114709    2.323016    1.401535
     31          1           0       -7.497142    2.435252    2.411939
     32          6           0       -7.393012    1.572968   -0.876014
     33          1           0       -7.995073    1.094632   -1.643134
     34          6           0       -7.885622    1.691590    0.426339
     35          1           0       -8.869767    1.305199    0.673861
     36          7           0       -0.679570    1.955984   -1.595630
     37          1           0       -1.044941    1.177631   -2.133711
     38          6           0        0.751189    1.855710   -1.369878
     39          1           0        1.216676    2.843076   -1.336373
     40          6           0        1.323106    0.991948   -2.491973
     41          6           0        1.003827    1.113185   -0.023959
     42          1           0        0.438161    0.177457   -0.037534
     43          1           0        0.585436    1.751039    0.762267
     44          8           0        0.585275    0.223356   -3.127398
     45          6           0        2.465287    0.858548    0.306453
     46          7           0        2.704339   -0.319537    0.930676
     47          1           0        3.644273   -0.495074    1.261011
     48          1           0        1.958357   -0.961786    1.186754
     49          8           0        3.357994    1.656123    0.012430
     50          7           0        2.665815    1.010488   -2.635427
     51          1           0        3.171091    1.604026   -1.977034
     52          6           0        3.340104   -0.241252   -2.990710
     53          1           0        2.885782   -1.032049   -2.389002
     54          6           0        4.798954   -0.235635   -2.575189
     55          6           0        3.200909   -0.616320   -4.480973
     56          1           0        2.162698   -0.414754   -4.749793
     57          1           0        3.820148    0.052749   -5.087414
     58          8           0        5.401272   -1.254787   -2.312346
     59          6           0        3.559140   -2.081197   -4.788818
     60          1           0        3.228448   -2.310867   -5.808785
     61          1           0        4.643783   -2.226519   -4.773472
     62          6           0        2.974195   -3.112322   -3.809151
     63          1           0        3.125255   -4.124016   -4.200852
     64          1           0        3.507729   -3.037293   -2.858072
     65          7           0        1.543960   -2.882810   -3.556810
     66          1           0        0.999946   -2.488048   -4.313573
     67          7           0        1.478573   -3.503641   -1.305884
     68          1           0        1.221451   -3.191128   -0.356652
     69          1           0        2.291060   -4.090514   -1.425612
     70          7           0       -0.241038   -2.248655   -2.240787
     71          1           0       -0.724289   -2.229472   -1.348526
     72          1           0       -0.321163   -1.365284   -2.743778
     73          6           0        0.943030   -2.872742   -2.357840
     74          8           0        5.344706    0.989119   -2.582203
     75          1           0        6.273091    0.904527   -2.291029
 ---------------------------------------------------------------------

 SCF Done:  E(RB3LYP) =  -1917.57998789     A.U. after    2 cycles

 Alpha  occ. eigenvalues --  -19.29748 -19.25092 -19.23990 -19.23968 -19.23873
 Alpha  occ. eigenvalues --  -19.20784 -19.20362 -14.49962 -14.48876 -14.48210
 Alpha  occ. eigenvalues --  -14.47208 -14.46869 -14.46102 -14.45564 -14.45027
 Alpha  occ. eigenvalues --  -14.44334 -10.45345 -10.42276 -10.42009 -10.40893
 Alpha  occ. eigenvalues --  -10.40152 -10.38284 -10.37860 -10.35775 -10.34430
 Alpha  occ. eigenvalues --  -10.34429 -10.33728 -10.33698 -10.31883 -10.29809
 Alpha  occ. eigenvalues --  -10.29321 -10.29107 -10.28258 -10.28109 -10.27157
 Alpha  occ. eigenvalues --  -10.27048 -10.27042 -10.26991 -10.26795  -1.20756
 Alpha  occ. eigenvalues --   -1.16201  -1.15602  -1.15443  -1.13984  -1.12766
 Alpha  occ. eigenvalues --   -1.12174  -1.11723  -1.04494  -1.03833  -1.03430
 Alpha  occ. eigenvalues --   -1.03274  -1.02163  -1.01565  -1.01199  -0.99255
 Alpha  occ. eigenvalues --   -0.93882  -0.91392  -0.89594  -0.88368  -0.87482
 Alpha  occ. eigenvalues --   -0.85330  -0.82901  -0.82481  -0.80239  -0.78578
 Alpha  occ. eigenvalues --   -0.78066  -0.76123  -0.74024  -0.73267  -0.71524
 Alpha  occ. eigenvalues --   -0.70918  -0.70116  -0.69906  -0.68760  -0.68724
 Alpha  occ. eigenvalues --   -0.68117  -0.66697  -0.66645  -0.66350  -0.65910
 Alpha  occ. eigenvalues --   -0.65026  -0.64650  -0.63377  -0.62649  -0.62149
 Alpha  occ. eigenvalues --   -0.61610  -0.60244  -0.59813  -0.59544  -0.59303
 Alpha  occ. eigenvalues --   -0.58802  -0.58519  -0.58426  -0.57839  -0.57553
 Alpha  occ. eigenvalues --   -0.56949  -0.56268  -0.55526  -0.55252  -0.54161
 Alpha  occ. eigenvalues --   -0.53808  -0.53746  -0.53466  -0.53171  -0.53007
 Alpha  occ. eigenvalues --   -0.52236  -0.51972  -0.51557  -0.51276  -0.50870
 Alpha  occ. eigenvalues --   -0.50646  -0.50110  -0.50056  -0.49696  -0.49367
 Alpha  occ. eigenvalues --   -0.49304  -0.48852  -0.48405  -0.47755  -0.47565
 Alpha  occ. eigenvalues --   -0.46425  -0.45926  -0.45465  -0.45175  -0.44970
 Alpha  occ. eigenvalues --   -0.44907  -0.43650  -0.42039  -0.41954  -0.41692
 Alpha  occ. eigenvalues --   -0.40567  -0.39759  -0.39360  -0.39092  -0.38846
 Alpha  occ. eigenvalues --   -0.38217  -0.37888  -0.37515  -0.36936  -0.36794
 Alpha  occ. eigenvalues --   -0.35575  -0.35230  -0.34042  -0.33730  -0.33203
 Alpha  occ. eigenvalues --   -0.32517
 Alpha virt. eigenvalues --   -0.11497  -0.11080  -0.10111  -0.09450  -0.08818
 Alpha virt. eigenvalues --   -0.08627  -0.08349  -0.07433  -0.06436  -0.04798
 Alpha virt. eigenvalues --   -0.03968  -0.02625  -0.01653  -0.01296  -0.00559

 Mulliken charges:
               1
     1  N   -0.750507
     2  H    0.336585
     3  H    0.341834
     4  C   -0.077353
     5  H    0.157983
     6  C    0.641296
     7  C   -0.367604
     8  H    0.191706
     9  H    0.197998
    10  O   -0.565465
    11  C    0.621486
    12  N   -0.733086
    13  H    0.345952
    14  H    0.405034
    15  O   -0.569591
    16  N   -0.590837
    17  H    0.354780
    18  C   -0.044697
    19  H    0.170701
    20  C    0.628429
    21  C   -0.408553
    22  H    0.195233
    23  H    0.183874
    24  O   -0.516379
    25  C    0.167220
    26  C   -0.218785
    27  H    0.139853
    28  C   -0.179823
    29  H    0.133481
    30  C   -0.128965
    31  H    0.148033
    32  C   -0.130530
    33  H    0.148181
    34  C   -0.132175
    35  H    0.149456
    36  N   -0.601546
    37  H    0.355509
    38  C   -0.037457
    39  H    0.213734
    40  C    0.612922
    41  C   -0.415560
    42  H    0.166886
    43  H    0.226622
    44  O   -0.580330
    45  C    0.596600
    46  N   -0.781424
    47  H    0.348773
    48  H    0.391128
    49  O   -0.536137
    50  N   -0.612158
    51  H    0.400702
    52  C   -0.026200
    53  H    0.165893
    54  C    0.585599
    55  C   -0.290096
    56  H    0.183960
    57  H    0.181283
    58  O   -0.465706
    59  C   -0.305579
    60  H    0.168069
    61  H    0.191623
    62  C   -0.176896
    63  H    0.188128
    64  H    0.188399
    65  N   -0.572831
    66  H    0.365270
    67  N   -0.790641
    68  H    0.410059
    69  H    0.369008
    70  N   -0.790907
    71  H    0.398840
    72  H    0.401705
    73  C    0.742625
    74  O   -0.548301
    75  H    0.433665
 Sum of Mulliken charges =   1.00000

 Dipole moment (field-independent basis, Debye):
    X=             -3.9034    Y=             -9.5082    Z=             -4.0328  Tot=             11.0411
 Quadrupole moment (field-independent basis, Debye-Ang):
   XX=           -145.2832   YY=           -199.4439   ZZ=           -176.4523
   XY=             -9.3955   XZ=            -34.7775   YZ=              8.8492

 Normal termination of Gaussian 16 at Mon Jun 27 16:17:56 2022.
