 Gaussian 16, Revision C.01,
 Gaussian 16:  ES64L-G16RevC.01  3-Jul-2019

 ----------------------------------------------------------------------
 # B3LYP/6-31G* empiricaldispersion=gd3bj guess=read geom=check nosymm
 integral(ultrafinegrid)
 ----------------------------------------------------------------------

 ------------------------------------------------------
 Candidate Structure: Conf:472 Charge calc in gas phase
 ------------------------------------------------------
 Structure from the checkpoint file:  "conf-472.chk"
 Charge =  1 Multiplicity = 1

                          Input orientation:
 ---------------------------------------------------------------------
 Center     Atomic      Atomic             Coordinates (Angstroms)
 Number     Number       Type             X           Y           Z
 ---------------------------------------------------------------------
      1          7           0       -5.303101   -0.469393    3.117387
      2          1           0       -5.606636   -0.902115    2.250446
      3          1           0       -4.927934   -1.156406    3.760112
      4          6           0       -4.430324    0.665337    2.874470
      5          1           0       -4.996119    1.595777    3.042261
      6          6           0       -3.991896    0.710511    1.396861
      7          6           0       -3.210563    0.698019    3.829469
      8          1           0       -2.889319    1.723335    4.027005
      9          1           0       -3.520258    0.287474    4.798037
     10          8           0       -4.496465   -0.048978    0.557260
     11          6           0       -1.978165   -0.038438    3.306783
     12          7           0       -2.196506   -1.280142    2.792508
     13          1           0       -1.436327   -1.740906    2.299266
     14          1           0       -3.135382   -1.645338    2.714378
     15          8           0       -0.870730    0.489395    3.326858
     16          7           0       -3.045590    1.619567    1.074262
     17          1           0       -2.651490    2.208584    1.796555
     18          6           0       -2.545805    1.763715   -0.288160
     19          1           0       -2.778343    0.821174   -0.783978
     20          6           0       -1.014437    1.906394   -0.264176
     21          6           0       -3.229126    2.898109   -1.069825
     22          1           0       -4.265215    2.957067   -0.722964
     23          1           0       -2.735443    3.844363   -0.836618
     24          8           0       -0.447917    2.940504   -0.616365
     25          6           0       -3.210695    2.628011   -2.556642
     26          6           0       -4.175743    1.772407   -3.112435
     27          1           0       -4.941706    1.346164   -2.466097
     28          6           0       -2.249939    3.199116   -3.396877
     29          1           0       -1.488578    3.847225   -2.973479
     30          6           0       -4.192918    1.508414   -4.483626
     31          1           0       -4.966018    0.871416   -4.904942
     32          6           0       -2.272662    2.945640   -4.771399
     33          1           0       -1.536852    3.418713   -5.415408
     34          6           0       -3.240277    2.101892   -5.319123
     35          1           0       -3.265848    1.920734   -6.389563
     36          7           0       -0.353307    0.804418    0.157074
     37          1           0       -0.847060   -0.035598    0.438775
     38          6           0        1.100606    0.780890    0.328204
     39          1           0        1.405165    1.775081    0.669543
     40          6           0        1.754478    0.472922   -1.034881
     41          6           0        1.510562   -0.258182    1.376770
     42          1           0        0.995808   -0.013285    2.313740
     43          1           0        2.588973   -0.188895    1.536174
     44          8           0        2.238145   -0.635816   -1.269349
     45          6           0        1.108434   -1.675875    1.025698
     46          7           0        2.047906   -2.625754    1.126119
     47          1           0        1.805936   -3.582157    0.901715
     48          1           0        3.028002   -2.382924    1.146069
     49          8           0       -0.083651   -1.965925    0.759032
     50          7           0        1.661752    1.474020   -1.938143
     51          1           0        1.192716    2.339117   -1.670372
     52          6           0        1.921458    1.260068   -3.350043
     53          1           0        2.712277    0.513341   -3.443790
     54          6           0        2.363285    2.581670   -3.956324
     55          6           0        0.650494    0.784502   -4.110494
     56          1           0       -0.057920    1.618096   -4.160672
     57          1           0        0.933925    0.527576   -5.137261
     58          8           0        2.058846    3.665564   -3.512951
     59          6           0       -0.013275   -0.390696   -3.394352
     60          1           0        0.695315   -1.223274   -3.355243
     61          1           0       -0.195227   -0.089377   -2.362168
     62          6           0       -1.371287   -0.813897   -3.981109
     63          1           0       -1.824771    0.011308   -4.532261
     64          1           0       -1.277949   -1.654577   -4.678381
     65          7           0       -2.357014   -1.148930   -2.932631
     66          1           0       -3.239704   -0.651321   -2.973813
     67          7           0       -1.049914   -2.721320   -1.785429
     68          1           0       -0.604440   -2.779105   -0.863438
     69          1           0       -0.413336   -2.738845   -2.567938
     70          7           0       -2.969889   -1.906252   -0.823838
     71          1           0       -2.795256   -2.564300   -0.078323
     72          1           0       -3.619265   -1.144871   -0.601645
     73          6           0       -2.120101   -1.906369   -1.858750
     74          8           0        3.067912    2.393852   -5.086994
     75          1           0        3.274452    3.277404   -5.448929
 ---------------------------------------------------------------------

 SCF Done:  E(RB3LYP) =  -1917.57871993     A.U. after    1 cycles

 Alpha  occ. eigenvalues --  -19.29047 -19.25080 -19.24835 -19.23364 -19.23304
 Alpha  occ. eigenvalues --  -19.21997 -19.21805 -14.50841 -14.49385 -14.49074
 Alpha  occ. eigenvalues --  -14.48768 -14.48043 -14.47312 -14.45701 -14.45494
 Alpha  occ. eigenvalues --  -14.41665 -10.46341 -10.42216 -10.41454 -10.41222
 Alpha  occ. eigenvalues --  -10.40200 -10.39484 -10.38885 -10.35007 -10.34918
 Alpha  occ. eigenvalues --  -10.34620 -10.34048 -10.33633 -10.30446 -10.30362
 Alpha  occ. eigenvalues --  -10.30086 -10.29706 -10.29659 -10.29191 -10.29038
 Alpha  occ. eigenvalues --  -10.29033 -10.28765 -10.28698 -10.28363  -1.20003
 Alpha  occ. eigenvalues --   -1.16505  -1.16108  -1.15192  -1.14975  -1.13654
 Alpha  occ. eigenvalues --   -1.13532  -1.11123  -1.05404  -1.04650  -1.03820
 Alpha  occ. eigenvalues --   -1.03039  -1.02552  -1.02478  -1.01136  -0.98979
 Alpha  occ. eigenvalues --   -0.95640  -0.91446  -0.90547  -0.88937  -0.86685
 Alpha  occ. eigenvalues --   -0.86420  -0.84297  -0.83834  -0.80996  -0.79309
 Alpha  occ. eigenvalues --   -0.77991  -0.76202  -0.75104  -0.73286  -0.72422
 Alpha  occ. eigenvalues --   -0.71455  -0.70983  -0.70385  -0.70158  -0.69728
 Alpha  occ. eigenvalues --   -0.69129  -0.68353  -0.67984  -0.67662  -0.66008
 Alpha  occ. eigenvalues --   -0.65678  -0.64541  -0.64110  -0.63432  -0.62416
 Alpha  occ. eigenvalues --   -0.61552  -0.61027  -0.60862  -0.60246  -0.59520
 Alpha  occ. eigenvalues --   -0.58954  -0.58848  -0.58160  -0.57920  -0.57336
 Alpha  occ. eigenvalues --   -0.56473  -0.56034  -0.56024  -0.55729  -0.55307
 Alpha  occ. eigenvalues --   -0.54930  -0.54838  -0.54464  -0.54260  -0.53354
 Alpha  occ. eigenvalues --   -0.52545  -0.52383  -0.52268  -0.51817  -0.51503
 Alpha  occ. eigenvalues --   -0.51162  -0.50950  -0.50510  -0.50143  -0.49266
 Alpha  occ. eigenvalues --   -0.48867  -0.48251  -0.48219  -0.48156  -0.47808
 Alpha  occ. eigenvalues --   -0.47211  -0.46951  -0.46905  -0.46530  -0.46018
 Alpha  occ. eigenvalues --   -0.45472  -0.44449  -0.43981  -0.43425  -0.41426
 Alpha  occ. eigenvalues --   -0.41059  -0.40111  -0.39693  -0.39211  -0.39177
 Alpha  occ. eigenvalues --   -0.38732  -0.38357  -0.37182  -0.37066  -0.36774
 Alpha  occ. eigenvalues --   -0.35569  -0.35448  -0.35041  -0.34499  -0.34198
 Alpha  occ. eigenvalues --   -0.33300
 Alpha virt. eigenvalues --   -0.11610  -0.11223  -0.10920  -0.10205  -0.10160
 Alpha virt. eigenvalues --   -0.09318  -0.08488  -0.07992  -0.07762  -0.05929
 Alpha virt. eigenvalues --   -0.04188  -0.03544  -0.02860  -0.02113  -0.01121

 Mulliken charges:
               1
     1  N   -0.737054
     2  H    0.334830
     3  H    0.316197
     4  C   -0.031320
     5  H    0.195885
     6  C    0.595292
     7  C   -0.416517
     8  H    0.188055
     9  H    0.207686
    10  O   -0.572484
    11  C    0.581258
    12  N   -0.764327
    13  H    0.375463
    14  H    0.316749
    15  O   -0.510539
    16  N   -0.586427
    17  H    0.362909
    18  C   -0.049988
    19  H    0.147375
    20  C    0.618115
    21  C   -0.347365
    22  H    0.171529
    23  H    0.192046
    24  O   -0.523099
    25  C    0.152534
    26  C   -0.225266
    27  H    0.149593
    28  C   -0.186605
    29  H    0.179463
    30  C   -0.149639
    31  H    0.154794
    32  C   -0.136899
    33  H    0.157527
    34  C   -0.140430
    35  H    0.156066
    36  N   -0.609699
    37  H    0.369960
    38  C   -0.068962
    39  H    0.205128
    40  C    0.632196
    41  C   -0.401463
    42  H    0.252371
    43  H    0.173542
    44  O   -0.550609
    45  C    0.655254
    46  N   -0.706938
    47  H    0.354917
    48  H    0.372633
    49  O   -0.612506
    50  N   -0.618567
    51  H    0.391344
    52  C   -0.041848
    53  H    0.203794
    54  C    0.587412
    55  C   -0.299376
    56  H    0.172110
    57  H    0.174446
    58  O   -0.451904
    59  C   -0.310148
    60  H    0.165040
    61  H    0.171800
    62  C   -0.171787
    63  H    0.203155
    64  H    0.185107
    65  N   -0.597483
    66  H    0.366407
    67  N   -0.758673
    68  H    0.397381
    69  H    0.366939
    70  N   -0.795219
    71  H    0.364266
    72  H    0.423613
    73  C    0.764845
    74  O   -0.560955
    75  H    0.427071
 Sum of Mulliken charges =   1.00000

 Dipole moment (field-independent basis, Debye):
    X=             -5.5276    Y=             -4.4870    Z=             -5.6012  Tot=              9.0587
 Quadrupole moment (field-independent basis, Debye-Ang):
   XX=           -186.8229   YY=           -201.1846   ZZ=           -163.4076
   XY=             -1.8964   XZ=             -0.7740   YZ=             -9.1272

 Normal termination of Gaussian 16 at Mon Jun 27 16:17:43 2022.
