 Gaussian 16, Revision C.01,
 Gaussian 16:  ES64L-G16RevC.01  3-Jul-2019

 -------------------------------------------------------------------
 # B3LYP/6-31G* guess=read geom=check nosymm integral(ultrafinegrid)
 -------------------------------------------------------------------

 ------------------------------------------------------
 Candidate Structure: Conf:684 Charge calc in gas phase
 ------------------------------------------------------
 Structure from the checkpoint file:  "conf-684.chk"
 Charge =  1 Multiplicity = 1

                          Input orientation:
 ---------------------------------------------------------------------
 Center     Atomic      Atomic             Coordinates (Angstroms)
 Number     Number       Type             X           Y           Z
 ---------------------------------------------------------------------
      1          7           0       -0.761992   -0.290377   -3.646557
      2          1           0        0.534610    0.117055   -2.604286
      3          1           0       -0.646797    0.199637   -4.533621
      4          1           0       -0.931532   -1.274296   -3.866313
      5          6           0       -1.957417    0.225481   -2.938235
      6          1           0       -1.651609    1.106657   -2.369641
      7          6           0       -2.454183   -0.905690   -2.018802
      8          6           0       -3.101734    0.613951   -3.915644
      9          1           0       -2.694356    1.352480   -4.618731
     10          1           0       -3.363146   -0.280319   -4.492161
     11          8           0       -2.582143   -2.034572   -2.492735
     12          6           0       -4.330573    1.178805   -3.234045
     13          6           0       -4.390784    2.532920   -2.873238
     14          1           0       -3.562085    3.192962   -3.122217
     15          6           0       -5.421030    0.353346   -2.925487
     16          1           0       -5.393115   -0.695931   -3.210297
     17          6           0       -5.507701    3.048141   -2.212989
     18          1           0       -5.539667    4.101315   -1.947879
     19          6           0       -6.541094    0.866467   -2.268217
     20          1           0       -7.383282    0.215360   -2.049456
     21          6           0       -6.586113    2.214811   -1.907227
     22          1           0       -7.460742    2.616984   -1.403653
     23          7           0       -2.777652   -0.647115   -0.715995
     24          6           0       -2.705864    0.636217    0.006462
     25          1           0       -2.983325    1.474662   -0.634327
     26          6           0       -1.300519    0.976373    0.549516
     27          6           0       -3.743423    0.456503    1.137613
     28          1           0       -3.518816    1.092419    1.997488
     29          1           0       -4.730105    0.736732    0.754282
     30          8           0       -1.019762    2.119608    0.866195
     31          6           0       -3.690910   -1.049732    1.438096
     32          1           0       -2.834652   -1.276428    2.084943
     33          1           0       -4.591669   -1.416273    1.937675
     34          6           0       -3.500846   -1.685577    0.054565
     35          1           0       -4.456460   -1.894708   -0.440052
     36          1           0       -2.932643   -2.619670    0.067718
     37          7           0       -0.422682   -0.085035    0.671168
     38          1           0       -0.750993   -0.929344    0.214839
     39          6           0        1.023570    0.153681    0.562874
     40          1           0        1.151782    1.234820    0.666329
     41          6           0        1.399562   -0.256846   -0.874290
     42          6           0        1.849335   -0.559740    1.642320
     43          1           0        1.654491   -0.049586    2.594929
     44          1           0        2.908143   -0.401180    1.396558
     45          8           0        2.027508   -1.262920   -1.151828
     46          6           0        1.575959   -2.067522    1.771560
     47          1           0        0.582476   -2.236125    2.206469
     48          1           0        1.581140   -2.512294    0.773483
     49          6           0        2.635588   -2.821461    2.597693
     50          1           0        3.614748   -2.700887    2.113020
     51          1           0        2.398750   -3.894561    2.594830
     52          6           0        2.717008   -2.327937    4.036745
     53          1           0        3.012827   -1.279848    4.111313
     54          1           0        1.783713   -2.475279    4.586177
     55          7           0        3.784770   -3.114153    4.807527
     56          1           0        3.866892   -2.808297    5.784923
     57          1           0        4.706528   -3.004431    4.366501
     58          1           0        3.570059   -4.119067    4.810020
     59          8           0        0.842481    0.576830   -1.743942
 ---------------------------------------------------------------------

 SCF Done:  E(RB3LYP) =  -1300.51173754     A.U. after    1 cycles

 Alpha  occ. eigenvalues --  -19.23837 -19.20972 -19.19612 -19.19312 -14.65646
 Alpha  occ. eigenvalues --  -14.44655 -14.44258 -14.41877 -10.42405 -10.38860
 Alpha  occ. eigenvalues --  -10.36541 -10.36416 -10.34839 -10.31924 -10.31212
 Alpha  occ. eigenvalues --  -10.30694 -10.30609 -10.29758 -10.29542 -10.27070
 Alpha  occ. eigenvalues --  -10.27043 -10.26529 -10.26222 -10.25239 -10.25206
 Alpha  occ. eigenvalues --  -10.25173 -10.25116 -10.25045  -1.19491  -1.15991
 Alpha  occ. eigenvalues --   -1.11726  -1.11213  -1.07666  -1.02531  -1.00402
 Alpha  occ. eigenvalues --   -0.97945  -0.95867  -0.91798  -0.88761  -0.87447
 Alpha  occ. eigenvalues --   -0.84765  -0.84216  -0.82409  -0.80542  -0.79117
 Alpha  occ. eigenvalues --   -0.78545  -0.78081  -0.75985  -0.73994  -0.71275
 Alpha  occ. eigenvalues --   -0.70686  -0.68343  -0.67613  -0.66748  -0.66642
 Alpha  occ. eigenvalues --   -0.65716  -0.64836  -0.63843  -0.62620  -0.61320
 Alpha  occ. eigenvalues --   -0.60339  -0.58490  -0.57417  -0.56966  -0.55676
 Alpha  occ. eigenvalues --   -0.55327  -0.54926  -0.53899  -0.53461  -0.52926
 Alpha  occ. eigenvalues --   -0.52530  -0.52129  -0.52048  -0.51613  -0.50835
 Alpha  occ. eigenvalues --   -0.50321  -0.50022  -0.49812  -0.48518  -0.48071
 Alpha  occ. eigenvalues --   -0.47832  -0.47553  -0.46709  -0.46090  -0.45833
 Alpha  occ. eigenvalues --   -0.45573  -0.44813  -0.43907  -0.43713  -0.43132
 Alpha  occ. eigenvalues --   -0.42903  -0.42171  -0.41753  -0.41328  -0.40541
 Alpha  occ. eigenvalues --   -0.40062  -0.37920  -0.36031  -0.35091  -0.34791
 Alpha  occ. eigenvalues --   -0.33125  -0.32594  -0.31505  -0.30995  -0.30497
 Alpha virt. eigenvalues --   -0.15994  -0.09347  -0.09268  -0.08494  -0.07187
 Alpha virt. eigenvalues --   -0.06958  -0.06675  -0.06150  -0.04338  -0.03202
 Alpha virt. eigenvalues --   -0.02233  -0.01213  -0.00108   0.01068   0.02352

 Mulliken charges:
               1
     1  N   -0.786292
     2  H    0.456855
     3  H    0.332510
     4  H    0.350202
     5  C   -0.039257
     6  H    0.168230
     7  C    0.597911
     8  C   -0.371432
     9  H    0.155794
    10  H    0.174370
    11  O   -0.529122
    12  C    0.156544
    13  C   -0.193707
    14  H    0.135907
    15  C   -0.187969
    16  H    0.146927
    17  C   -0.127328
    18  H    0.146288
    19  C   -0.134710
    20  H    0.142079
    21  C   -0.132652
    22  H    0.144030
    23  N   -0.487936
    24  C   -0.062943
    25  H    0.201018
    26  C    0.609272
    27  C   -0.299890
    28  H    0.177271
    29  H    0.179592
    30  O   -0.496066
    31  C   -0.311455
    32  H    0.141883
    33  H    0.168324
    34  C   -0.114517
    35  H    0.177465
    36  H    0.166500
    37  N   -0.615722
    38  H    0.343423
    39  C   -0.046982
    40  H    0.210440
    41  C    0.569833
    42  C   -0.273406
    43  H    0.141577
    44  H    0.151806
    45  O   -0.474522
    46  C   -0.285711
    47  H    0.153307
    48  H    0.211572
    49  C   -0.299970
    50  H    0.176136
    51  H    0.167422
    52  C   -0.204475
    53  H    0.233825
    54  H    0.227247
    55  N   -0.731523
    56  H    0.431935
    57  H    0.428735
    58  H    0.427321
    59  O   -0.595964
 Sum of Mulliken charges =   1.00000

 Dipole moment (field-independent basis, Debye):
    X=              9.9080    Y=            -12.3739    Z=             18.3970  Tot=             24.2843
 Quadrupole moment (field-independent basis, Debye-Ang):
   XX=            -80.0139   YY=           -127.5347   ZZ=            -51.4834
   XY=            -50.6793   XZ=             79.1697   YZ=            -73.2023

 Normal termination of Gaussian 16 at Wed May 25 07:50:09 2022.
