 Gaussian 16, Revision C.01,
 Gaussian 16:  ES64L-G16RevC.01  3-Jul-2019

 -------------------------------------------------------------------
 # B3LYP/6-31G* guess=read geom=check nosymm integral(ultrafinegrid)
 -------------------------------------------------------------------

 ------------------------------------------------------
 Candidate Structure: Conf:950 Charge calc in gas phase
 ------------------------------------------------------
 Structure from the checkpoint file:  "conf-950.chk"
 Charge =  1 Multiplicity = 1

                          Input orientation:
 ---------------------------------------------------------------------
 Center     Atomic      Atomic             Coordinates (Angstroms)
 Number     Number       Type             X           Y           Z
 ---------------------------------------------------------------------
      1          7           0       -1.386883    3.007720   -2.035735
      2          1           0       -1.784113    3.381843   -1.159369
      3          1           0       -1.140655    3.735595   -2.711608
      4          1           0       -0.532660    2.469387   -1.759675
      5          6           0       -2.403933    2.036204   -2.595054
      6          1           0       -3.233005    2.648690   -2.967883
      7          6           0       -2.870157    1.286697   -1.311940
      8          6           0       -1.760962    1.251822   -3.756445
      9          1           0       -1.028704    0.548337   -3.348737
     10          1           0       -2.544005    0.669274   -4.246733
     11          8           0       -2.747651    1.900969   -0.247305
     12          6           0       -1.096576    2.168392   -4.770028
     13          6           0       -1.860645    2.837260   -5.737719
     14          1           0       -2.934800    2.669979   -5.791441
     15          6           0        0.290092    2.380487   -4.733708
     16          1           0        0.895308    1.857421   -3.995661
     17          6           0       -1.252182    3.698913   -6.650820
     18          1           0       -1.854457    4.202183   -7.401504
     19          6           0        0.898643    3.243352   -5.648427
     20          1           0        1.974286    3.390641   -5.616262
     21          6           0        0.128935    3.904094   -6.607005
     22          1           0        0.602781    4.570176   -7.321857
     23          7           0       -3.297523    0.006472   -1.354667
     24          6           0       -3.499995   -0.692879   -0.056644
     25          1           0       -4.230452   -0.147788    0.547497
     26          6           0       -2.218130   -0.744874    0.795291
     27          6           0       -4.035128   -2.073929   -0.482965
     28          1           0       -3.201707   -2.762799   -0.663862
     29          1           0       -4.670286   -2.510754    0.290225
     30          8           0       -2.275169   -0.768908    2.013018
     31          6           0       -4.780530   -1.778641   -1.792748
     32          1           0       -4.938813   -2.667318   -2.409229
     33          1           0       -5.758673   -1.332135   -1.582977
     34          6           0       -3.875135   -0.752860   -2.490689
     35          1           0       -4.428233   -0.090380   -3.161947
     36          1           0       -3.085765   -1.253799   -3.062826
     37          7           0       -1.040984   -0.802080    0.092149
     38          1           0       -1.090606   -0.570024   -0.890413
     39          6           0        0.203125   -0.406813    0.737775
     40          1           0       -0.079613    0.198636    1.612277
     41          6           0        0.946017    0.545706   -0.223179
     42          6           0        1.050586   -1.595406    1.253387
     43          1           0        1.774608   -1.893021    0.485398
     44          1           0        0.374864   -2.445404    1.377399
     45          8           0        2.198824    0.843197   -0.026892
     46          6           0        1.740829   -1.281558    2.598918
     47          1           0        1.898909   -0.199261    2.689430
     48          1           0        1.056473   -1.539093    3.414841
     49          6           0        3.086035   -1.987531    2.821533
     50          1           0        2.952527   -3.075436    2.866816
     51          1           0        3.477384   -1.688381    3.802922
     52          6           0        4.132390   -1.678455    1.742394
     53          1           0        5.123718   -2.004625    2.081916
     54          1           0        3.916305   -2.227684    0.820217
     55          7           0        4.126099   -0.235067    1.390191
     56          1           0        4.875572   -0.039506    0.725019
     57          1           0        4.338692    0.324807    2.217941
     58          1           0        2.801548    0.324277    0.657152
     59          8           0        0.333931    1.054994   -1.172489
 ---------------------------------------------------------------------

 SCF Done:  E(RB3LYP) =  -1300.54692974     A.U. after    1 cycles

 Alpha  occ. eigenvalues --  -19.27791 -19.24992 -19.24904 -19.20743 -14.56847
 Alpha  occ. eigenvalues --  -14.49368 -14.45644 -14.44967 -10.43311 -10.42372
 Alpha  occ. eigenvalues --  -10.39437 -10.38037 -10.34638 -10.33741 -10.33602
 Alpha  occ. eigenvalues --  -10.32629 -10.31683 -10.31004 -10.29951 -10.29652
 Alpha  occ. eigenvalues --  -10.29640 -10.29559 -10.29162 -10.29154 -10.28923
 Alpha  occ. eigenvalues --  -10.28397 -10.27987 -10.27797  -1.19874  -1.17697
 Alpha  occ. eigenvalues --   -1.12836  -1.11855  -1.10980  -1.06639  -1.01823
 Alpha  occ. eigenvalues --   -1.00973  -0.96447  -0.92357  -0.90270  -0.89855
 Alpha  occ. eigenvalues --   -0.86889  -0.85122  -0.84732  -0.84188  -0.79279
 Alpha  occ. eigenvalues --   -0.78694  -0.76276  -0.73574  -0.72669  -0.71819
 Alpha  occ. eigenvalues --   -0.71189  -0.70733  -0.69872  -0.68963  -0.68510
 Alpha  occ. eigenvalues --   -0.67442  -0.67027  -0.64545  -0.62472  -0.61650
 Alpha  occ. eigenvalues --   -0.61561  -0.61131  -0.60813  -0.58737  -0.57909
 Alpha  occ. eigenvalues --   -0.57346  -0.56759  -0.56114  -0.55981  -0.54977
 Alpha  occ. eigenvalues --   -0.54704  -0.53970  -0.53824  -0.53151  -0.52956
 Alpha  occ. eigenvalues --   -0.52313  -0.52209  -0.51983  -0.51453  -0.51222
 Alpha  occ. eigenvalues --   -0.49953  -0.49472  -0.48909  -0.48109  -0.47488
 Alpha  occ. eigenvalues --   -0.46940  -0.46480  -0.46191  -0.46123  -0.44854
 Alpha  occ. eigenvalues --   -0.44597  -0.44425  -0.44311  -0.43266  -0.42815
 Alpha  occ. eigenvalues --   -0.42339  -0.41505  -0.39347  -0.39251  -0.37698
 Alpha  occ. eigenvalues --   -0.37491  -0.35455  -0.35146  -0.35064  -0.34029
 Alpha virt. eigenvalues --   -0.12564  -0.10920  -0.10746  -0.10400  -0.07175
 Alpha virt. eigenvalues --   -0.05804  -0.04099  -0.03593  -0.02229  -0.01536
 Alpha virt. eigenvalues --   -0.00358  -0.00148   0.00707   0.01180   0.01783

 Mulliken charges:
               1
     1  N   -0.755990
     2  H    0.418179
     3  H    0.404757
     4  H    0.448813
     5  C   -0.110333
     6  H    0.216036
     7  C    0.628136
     8  C   -0.381214
     9  H    0.194859
    10  H    0.187721
    11  O   -0.523046
    12  C    0.119490
    13  C   -0.185228
    14  H    0.137418
    15  C   -0.215139
    16  H    0.158466
    17  C   -0.125600
    18  H    0.161705
    19  C   -0.125516
    20  H    0.159446
    21  C   -0.124347
    22  H    0.162957
    23  N   -0.493151
    24  C   -0.020353
    25  H    0.205170
    26  C    0.604718
    27  C   -0.312484
    28  H    0.168797
    29  H    0.195786
    30  O   -0.497544
    31  C   -0.301958
    32  H    0.180702
    33  H    0.176065
    34  C   -0.142406
    35  H    0.172945
    36  H    0.174574
    37  N   -0.606901
    38  H    0.338313
    39  C   -0.061059
    40  H    0.212965
    41  C    0.603995
    42  C   -0.282783
    43  H    0.143028
    44  H    0.185135
    45  O   -0.592672
    46  C   -0.281643
    47  H    0.134534
    48  H    0.179867
    49  C   -0.284722
    50  H    0.166074
    51  H    0.156837
    52  C   -0.145628
    53  H    0.167041
    54  H    0.166338
    55  N   -0.790972
    56  H    0.347934
    57  H    0.341798
    58  H    0.493642
    59  O   -0.553553
 Sum of Mulliken charges =   1.00000

 Dipole moment (field-independent basis, Debye):
    X=             -0.9980    Y=              4.4253    Z=             -9.5730  Tot=             10.5935
 Quadrupole moment (field-independent basis, Debye-Ang):
   XX=            -98.4954   YY=           -125.1503   ZZ=           -116.6009
   XY=             -7.0987   XZ=             42.7305   YZ=            -31.3640

 Normal termination of Gaussian 16 at Wed May 25 07:50:08 2022.
