 Gaussian 16, Revision C.01,
 Gaussian 16:  ES64L-G16RevC.01  3-Jul-2019

 -------------------------------------------------------------------
 # B3LYP/6-31G* guess=read geom=check nosymm integral(ultrafinegrid)
 -------------------------------------------------------------------

 -----------------------------------------------------
 Candidate Structure: Conf:34 Charge calc in gas phase
 -----------------------------------------------------
 Structure from the checkpoint file:  "conf-34.chk"
 Charge =  1 Multiplicity = 1

                          Input orientation:
 ---------------------------------------------------------------------
 Center     Atomic      Atomic             Coordinates (Angstroms)
 Number     Number       Type             X           Y           Z
 ---------------------------------------------------------------------
      1          7           0       -4.447937    0.824818    4.553183
      2          1           0       -5.348314    0.339291    4.579294
      3          1           0       -4.380483    1.448343    5.372268
      4          1           0       -3.673540    0.103707    4.522140
      5          6           0       -4.220696    1.591173    3.269450
      6          1           0       -5.194878    1.796864    2.823077
      7          6           0       -3.340062    0.625912    2.439683
      8          6           0       -3.456859    2.908817    3.578115
      9          1           0       -2.412652    2.661673    3.796990
     10          1           0       -3.442032    3.494618    2.654650
     11          8           0       -2.780243   -0.290465    3.063556
     12          6           0       -4.089697    3.690775    4.710147
     13          6           0       -3.544832    3.626636    6.003428
     14          1           0       -2.615817    3.083817    6.171162
     15          6           0       -5.252490    4.449216    4.503901
     16          1           0       -5.678823    4.525578    3.505651
     17          6           0       -4.151055    4.304257    7.066837
     18          1           0       -3.709333    4.257197    8.057830
     19          6           0       -5.853210    5.128234    5.562769
     20          1           0       -6.744564    5.722909    5.385607
     21          6           0       -5.306299    5.053287    6.847538
     22          1           0       -5.774200    5.586544    7.669515
     23          7           0       -3.176926    0.849831    1.135368
     24          6           0       -2.050439    0.210299    0.432402
     25          1           0       -2.157229   -0.877120    0.492047
     26          6           0       -0.726269    0.664687    1.095390
     27          6           0       -2.172083    0.739660   -1.023182
     28          1           0       -1.432009    1.528553   -1.192333
     29          1           0       -1.989914   -0.048663   -1.757002
     30          8           0       -0.682350    1.683185    1.783477
     31          6           0       -3.593514    1.322984   -1.113658
     32          1           0       -3.685276    2.099784   -1.876952
     33          1           0       -4.323831    0.537537   -1.335797
     34          6           0       -3.832200    1.869328    0.297854
     35          1           0       -4.892488    1.963652    0.549152
     36          1           0       -3.341050    2.841669    0.430079
     37          7           0        0.336913   -0.101375    0.791046
     38          1           0        0.247645   -0.937540    0.221157
     39          6           0        1.706835    0.217370    1.174036
     40          1           0        1.841983    1.300773    1.142475
     41          6           0        2.634333   -0.447258    0.164580
     42          6           0        2.038207   -0.303450    2.610627
     43          1           0        1.532366   -1.268818    2.736592
     44          1           0        1.562624    0.393217    3.308702
     45          8           0        3.800969    0.170229    0.086915
     46          6           0        3.540640   -0.461088    2.942261
     47          1           0        4.103506    0.349430    2.469647
     48          1           0        3.667616   -0.330688    4.023130
     49          6           0        4.136464   -1.841830    2.539675
     50          1           0        3.489109   -2.338677    1.806349
     51          1           0        4.124790   -2.493349    3.421256
     52          6           0        5.573060   -1.827216    1.976482
     53          1           0        6.137020   -0.983522    2.388860
     54          1           0        6.098692   -2.742391    2.280525
     55          7           0        5.591281   -1.691272    0.494229
     56          1           0        6.548248   -1.572078    0.163342
     57          1           0        4.559036   -0.532657   -0.002805
     58          1           0        5.242556   -2.549982    0.067014
     59          8           0        2.330731   -1.487933   -0.400437
 ---------------------------------------------------------------------

 SCF Done:  E(RB3LYP) =  -1300.53814874     A.U. after    2 cycles

 Alpha  occ. eigenvalues --  -19.25865 -19.22816 -19.20450 -19.20081 -14.58840
 Alpha  occ. eigenvalues --  -14.49554 -14.44621 -14.42232 -10.42685 -10.40266
 Alpha  occ. eigenvalues --  -10.37939 -10.37865 -10.34581 -10.34086 -10.33118
 Alpha  occ. eigenvalues --  -10.31940 -10.30793 -10.30699 -10.30468 -10.30125
 Alpha  occ. eigenvalues --  -10.30058 -10.30041 -10.29866 -10.29784 -10.29226
 Alpha  occ. eigenvalues --  -10.26330 -10.25673 -10.25376  -1.18514  -1.15211
 Alpha  occ. eigenvalues --   -1.13223  -1.12134  -1.07227  -1.06844  -1.01051
 Alpha  occ. eigenvalues --   -0.97588  -0.97346  -0.93165  -0.90731  -0.87912
 Alpha  occ. eigenvalues --   -0.86674  -0.85747  -0.85524  -0.82237  -0.79366
 Alpha  occ. eigenvalues --   -0.77444  -0.76276  -0.73310  -0.72628  -0.71444
 Alpha  occ. eigenvalues --   -0.70957  -0.70492  -0.69915  -0.69650  -0.66633
 Alpha  occ. eigenvalues --   -0.66413  -0.64255  -0.63426  -0.63266  -0.62153
 Alpha  occ. eigenvalues --   -0.61775  -0.59596  -0.58091  -0.57623  -0.56947
 Alpha  occ. eigenvalues --   -0.56633  -0.56134  -0.55830  -0.54998  -0.54088
 Alpha  occ. eigenvalues --   -0.53847  -0.53140  -0.52805  -0.52669  -0.52584
 Alpha  occ. eigenvalues --   -0.51956  -0.51106  -0.50727  -0.50395  -0.49854
 Alpha  occ. eigenvalues --   -0.49806  -0.48476  -0.48267  -0.47785  -0.47083
 Alpha  occ. eigenvalues --   -0.46505  -0.45977  -0.45507  -0.45221  -0.44639
 Alpha  occ. eigenvalues --   -0.44208  -0.43590  -0.42940  -0.40893  -0.40545
 Alpha  occ. eigenvalues --   -0.40374  -0.40166  -0.37600  -0.36559  -0.36498
 Alpha  occ. eigenvalues --   -0.36021  -0.34694  -0.34656  -0.33927  -0.32924
 Alpha virt. eigenvalues --   -0.12911  -0.12130  -0.10829  -0.09556  -0.06719
 Alpha virt. eigenvalues --   -0.05570  -0.04973  -0.02164  -0.01535  -0.01033
 Alpha virt. eigenvalues --   -0.00951  -0.00149  -0.00059   0.00815   0.01441

 Mulliken charges:
               1
     1  N   -0.753378
     2  H    0.411002
     3  H    0.403729
     4  H    0.428075
     5  C   -0.114438
     6  H    0.201265
     7  C    0.651908
     8  C   -0.385763
     9  H    0.222430
    10  H    0.205275
    11  O   -0.545784
    12  C    0.130820
    13  C   -0.227187
    14  H    0.154536
    15  C   -0.180849
    16  H    0.140781
    17  C   -0.119961
    18  H    0.166393
    19  C   -0.122324
    20  H    0.165794
    21  C   -0.124398
    22  H    0.168201
    23  N   -0.433704
    24  C   -0.053418
    25  H    0.188921
    26  C    0.637891
    27  C   -0.317606
    28  H    0.185693
    29  H    0.184517
    30  O   -0.548086
    31  C   -0.291116
    32  H    0.182017
    33  H    0.172201
    34  C   -0.152734
    35  H    0.164479
    36  H    0.188303
    37  N   -0.613156
    38  H    0.351505
    39  C   -0.014139
    40  H    0.189571
    41  C    0.578243
    42  C   -0.277550
    43  H    0.149670
    44  H    0.162786
    45  O   -0.600384
    46  C   -0.283633
    47  H    0.171346
    48  H    0.146433
    49  C   -0.291717
    50  H    0.161146
    51  H    0.153217
    52  C   -0.144805
    53  H    0.166983
    54  H    0.153373
    55  N   -0.778676
    56  H    0.337814
    57  H    0.460393
    58  H    0.341803
    59  O   -0.503710
 Sum of Mulliken charges =   1.00000

 Dipole moment (field-independent basis, Debye):
    X=            -14.0873    Y=              4.7883    Z=             15.7872  Tot=             21.6937
 Quadrupole moment (field-independent basis, Debye-Ang):
   XX=            -23.0321   YY=           -137.6086   ZZ=            -72.8880
   XY=            -54.7317   XZ=            -64.1831   YZ=             28.6418

 Normal termination of Gaussian 16 at Wed May 25 07:50:15 2022.
