 Gaussian 16, Revision C.01,
 Gaussian 16:  ES64L-G16RevC.01  3-Jul-2019

 -------------------------------------------------------------------
 # B3LYP/6-31G* guess=read geom=check nosymm integral(ultrafinegrid)
 -------------------------------------------------------------------

 ------------------------------------------------------
 Candidate Structure: Conf:772 Charge calc in gas phase
 ------------------------------------------------------
 Structure from the checkpoint file:  "conf-772.chk"
 Charge =  1 Multiplicity = 1

                          Input orientation:
 ---------------------------------------------------------------------
 Center     Atomic      Atomic             Coordinates (Angstroms)
 Number     Number       Type             X           Y           Z
 ---------------------------------------------------------------------
      1          7           0       -1.445338   -3.117967   -1.796268
      2          1           0       -1.195993   -2.258503   -2.296278
      3          1           0       -1.515892   -3.917572   -2.429548
      4          1           0       -0.656445   -3.282335   -1.016509
      5          6           0       -2.732416   -2.891853   -1.051453
      6          1           0       -3.520997   -2.738700   -1.798414
      7          6           0       -2.478144   -1.536053   -0.333619
      8          6           0       -3.043130   -4.149700   -0.210239
      9          1           0       -2.328639   -4.202576    0.616234
     10          1           0       -4.044318   -4.042252    0.212532
     11          8           0       -1.731267   -0.735956   -0.901283
     12          6           0       -2.983244   -5.426912   -1.030737
     13          6           0       -4.076772   -5.827850   -1.811858
     14          1           0       -4.990842   -5.236845   -1.807552
     15          6           0       -1.821445   -6.214232   -1.034383
     16          1           0       -0.969459   -5.915246   -0.427116
     17          6           0       -4.012546   -6.990645   -2.580085
     18          1           0       -4.870512   -7.293847   -3.173245
     19          6           0       -1.757458   -7.377926   -1.804367
     20          1           0       -0.854691   -7.981821   -1.792259
     21          6           0       -2.851802   -7.767652   -2.578100
     22          1           0       -2.803674   -8.675410   -3.172359
     23          7           0       -2.976189   -1.266225    0.904092
     24          6           0       -2.499463   -0.030509    1.569044
     25          1           0       -2.737030    0.844099    0.955790
     26          6           0       -0.975631   -0.008501    1.736163
     27          6           0       -3.283969   -0.014434    2.896800
     28          1           0       -2.749031   -0.593071    3.659072
     29          1           0       -3.415660    1.002278    3.273284
     30          8           0       -0.395083    1.097896    1.745743
     31          6           0       -4.603264   -0.707269    2.527801
     32          1           0       -5.147441   -1.085536    3.396996
     33          1           0       -5.259988   -0.012593    1.992688
     34          6           0       -4.159417   -1.840100    1.590434
     35          1           0       -4.934846   -2.109975    0.869481
     36          1           0       -3.882234   -2.735461    2.157624
     37          7           0       -0.358917   -1.189519    1.891302
     38          1           0       -0.910149   -2.022073    1.686235
     39          6           0        1.033084   -1.400774    1.489619
     40          1           0        1.362266   -0.482343    1.000490
     41          6           0        1.059926   -2.477472    0.358810
     42          6           0        2.001881   -1.746810    2.648143
     43          1           0        2.087098   -2.834985    2.731036
     44          1           0        1.565186   -1.408975    3.596246
     45          8           0        2.055061   -2.515813   -0.355939
     46          6           0        3.402571   -1.128988    2.432126
     47          1           0        4.178620   -1.851159    2.705715
     48          1           0        3.548597   -0.961951    1.357687
     49          6           0        3.699663    0.151269    3.247944
     50          1           0        4.635852    0.600705    2.890708
     51          1           0        3.886086   -0.128937    4.292752
     52          6           0        2.622524    1.235179    3.332653
     53          1           0        1.713085    0.871389    3.814975
     54          1           0        2.993434    2.086176    3.907382
     55          7           0        2.167799    1.770176    1.979510
     56          1           0        2.158046    2.793425    1.958704
     57          1           0        1.157549    1.437806    1.787908
     58          1           0        2.778807    1.454459    1.220725
     59          8           0       -0.008275   -3.207653    0.294482
 ---------------------------------------------------------------------

 SCF Done:  E(RB3LYP) =  -1300.53533423     A.U. after    1 cycles

 Alpha  occ. eigenvalues --  -19.24702 -19.23885 -19.19538 -19.17607 -14.56736
 Alpha  occ. eigenvalues --  -14.51993 -14.48740 -14.46325 -10.41313 -10.40869
 Alpha  occ. eigenvalues --  -10.37331 -10.37050 -10.36363 -10.34553 -10.34140
 Alpha  occ. eigenvalues --  -10.32216 -10.31395 -10.30521 -10.30388 -10.30092
 Alpha  occ. eigenvalues --  -10.29157 -10.29051 -10.28721 -10.27945 -10.27666
 Alpha  occ. eigenvalues --  -10.27518 -10.27428 -10.27278  -1.16598  -1.15380
 Alpha  occ. eigenvalues --   -1.11851  -1.11326  -1.07695  -1.06132  -1.03844
 Alpha  occ. eigenvalues --   -1.02351  -0.94568  -0.91901  -0.91411  -0.88916
 Alpha  occ. eigenvalues --   -0.87951  -0.85853  -0.83242  -0.82977  -0.81090
 Alpha  occ. eigenvalues --   -0.77620  -0.75884  -0.74812  -0.71875  -0.70962
 Alpha  occ. eigenvalues --   -0.70586  -0.69377  -0.69097  -0.68491  -0.68168
 Alpha  occ. eigenvalues --   -0.67802  -0.67384  -0.65932  -0.64087  -0.61211
 Alpha  occ. eigenvalues --   -0.60434  -0.60128  -0.59664  -0.59372  -0.58997
 Alpha  occ. eigenvalues --   -0.57409  -0.56957  -0.55981  -0.54921  -0.54500
 Alpha  occ. eigenvalues --   -0.54388  -0.54204  -0.53149  -0.52983  -0.52526
 Alpha  occ. eigenvalues --   -0.52102  -0.51070  -0.50923  -0.50733  -0.50506
 Alpha  occ. eigenvalues --   -0.50032  -0.49388  -0.48829  -0.48718  -0.48097
 Alpha  occ. eigenvalues --   -0.47014  -0.46296  -0.46238  -0.45214  -0.45066
 Alpha  occ. eigenvalues --   -0.44635  -0.44488  -0.44085  -0.43213  -0.42967
 Alpha  occ. eigenvalues --   -0.42574  -0.39309  -0.37997  -0.37862  -0.36285
 Alpha  occ. eigenvalues --   -0.34737  -0.34192  -0.33706  -0.33367  -0.31108
 Alpha virt. eigenvalues --   -0.11552  -0.09856  -0.09234  -0.09057  -0.08946
 Alpha virt. eigenvalues --   -0.04865  -0.03845  -0.03471  -0.02372  -0.01674
 Alpha virt. eigenvalues --   -0.00814  -0.00432   0.00615   0.00824   0.01390

 Mulliken charges:
               1
     1  N   -0.767801
     2  H    0.401861
     3  H    0.390788
     4  H    0.460812
     5  C   -0.094508
     6  H    0.203175
     7  C    0.625080
     8  C   -0.375899
     9  H    0.198674
    10  H    0.173472
    11  O   -0.525458
    12  C    0.116424
    13  C   -0.182184
    14  H    0.130902
    15  C   -0.210026
    16  H    0.167329
    17  C   -0.126551
    18  H    0.154808
    19  C   -0.126335
    20  H    0.157565
    21  C   -0.124961
    22  H    0.157117
    23  N   -0.496238
    24  C   -0.009646
    25  H    0.200695
    26  C    0.631157
    27  C   -0.312512
    28  H    0.166906
    29  H    0.186751
    30  O   -0.593602
    31  C   -0.303275
    32  H    0.181416
    33  H    0.174845
    34  C   -0.137167
    35  H    0.176738
    36  H    0.178341
    37  N   -0.574269
    38  H    0.362432
    39  C   -0.072419
    40  H    0.124392
    41  C    0.607962
    42  C   -0.276340
    43  H    0.182522
    44  H    0.145370
    45  O   -0.510184
    46  C   -0.290129
    47  H    0.180344
    48  H    0.171055
    49  C   -0.308510
    50  H    0.169239
    51  H    0.187920
    52  C   -0.179292
    53  H    0.209325
    54  H    0.205041
    55  N   -0.783768
    56  H    0.405146
    57  H    0.459238
    58  H    0.404607
    59  O   -0.668373
 Sum of Mulliken charges =   1.00000

 Dipole moment (field-independent basis, Debye):
    X=             -4.1043    Y=             -2.8471    Z=              6.4454  Tot=              8.1544
 Quadrupole moment (field-independent basis, Debye-Ang):
   XX=           -101.9155   YY=           -112.9291   ZZ=           -122.7077
   XY=             46.4069   XZ=             22.6857   YZ=             27.4821

 Normal termination of Gaussian 16 at Wed May 25 07:50:09 2022.
