 Gaussian 16, Revision C.01,
 Gaussian 16:  ES64L-G16RevC.01  3-Jul-2019

 -------------------------------------------------------------------
 # B3LYP/6-31G* guess=read geom=check nosymm integral(ultrafinegrid)
 -------------------------------------------------------------------

 ------------------------------------------------------
 Candidate Structure: Conf:879 Charge calc in gas phase
 ------------------------------------------------------
 Structure from the checkpoint file:  "conf-879.chk"
 Charge =  1 Multiplicity = 1

                          Input orientation:
 ---------------------------------------------------------------------
 Center     Atomic      Atomic             Coordinates (Angstroms)
 Number     Number       Type             X           Y           Z
 ---------------------------------------------------------------------
      1          7           0       -4.302966    2.751490   -2.907294
      2          1           0       -5.271835    2.421642   -2.940728
      3          1           0       -4.173400    3.470589   -3.624110
      4          1           0       -4.101647    3.118957   -1.926951
      5          6           0       -3.280838    1.626360   -3.011081
      6          1           0       -3.751780    0.795652   -3.537190
      7          6           0       -3.012917    1.330652   -1.502094
      8          6           0       -2.050632    2.147811   -3.800123
      9          1           0       -2.436466    2.765899   -4.625500
     10          1           0       -1.467734    2.809214   -3.149162
     11          8           0       -3.266470    2.271948   -0.722148
     12          6           0       -1.177029    1.055524   -4.380138
     13          6           0        0.105758    0.820800   -3.880394
     14          1           0        0.503259    1.408725   -3.057665
     15          6           0       -1.648845    0.281626   -5.453552
     16          1           0       -2.634612    0.473184   -5.877035
     17          6           0        0.909506   -0.182999   -4.427119
     18          1           0        1.884083   -0.357141   -3.984622
     19          6           0       -0.847512   -0.716368   -6.004097
     20          1           0       -1.216005   -1.304961   -6.839696
     21          6           0        0.432127   -0.949948   -5.488583
     22          1           0        1.053438   -1.730895   -5.917272
     23          7           0       -2.574079    0.138231   -1.103661
     24          6           0       -2.470118   -0.169539    0.356046
     25          1           0       -3.258781    0.381498    0.869522
     26          6           0       -1.130505    0.363933    0.904652
     27          6           0       -2.650596   -1.712692    0.420706
     28          1           0       -1.744730   -2.190110    0.800695
     29          1           0       -3.459568   -1.971844    1.107958
     30          8           0       -1.138868    1.419171    1.585585
     31          6           0       -2.950764   -2.173571   -1.025245
     32          1           0       -2.529718   -3.157817   -1.243609
     33          1           0       -4.031988   -2.223587   -1.194454
     34          6           0       -2.330946   -1.084344   -1.906990
     35          1           0       -2.786506   -1.003953   -2.894940
     36          1           0       -1.250146   -1.214592   -2.040226
     37          7           0       -0.045090   -0.318703    0.563330
     38          1           0       -0.102310   -1.090189   -0.130483
     39          6           0        1.303580    0.224135    0.375650
     40          1           0        1.251465    1.316350    0.369774
     41          6           0        1.701744   -0.254501   -1.087037
     42          6           0        2.315788   -0.303343    1.402437
     43          1           0        3.309851    0.035961    1.085401
     44          1           0        2.323228   -1.395936    1.309979
     45          8           0        2.590766    0.407604   -1.639966
     46          6           0        2.055489    0.065844    2.876010
     47          1           0        0.976863    0.020538    3.083923
     48          1           0        2.502832   -0.703683    3.516043
     49          6           0        2.644844    1.407924    3.350564
     50          1           0        3.732251    1.393996    3.205287
     51          1           0        2.490298    1.512592    4.434491
     52          6           0        2.146840    2.678211    2.664174
     53          1           0        2.625328    3.562166    3.094815
     54          1           0        2.339053    2.673522    1.589854
     55          7           0        0.654291    2.858638    2.831790
     56          1           0        0.359195    3.789064    2.521713
     57          1           0        0.388236    2.774197    3.818008
     58          1           0        0.041105    2.148442    2.270984
     59          8           0        1.036517   -1.254928   -1.490043
 ---------------------------------------------------------------------

 SCF Done:  E(RB3LYP) =  -1300.49246094     A.U. after    3 cycles

 Alpha  occ. eigenvalues --  -19.26234 -19.23541 -19.14220 -19.13273 -14.59554
 Alpha  occ. eigenvalues --  -14.55797 -14.50401 -14.44538 -10.43221 -10.40474
 Alpha  occ. eigenvalues --  -10.39616 -10.36376 -10.34628 -10.33089 -10.32794
 Alpha  occ. eigenvalues --  -10.31937 -10.30431 -10.29734 -10.29492 -10.29331
 Alpha  occ. eigenvalues --  -10.28618 -10.28181 -10.27280 -10.26558 -10.26529
 Alpha  occ. eigenvalues --  -10.26180 -10.25826 -10.25130  -1.18893  -1.14313
 Alpha  occ. eigenvalues --   -1.13319  -1.10507  -1.07426  -1.07191  -1.01692
 Alpha  occ. eigenvalues --   -0.98391  -0.94775  -0.91854  -0.90849  -0.89877
 Alpha  occ. eigenvalues --   -0.86897  -0.84791  -0.83737  -0.81754  -0.80059
 Alpha  occ. eigenvalues --   -0.78682  -0.77145  -0.74231  -0.73384  -0.72438
 Alpha  occ. eigenvalues --   -0.71053  -0.70235  -0.68969  -0.68180  -0.67958
 Alpha  occ. eigenvalues --   -0.67356  -0.66319  -0.66037  -0.63128  -0.62993
 Alpha  occ. eigenvalues --   -0.62173  -0.60727  -0.59211  -0.58880  -0.57971
 Alpha  occ. eigenvalues --   -0.57392  -0.56576  -0.55472  -0.54948  -0.54601
 Alpha  occ. eigenvalues --   -0.53932  -0.53231  -0.52961  -0.52031  -0.51764
 Alpha  occ. eigenvalues --   -0.51359  -0.50991  -0.49755  -0.49693  -0.48984
 Alpha  occ. eigenvalues --   -0.48966  -0.48642  -0.48405  -0.47397  -0.46884
 Alpha  occ. eigenvalues --   -0.46193  -0.45970  -0.44491  -0.44316  -0.43692
 Alpha  occ. eigenvalues --   -0.43294  -0.42968  -0.42025  -0.41685  -0.41411
 Alpha  occ. eigenvalues --   -0.40843  -0.40602  -0.39057  -0.36606  -0.36066
 Alpha  occ. eigenvalues --   -0.32494  -0.32269  -0.29322  -0.28897  -0.27077
 Alpha virt. eigenvalues --   -0.12573  -0.10713  -0.09592  -0.09321  -0.08337
 Alpha virt. eigenvalues --   -0.07640  -0.05585  -0.03197  -0.02772  -0.01602
 Alpha virt. eigenvalues --   -0.00955  -0.00813  -0.00279   0.00317   0.01242

 Mulliken charges:
               1
     1  N   -0.755385
     2  H    0.412293
     3  H    0.407328
     4  H    0.431037
     5  C   -0.102557
     6  H    0.209265
     7  C    0.633791
     8  C   -0.385160
     9  H    0.167226
    10  H    0.190141
    11  O   -0.550318
    12  C    0.162635
    13  C   -0.191220
    14  H    0.146495
    15  C   -0.197241
    16  H    0.109082
    17  C   -0.099627
    18  H    0.199303
    19  C   -0.127159
    20  H    0.146151
    21  C   -0.132535
    22  H    0.154581
    23  N   -0.432250
    24  C   -0.053705
    25  H    0.197186
    26  C    0.619427
    27  C   -0.331264
    28  H    0.189347
    29  H    0.181621
    30  O   -0.599452
    31  C   -0.286448
    32  H    0.191089
    33  H    0.156691
    34  C   -0.206712
    35  H    0.169631
    36  H    0.260025
    37  N   -0.567973
    38  H    0.371991
    39  C   -0.098751
    40  H    0.115151
    41  C    0.618324
    42  C   -0.265184
    43  H    0.172618
    44  H    0.167248
    45  O   -0.577645
    46  C   -0.283313
    47  H    0.137110
    48  H    0.170211
    49  C   -0.290395
    50  H    0.190665
    51  H    0.154135
    52  C   -0.191838
    53  H    0.197186
    54  H    0.225142
    55  N   -0.771475
    56  H    0.396689
    57  H    0.392040
    58  H    0.460907
    59  O   -0.606151
 Sum of Mulliken charges =   1.00000

 Dipole moment (field-independent basis, Debye):
    X=            -14.7164    Y=             12.4677    Z=              0.1548  Tot=             19.2883
 Quadrupole moment (field-independent basis, Debye-Ang):
   XX=            -98.5804   YY=           -113.3330   ZZ=            -96.7281
   XY=            -17.2892   XZ=             68.1039   YZ=              0.7394

 Normal termination of Gaussian 16 at Wed May 25 07:50:32 2022.
