 Gaussian 16, Revision C.01,
 Gaussian 16:  ES64L-G16RevC.01  3-Jul-2019

 -------------------------------------------------------------------
 # B3LYP/6-31G* guess=read geom=check nosymm integral(ultrafinegrid)
 -------------------------------------------------------------------

 ------------------------------------------------------
 Candidate Structure: Conf:746 Charge calc in gas phase
 ------------------------------------------------------
 Structure from the checkpoint file:  "conf-746.chk"
 Charge =  1 Multiplicity = 1

                          Input orientation:
 ---------------------------------------------------------------------
 Center     Atomic      Atomic             Coordinates (Angstroms)
 Number     Number       Type             X           Y           Z
 ---------------------------------------------------------------------
      1          7           0       -3.970978   -3.012252   -1.624974
      2          1           0       -4.913924   -2.927872   -2.012005
      3          1           0       -3.603583   -3.965942   -1.775809
      4          1           0       -3.323716   -2.317287   -2.094309
      5          6           0       -3.869242   -2.617407   -0.167761
      6          1           0       -4.882191   -2.507203    0.224676
      7          6           0       -3.150589   -1.244642   -0.227937
      8          6           0       -3.093887   -3.717027    0.634184
      9          1           0       -2.622550   -3.230184    1.493042
     10          1           0       -3.828414   -4.424269    1.032630
     11          8           0       -2.583897   -0.949345   -1.296665
     12          6           0       -2.066251   -4.457304   -0.199508
     13          6           0       -2.356375   -5.744046   -0.686540
     14          1           0       -3.279394   -6.240639   -0.391225
     15          6           0       -0.854040   -3.850884   -0.561061
     16          1           0       -0.602240   -2.856190   -0.209293
     17          6           0       -1.444625   -6.412022   -1.510539
     18          1           0       -1.672815   -7.412646   -1.865837
     19          6           0        0.049516   -4.514099   -1.390370
     20          1           0        0.970860   -4.010685   -1.665646
     21          6           0       -0.243796   -5.795829   -1.864942
     22          1           0        0.462305   -6.312897   -2.507933
     23          7           0       -3.165633   -0.460382    0.850818
     24          6           0       -2.574811    0.907654    0.804105
     25          1           0       -2.658244    1.275656   -0.222756
     26          6           0       -1.073020    0.920307    1.213157
     27          6           0       -3.439396    1.680514    1.803359
     28          1           0       -2.897741    2.537242    2.204475
     29          1           0       -4.353829    2.029749    1.311572
     30          8           0       -0.677131    1.646926    2.118648
     31          6           0       -3.756857    0.630119    2.878941
     32          1           0       -2.897963    0.520675    3.547612
     33          1           0       -4.630806    0.879763    3.485273
     34          6           0       -3.976636   -0.665310    2.079349
     35          1           0       -5.032297   -0.789051    1.806274
     36          1           0       -3.652221   -1.556550    2.624130
     37          7           0       -0.267239    0.087166    0.510960
     38          1           0       -0.584756   -0.344335   -0.355373
     39          6           0        1.182081    0.107782    0.688042
     40          1           0        1.541179    1.128360    0.491972
     41          6           0        1.771363   -0.809106   -0.400922
     42          6           0        1.649133   -0.304409    2.116409
     43          1           0        2.083921   -1.309375    2.073344
     44          1           0        0.770013   -0.379245    2.758992
     45          8           0        3.076224   -1.008007   -0.407899
     46          6           0        2.648375    0.702420    2.728154
     47          1           0        3.118305    1.281402    1.924042
     48          1           0        2.093096    1.434093    3.324326
     49          6           0        3.764898    0.082220    3.580925
     50          1           0        3.351508   -0.409351    4.470874
     51          1           0        4.402870    0.894857    3.953859
     52          6           0        4.635831   -0.938876    2.832537
     53          1           0        5.544160   -1.138684    3.417430
     54          1           0        4.111160   -1.895397    2.731054
     55          7           0        4.951021   -0.480805    1.458193
     56          1           0        5.623270   -1.118642    1.030569
     57          1           0        5.413007    0.429012    1.489425
     58          1           0        3.635851   -0.625517    0.355038
     59          8           0        1.047368   -1.336217   -1.231881
 ---------------------------------------------------------------------

 SCF Done:  E(RB3LYP) =  -1300.53520938     A.U. after    2 cycles

 Alpha  occ. eigenvalues --  -19.26951 -19.24919 -19.21080 -19.21027 -14.59174
 Alpha  occ. eigenvalues --  -14.50797 -14.44637 -14.43176 -10.43592 -10.41102
 Alpha  occ. eigenvalues --  -10.39630 -10.38190 -10.35248 -10.34318 -10.34194
 Alpha  occ. eigenvalues --  -10.32280 -10.31650 -10.30465 -10.30031 -10.29776
 Alpha  occ. eigenvalues --  -10.29681 -10.29372 -10.29232 -10.28939 -10.28925
 Alpha  occ. eigenvalues --  -10.27247 -10.26646 -10.26255  -1.19321  -1.16653
 Alpha  occ. eigenvalues --   -1.13554  -1.12817  -1.08441  -1.07932  -1.01125
 Alpha  occ. eigenvalues --   -0.98719  -0.97025  -0.93408  -0.90830  -0.88605
 Alpha  occ. eigenvalues --   -0.87027  -0.85772  -0.85003  -0.83214  -0.79722
 Alpha  occ. eigenvalues --   -0.77972  -0.76524  -0.73863  -0.72524  -0.72321
 Alpha  occ. eigenvalues --   -0.71039  -0.70786  -0.70030  -0.69356  -0.68194
 Alpha  occ. eigenvalues --   -0.66236  -0.65422  -0.64644  -0.63389  -0.62788
 Alpha  occ. eigenvalues --   -0.61247  -0.60408  -0.59484  -0.58682  -0.57929
 Alpha  occ. eigenvalues --   -0.57065  -0.56396  -0.56143  -0.55780  -0.55302
 Alpha  occ. eigenvalues --   -0.54342  -0.53623  -0.52938  -0.52656  -0.52426
 Alpha  occ. eigenvalues --   -0.52137  -0.51719  -0.51338  -0.51094  -0.50494
 Alpha  occ. eigenvalues --   -0.49919  -0.49233  -0.48749  -0.46850  -0.46781
 Alpha  occ. eigenvalues --   -0.46314  -0.46239  -0.46032  -0.45324  -0.44824
 Alpha  occ. eigenvalues --   -0.44598  -0.44080  -0.43783  -0.41952  -0.41375
 Alpha  occ. eigenvalues --   -0.40925  -0.40795  -0.39346  -0.38242  -0.36331
 Alpha  occ. eigenvalues --   -0.35931  -0.35658  -0.34952  -0.34406  -0.33789
 Alpha virt. eigenvalues --   -0.13409  -0.11759  -0.11377  -0.09835  -0.07896
 Alpha virt. eigenvalues --   -0.06433  -0.04985  -0.03983  -0.02045  -0.01842
 Alpha virt. eigenvalues --   -0.01596  -0.00574  -0.00138   0.01190   0.01396

 Mulliken charges:
               1
     1  N   -0.761902
     2  H    0.409224
     3  H    0.408579
     4  H    0.439240
     5  C   -0.087954
     6  H    0.206529
     7  C    0.626983
     8  C   -0.377712
     9  H    0.205115
    10  H    0.187812
    11  O   -0.548880
    12  C    0.090828
    13  C   -0.216447
    14  H    0.145426
    15  C   -0.174622
    16  H    0.158335
    17  C   -0.119983
    18  H    0.163197
    19  C   -0.131831
    20  H    0.190013
    21  C   -0.125902
    22  H    0.166193
    23  N   -0.434071
    24  C   -0.098950
    25  H    0.206198
    26  C    0.629738
    27  C   -0.289075
    28  H    0.210898
    29  H    0.157776
    30  O   -0.510818
    31  C   -0.316181
    32  H    0.190969
    33  H    0.180324
    34  C   -0.149280
    35  H    0.170091
    36  H    0.180098
    37  N   -0.654449
    38  H    0.385971
    39  C   -0.038085
    40  H    0.190605
    41  C    0.592287
    42  C   -0.291055
    43  H    0.148235
    44  H    0.170651
    45  O   -0.605870
    46  C   -0.269421
    47  H    0.137216
    48  H    0.176527
    49  C   -0.287563
    50  H    0.155497
    51  H    0.152214
    52  C   -0.140370
    53  H    0.157612
    54  H    0.159102
    55  N   -0.778084
    56  H    0.341512
    57  H    0.332117
    58  H    0.475735
    59  O   -0.490345
 Sum of Mulliken charges =   1.00000

 Dipole moment (field-independent basis, Debye):
    X=            -10.9951    Y=            -11.7013    Z=              1.9644  Tot=             16.1763
 Quadrupole moment (field-independent basis, Debye-Ang):
   XX=            -47.4402   YY=           -111.5367   ZZ=           -146.5911
   XY=             41.4544   XZ=             22.2592   YZ=             12.1189

 Normal termination of Gaussian 16 at Wed May 25 07:50:18 2022.
