 Gaussian 16, Revision C.01,
 Gaussian 16:  ES64L-G16RevC.01  3-Jul-2019

 -------------------------------------------------------------------
 # B3LYP/6-31G* guess=read geom=check nosymm integral(ultrafinegrid)
 -------------------------------------------------------------------

 ------------------------------------------------------
 Candidate Structure: Conf:883 Charge calc in gas phase
 ------------------------------------------------------
 Structure from the checkpoint file:  "conf-883.chk"
 Charge =  1 Multiplicity = 1

                          Input orientation:
 ---------------------------------------------------------------------
 Center     Atomic      Atomic             Coordinates (Angstroms)
 Number     Number       Type             X           Y           Z
 ---------------------------------------------------------------------
      1          7           0       -1.958691    1.731161   -3.682100
      2          1           0       -1.850961    2.626469   -3.179521
      3          1           0       -2.050739    1.844303   -4.694982
      4          1           0       -1.103910    1.169512   -3.459015
      5          6           0       -3.159420    1.034719   -3.078692
      6          1           0       -4.037204    1.592806   -3.424414
      7          6           0       -2.957386    1.306616   -1.558566
      8          6           0       -3.213156   -0.414627   -3.602117
      9          1           0       -2.405687   -0.990102   -3.139360
     10          1           0       -4.160198   -0.855392   -3.283159
     11          8           0       -2.295213    2.307832   -1.267307
     12          6           0       -3.102579   -0.483318   -5.116000
     13          6           0       -4.217374   -0.223491   -5.926780
     14          1           0       -5.181926   -0.009110   -5.470302
     15          6           0       -1.874078   -0.780806   -5.725419
     16          1           0       -1.004943   -0.996719   -5.106898
     17          6           0       -4.107642   -0.261373   -7.317078
     18          1           0       -4.981406   -0.068565   -7.932630
     19          6           0       -1.764990   -0.818636   -7.117616
     20          1           0       -0.810762   -1.060530   -7.576606
     21          6           0       -2.880494   -0.558287   -7.914970
     22          1           0       -2.797124   -0.593635   -8.997101
     23          7           0       -3.404318    0.445476   -0.619301
     24          6           0       -2.965301    0.672416    0.784470
     25          1           0       -3.274545    1.668628    1.112529
     26          6           0       -1.433301    0.645505    0.938827
     27          6           0       -3.701071   -0.434605    1.564566
     28          1           0       -3.098671   -1.350431    1.579855
     29          1           0       -3.886264   -0.137044    2.598602
     30          8           0       -0.879242    1.299043    1.806350
     31          6           0       -4.985171   -0.651100    0.750636
     32          1           0       -5.467395   -1.611151    0.952162
     33          1           0       -5.709217    0.143558    0.961366
     34          6           0       -4.502793   -0.548082   -0.703947
     35          1           0       -5.286802   -0.205775   -1.384786
     36          1           0       -4.125028   -1.513501   -1.059882
     37          7           0       -0.764429   -0.182091    0.072055
     38          1           0       -1.285193   -0.512121   -0.729030
     39          6           0        0.651551    0.039364   -0.185754
     40          1           0        0.867584    1.069282    0.136098
     41          6           0        0.858749    0.012484   -1.714936
     42          6           0        1.592555   -0.899859    0.608591
     43          1           0        1.835093   -1.779914    0.000910
     44          1           0        1.029143   -1.272134    1.467923
     45          8           0       -0.122549    0.098616   -2.466501
     46          6           0        2.865843   -0.174986    1.097598
     47          1           0        3.089553    0.667915    0.431256
     48          1           0        2.660552    0.279533    2.073114
     49          6           0        4.119148   -1.055864    1.200730
     50          1           0        3.982971   -1.841151    1.954517
     51          1           0        4.952037   -0.434786    1.556177
     52          6           0        4.514744   -1.725821   -0.122026
     53          1           0        5.532148   -2.129765   -0.043896
     54          1           0        3.854437   -2.570211   -0.345147
     55          7           0        4.392401   -0.777238   -1.259076
     56          1           0        4.731957   -1.219420   -2.114416
     57          1           0        5.000477    0.029184   -1.105047
     58          1           0        2.899033   -0.299170   -1.639938
     59          8           0        2.056365   -0.068314   -2.220712
 ---------------------------------------------------------------------

 SCF Done:  E(RB3LYP) =  -1300.54692626     A.U. after    3 cycles

 Alpha  occ. eigenvalues --  -19.27789 -19.24990 -19.24910 -19.20742 -14.56847
 Alpha  occ. eigenvalues --  -14.49365 -14.45647 -14.44961 -10.43307 -10.42369
 Alpha  occ. eigenvalues --  -10.39434 -10.38037 -10.34636 -10.33734 -10.33601
 Alpha  occ. eigenvalues --  -10.32626 -10.31686 -10.31003 -10.29949 -10.29651
 Alpha  occ. eigenvalues --  -10.29637 -10.29559 -10.29161 -10.29153 -10.28922
 Alpha  occ. eigenvalues --  -10.28408 -10.27990 -10.27796  -1.19874  -1.17692
 Alpha  occ. eigenvalues --   -1.12835  -1.11856  -1.10981  -1.06636  -1.01819
 Alpha  occ. eigenvalues --   -1.00974  -0.96446  -0.92357  -0.90268  -0.89851
 Alpha  occ. eigenvalues --   -0.86887  -0.85121  -0.84732  -0.84187  -0.79278
 Alpha  occ. eigenvalues --   -0.78693  -0.76273  -0.73574  -0.72665  -0.71817
 Alpha  occ. eigenvalues --   -0.71188  -0.70730  -0.69872  -0.68964  -0.68508
 Alpha  occ. eigenvalues --   -0.67444  -0.67021  -0.64554  -0.62471  -0.61651
 Alpha  occ. eigenvalues --   -0.61563  -0.61129  -0.60811  -0.58732  -0.57912
 Alpha  occ. eigenvalues --   -0.57337  -0.56756  -0.56113  -0.55981  -0.54974
 Alpha  occ. eigenvalues --   -0.54705  -0.53971  -0.53848  -0.53145  -0.52954
 Alpha  occ. eigenvalues --   -0.52295  -0.52206  -0.51978  -0.51449  -0.51221
 Alpha  occ. eigenvalues --   -0.49950  -0.49480  -0.48912  -0.48108  -0.47488
 Alpha  occ. eigenvalues --   -0.46933  -0.46478  -0.46189  -0.46129  -0.44853
 Alpha  occ. eigenvalues --   -0.44598  -0.44424  -0.44311  -0.43267  -0.42806
 Alpha  occ. eigenvalues --   -0.42343  -0.41514  -0.39354  -0.39248  -0.37700
 Alpha  occ. eigenvalues --   -0.37487  -0.35454  -0.35145  -0.35063  -0.34029
 Alpha virt. eigenvalues --   -0.12562  -0.10920  -0.10743  -0.10388  -0.07175
 Alpha virt. eigenvalues --   -0.05808  -0.04095  -0.03592  -0.02231  -0.01533
 Alpha virt. eigenvalues --   -0.00361  -0.00150   0.00683   0.01177   0.01786

 Mulliken charges:
               1
     1  N   -0.755904
     2  H    0.418136
     3  H    0.404741
     4  H    0.448679
     5  C   -0.110357
     6  H    0.215989
     7  C    0.628231
     8  C   -0.381322
     9  H    0.194891
    10  H    0.187746
    11  O   -0.523119
    12  C    0.119641
    13  C   -0.185261
    14  H    0.137401
    15  C   -0.215023
    16  H    0.158321
    17  C   -0.125595
    18  H    0.161697
    19  C   -0.125497
    20  H    0.159438
    21  C   -0.124360
    22  H    0.162955
    23  N   -0.493111
    24  C   -0.020316
    25  H    0.205141
    26  C    0.604478
    27  C   -0.312458
    28  H    0.168824
    29  H    0.195786
    30  O   -0.497376
    31  C   -0.301979
    32  H    0.180710
    33  H    0.176046
    34  C   -0.142439
    35  H    0.172919
    36  H    0.174628
    37  N   -0.606707
    38  H    0.338423
    39  C   -0.061879
    40  H    0.213138
    41  C    0.604683
    42  C   -0.283243
    43  H    0.143311
    44  H    0.184976
    45  O   -0.553794
    46  C   -0.281131
    47  H    0.134660
    48  H    0.179904
    49  C   -0.285028
    50  H    0.166054
    51  H    0.156887
    52  C   -0.145517
    53  H    0.167111
    54  H    0.166308
    55  N   -0.791031
    56  H    0.348003
    57  H    0.341775
    58  H    0.493266
    59  O   -0.592450
 Sum of Mulliken charges =   1.00000

 Dipole moment (field-independent basis, Debye):
    X=             -4.8094    Y=             -1.1810    Z=            -13.2015  Tot=             14.0998
 Quadrupole moment (field-independent basis, Debye-Ang):
   XX=            -69.2033   YY=           -157.6869   ZZ=            -95.2577
   XY=            -10.4845   XZ=             28.3690   YZ=            -16.4445

 Normal termination of Gaussian 16 at Wed May 25 07:50:33 2022.
