 Gaussian 16, Revision C.01,
 Gaussian 16:  ES64L-G16RevC.01  3-Jul-2019

 -------------------------------------------------------------------
 # B3LYP/6-31G* guess=read geom=check nosymm integral(ultrafinegrid)
 -------------------------------------------------------------------

 -----------------------------------------------------
 Candidate Structure: Conf:14 Charge calc in gas phase
 -----------------------------------------------------
 Structure from the checkpoint file:  "conf-14.chk"
 Charge =  1 Multiplicity = 1

                          Input orientation:
 ---------------------------------------------------------------------
 Center     Atomic      Atomic             Coordinates (Angstroms)
 Number     Number       Type             X           Y           Z
 ---------------------------------------------------------------------
      1          7           0       -5.307139    2.702887    3.048966
      2          1           0       -6.304751    2.738385    2.827306
      3          1           0       -5.124003    3.152550    3.960356
      4          1           0       -4.976147    1.694132    3.090997
      5          6           0       -4.417195    3.270974    1.966937
      6          1           0       -5.047011    3.800390    1.249603
      7          6           0       -3.783510    2.003325    1.342285
      8          6           0       -3.349947    4.240609    2.582255
      9          1           0       -2.469934    4.210853    1.934606
     10          1           0       -3.756446    5.256570    2.545733
     11          8           0       -3.848838    0.954699    2.004736
     12          6           0       -2.955069    3.893992    4.003831
     13          6           0       -3.594282    4.531561    5.082063
     14          1           0       -4.310067    5.330720    4.891939
     15          6           0       -1.986714    2.912112    4.265414
     16          1           0       -1.475438    2.426451    3.438116
     17          6           0       -3.275781    4.191397    6.400607
     18          1           0       -3.765782    4.702191    7.224289
     19          6           0       -1.669990    2.580982    5.583060
     20          1           0       -0.911931    1.827969    5.778250
     21          6           0       -2.314224    3.212599    6.650738
     22          1           0       -2.059158    2.950163    7.673180
     23          7           0       -3.197048    2.106627    0.149091
     24          6           0       -2.352635    1.011802   -0.348993
     25          1           0       -2.870666    0.057036   -0.226333
     26          6           0       -1.028923    0.989682    0.461018
     27          6           0       -2.133645    1.394187   -1.827852
     28          1           0       -1.218446    0.961971   -2.239904
     29          1           0       -2.976078    1.034228   -2.428523
     30          8           0       -0.739199    1.889045    1.251716
     31          6           0       -2.106140    2.930800   -1.788311
     32          1           0       -1.127237    3.283392   -1.449134
     33          1           0       -2.315662    3.388724   -2.757788
     34          6           0       -3.175274    3.288850   -0.743675
     35          1           0       -4.162535    3.414510   -1.206129
     36          1           0       -2.926526    4.202701   -0.198845
     37          7           0       -0.244416   -0.073285    0.196410
     38          1           0       -0.440813   -0.660705   -0.611752
     39          6           0        1.152858   -0.148237    0.617576
     40          1           0        1.611437    0.834998    0.436030
     41          6           0        1.821372   -1.137706   -0.370750
     42          6           0        1.340082   -0.489603    2.112746
     43          1           0        1.442750   -1.573830    2.234034
     44          1           0        0.425905   -0.209683    2.643287
     45          8           0        2.996036   -1.656230   -0.058433
     46          6           0        2.539404    0.260163    2.736851
     47          1           0        3.298815    0.455660    1.967573
     48          1           0        2.188772    1.247680    3.058411
     49          6           0        3.217239   -0.477371    3.908067
     50          1           0        2.486311   -1.107677    4.434763
     51          1           0        3.585727    0.240468    4.650532
     52          6           0        4.413402   -1.323121    3.458464
     53          1           0        5.190636   -0.659309    3.062784
     54          1           0        4.847607   -1.852665    4.318486
     55          7           0        4.046961   -2.250474    2.364190
     56          1           0        4.884729   -2.706307    2.001534
     57          1           0        3.284770   -1.658712    0.914640
     58          1           0        3.461924   -3.003814    2.728141
     59          8           0        1.277415   -1.381821   -1.432923
 ---------------------------------------------------------------------

 SCF Done:  E(RB3LYP) =  -1300.53539529     A.U. after    1 cycles

 Alpha  occ. eigenvalues --  -19.26176 -19.24197 -19.21743 -19.20209 -14.58694
 Alpha  occ. eigenvalues --  -14.49833 -14.44996 -14.42873 -10.42849 -10.40450
 Alpha  occ. eigenvalues --  -10.38928 -10.38621 -10.34805 -10.34419 -10.33466
 Alpha  occ. eigenvalues --  -10.32162 -10.31573 -10.30525 -10.30133 -10.30075
 Alpha  occ. eigenvalues --  -10.29903 -10.29858 -10.29539 -10.29480 -10.29378
 Alpha  occ. eigenvalues --  -10.27260 -10.26814 -10.26731  -1.18686  -1.15918
 Alpha  occ. eigenvalues --   -1.13512  -1.12738  -1.07864  -1.07452  -1.01678
 Alpha  occ. eigenvalues --   -0.98498  -0.96958  -0.93233  -0.90852  -0.88753
 Alpha  occ. eigenvalues --   -0.87081  -0.85817  -0.85165  -0.83290  -0.79462
 Alpha  occ. eigenvalues --   -0.78045  -0.76453  -0.73429  -0.72405  -0.71863
 Alpha  occ. eigenvalues --   -0.71160  -0.70735  -0.69723  -0.69281  -0.67682
 Alpha  occ. eigenvalues --   -0.66684  -0.66340  -0.64423  -0.63044  -0.62619
 Alpha  occ. eigenvalues --   -0.61019  -0.60280  -0.58936  -0.58200  -0.57432
 Alpha  occ. eigenvalues --   -0.56983  -0.56588  -0.56174  -0.55443  -0.55250
 Alpha  occ. eigenvalues --   -0.54342  -0.53793  -0.52949  -0.52774  -0.52306
 Alpha  occ. eigenvalues --   -0.51738  -0.51660  -0.51399  -0.50719  -0.50328
 Alpha  occ. eigenvalues --   -0.49880  -0.49488  -0.48767  -0.47540  -0.46970
 Alpha  occ. eigenvalues --   -0.46720  -0.46399  -0.45360  -0.45202  -0.45001
 Alpha  occ. eigenvalues --   -0.44642  -0.44134  -0.43447  -0.41915  -0.41792
 Alpha  occ. eigenvalues --   -0.41302  -0.40700  -0.37948  -0.37362  -0.36142
 Alpha  occ. eigenvalues --   -0.35749  -0.35642  -0.35487  -0.34760  -0.33761
 Alpha virt. eigenvalues --   -0.12719  -0.11936  -0.11254  -0.09351  -0.08025
 Alpha virt. eigenvalues --   -0.05880  -0.04351  -0.02971  -0.01895  -0.01809
 Alpha virt. eigenvalues --   -0.01099  -0.00432   0.00433   0.01036   0.01450

 Mulliken charges:
               1
     1  N   -0.764014
     2  H    0.407511
     3  H    0.404829
     4  H    0.433215
     5  C   -0.098113
     6  H    0.205838
     7  C    0.640495
     8  C   -0.383571
     9  H    0.225228
    10  H    0.185018
    11  O   -0.544012
    12  C    0.089377
    13  C   -0.225265
    14  H    0.145276
    15  C   -0.179819
    16  H    0.205178
    17  C   -0.120712
    18  H    0.163232
    19  C   -0.131539
    20  H    0.157516
    21  C   -0.122411
    22  H    0.163769
    23  N   -0.427634
    24  C   -0.090731
    25  H    0.203082
    26  C    0.639195
    27  C   -0.305862
    28  H    0.195798
    29  H    0.175849
    30  O   -0.543464
    31  C   -0.313383
    32  H    0.186979
    33  H    0.183440
    34  C   -0.140030
    35  H    0.175563
    36  H    0.176722
    37  N   -0.614873
    38  H    0.362606
    39  C   -0.047820
    40  H    0.191979
    41  C    0.585432
    42  C   -0.285438
    43  H    0.144875
    44  H    0.168820
    45  O   -0.610412
    46  C   -0.278559
    47  H    0.147647
    48  H    0.158227
    49  C   -0.273571
    50  H    0.141583
    51  H    0.156248
    52  C   -0.145546
    53  H    0.165788
    54  H    0.151878
    55  N   -0.771529
    56  H    0.343083
    57  H    0.484530
    58  H    0.328471
    59  O   -0.475973
 Sum of Mulliken charges =   1.00000

 Dipole moment (field-independent basis, Debye):
    X=            -14.4308    Y=             11.4593    Z=             13.7242  Tot=             22.9765
 Quadrupole moment (field-independent basis, Debye-Ang):
   XX=            -43.7053   YY=           -113.2695   ZZ=           -100.5144
   XY=            -72.5864   XZ=            -22.2452   YZ=             17.2942

 Normal termination of Gaussian 16 at Wed May 25 07:50:07 2022.
