 Gaussian 16, Revision C.01,
 Gaussian 16:  ES64L-G16RevC.01  3-Jul-2019

 -------------------------------------------------------------------
 # B3LYP/6-31G* guess=read geom=check nosymm integral(ultrafinegrid)
 -------------------------------------------------------------------

 ------------------------------------------------------
 Candidate Structure: Conf:472 Charge calc in gas phase
 ------------------------------------------------------
 Structure from the checkpoint file:  "conf-472.chk"
 Charge =  1 Multiplicity = 1

                          Input orientation:
 ---------------------------------------------------------------------
 Center     Atomic      Atomic             Coordinates (Angstroms)
 Number     Number       Type             X           Y           Z
 ---------------------------------------------------------------------
      1          7           0       -5.200949    4.304256   -0.532520
      2          1           0       -6.162748    3.953681   -0.527377
      3          1           0       -5.186713    5.255213   -0.936052
      4          1           0       -4.836046    4.283111    0.447814
      5          6           0       -4.230021    3.407465   -1.285147
      6          1           0       -4.782540    2.936701   -2.100498
      7          6           0       -3.784428    2.406208   -0.192233
      8          6           0       -3.092854    4.310559   -1.823261
      9          1           0       -2.548142    4.734369   -0.971234
     10          1           0       -2.346739    3.680839   -2.323198
     11          8           0       -3.797879    2.817374    0.978891
     12          6           0       -3.643163    5.407878   -2.709105
     13          6           0       -4.069462    5.133264   -4.018319
     14          1           0       -3.948148    4.131090   -4.424213
     15          6           0       -3.779465    6.717858   -2.219501
     16          1           0       -3.398149    6.963370   -1.229341
     17          6           0       -4.616051    6.138404   -4.814040
     18          1           0       -4.926746    5.912833   -5.830196
     19          6           0       -4.331113    7.726805   -3.017124
     20          1           0       -4.412294    8.737770   -2.628325
     21          6           0       -4.753404    7.437030   -4.313320
     22          1           0       -5.174872    8.219238   -4.937637
     23          7           0       -3.442242    1.155901   -0.532336
     24          6           0       -2.998617    0.205066    0.514675
     25          1           0       -3.713394    0.208437    1.339651
     26          6           0       -1.650988    0.638206    1.135414
     27          6           0       -2.971057   -1.140298   -0.243648
     28          1           0       -2.233810   -1.832990    0.170561
     29          1           0       -3.954530   -1.615441   -0.159993
     30          8           0       -1.532536    0.578133    2.382257
     31          6           0       -2.679409   -0.760072   -1.707448
     32          1           0       -1.604274   -0.645907   -1.874263
     33          1           0       -3.042730   -1.510562   -2.413815
     34          6           0       -3.385974    0.593115   -1.902137
     35          1           0       -4.403781    0.459858   -2.290238
     36          1           0       -2.819349    1.255581   -2.559979
     37          7           0       -0.723053    1.053464    0.273644
     38          1           0       -1.007281    1.143249   -0.721299
     39          6           0        0.187434    2.203981    0.442818
     40          1           0       -0.116846    2.761111    1.333153
     41          6           0       -0.121556    3.120294   -0.817204
     42          6           0        1.674200    1.838655    0.504420
     43          1           0        2.235037    2.780464    0.517243
     44          1           0        1.949488    1.318563   -0.420959
     45          8           0        0.238137    4.296229   -0.733416
     46          6           0        2.056040    0.959931    1.706275
     47          1           0        1.440578    0.049753    1.651754
     48          1           0        3.096488    0.625937    1.611715
     49          6           0        1.864739    1.674151    3.059244
     50          1           0        1.019119    2.368268    3.007752
     51          1           0        2.743695    2.286697    3.290527
     52          6           0        1.627111    0.747588    4.247339
     53          1           0        2.472665    0.083981    4.447115
     54          1           0        1.414751    1.317102    5.154880
     55          7           0        0.414837   -0.137946    3.995884
     56          1           0       -0.067115   -0.377535    4.866429
     57          1           0        0.690879   -1.019386    3.556604
     58          1           0       -0.313869    0.303879    3.320618
     59          8           0       -0.737622    2.509658   -1.755938
 ---------------------------------------------------------------------

 SCF Done:  E(RB3LYP) =  -1300.50523985     A.U. after    2 cycles

 Alpha  occ. eigenvalues --  -19.24676 -19.23304 -19.14786 -19.13328 -14.57825
 Alpha  occ. eigenvalues --  -14.56272 -14.48897 -14.43668 -10.41615 -10.39299
 Alpha  occ. eigenvalues --  -10.38472 -10.36900 -10.34032 -10.33264 -10.32165
 Alpha  occ. eigenvalues --  -10.30098 -10.30061 -10.29539 -10.29480 -10.29239
 Alpha  occ. eigenvalues --  -10.29129 -10.28529 -10.28482 -10.28206 -10.28090
 Alpha  occ. eigenvalues --  -10.28020 -10.27765 -10.26316  -1.17187  -1.13864
 Alpha  occ. eigenvalues --   -1.11948  -1.10859  -1.07575  -1.06373  -1.01176
 Alpha  occ. eigenvalues --   -0.98473  -0.95056  -0.91646  -0.91032  -0.89393
 Alpha  occ. eigenvalues --   -0.86766  -0.85139  -0.84051  -0.83499  -0.79462
 Alpha  occ. eigenvalues --   -0.77564  -0.75680  -0.74104  -0.71952  -0.71175
 Alpha  occ. eigenvalues --   -0.70765  -0.70449  -0.69590  -0.69279  -0.68511
 Alpha  occ. eigenvalues --   -0.67564  -0.66943  -0.65287  -0.62828  -0.61648
 Alpha  occ. eigenvalues --   -0.61084  -0.60747  -0.59991  -0.58451  -0.57499
 Alpha  occ. eigenvalues --   -0.56190  -0.55699  -0.55663  -0.54886  -0.54533
 Alpha  occ. eigenvalues --   -0.54150  -0.53772  -0.52734  -0.52184  -0.51702
 Alpha  occ. eigenvalues --   -0.51004  -0.50959  -0.50649  -0.50391  -0.49480
 Alpha  occ. eigenvalues --   -0.48595  -0.48182  -0.47645  -0.47112  -0.46309
 Alpha  occ. eigenvalues --   -0.46120  -0.45381  -0.45043  -0.44593  -0.44178
 Alpha  occ. eigenvalues --   -0.43751  -0.43304  -0.42962  -0.42747  -0.42018
 Alpha  occ. eigenvalues --   -0.40476  -0.39085  -0.38715  -0.35880  -0.35531
 Alpha  occ. eigenvalues --   -0.34378  -0.33845  -0.29803  -0.29558  -0.27096
 Alpha virt. eigenvalues --   -0.11857  -0.10086  -0.09566  -0.09218  -0.08821
 Alpha virt. eigenvalues --   -0.07966  -0.04046  -0.02802  -0.01231  -0.01088
 Alpha virt. eigenvalues --   -0.00003   0.00148   0.00467   0.00754   0.01198

 Mulliken charges:
               1
     1  N   -0.744972
     2  H    0.406140
     3  H    0.401723
     4  H    0.421603
     5  C   -0.119720
     6  H    0.195918
     7  C    0.649815
     8  C   -0.410694
     9  H    0.202199
    10  H    0.271952
    11  O   -0.546220
    12  C    0.143139
    13  C   -0.179542
    14  H    0.140358
    15  C   -0.228258
    16  H    0.151907
    17  C   -0.123435
    18  H    0.157801
    19  C   -0.120455
    20  H    0.158593
    21  C   -0.126329
    22  H    0.159722
    23  N   -0.458171
    24  C   -0.052796
    25  H    0.194162
    26  C    0.610956
    27  C   -0.301225
    28  H    0.171728
    29  H    0.173427
    30  O   -0.601469
    31  C   -0.326483
    32  H    0.192450
    33  H    0.179665
    34  C   -0.151318
    35  H    0.163351
    36  H    0.219726
    37  N   -0.593401
    38  H    0.387719
    39  C   -0.095186
    40  H    0.158059
    41  C    0.603833
    42  C   -0.263073
    43  H    0.181019
    44  H    0.158717
    45  O   -0.554892
    46  C   -0.280794
    47  H    0.112756
    48  H    0.162958
    49  C   -0.290989
    50  H    0.178927
    51  H    0.188543
    52  C   -0.184705
    53  H    0.200862
    54  H    0.206267
    55  N   -0.772676
    56  H    0.401203
    57  H    0.397799
    58  H    0.458790
    59  O   -0.636985
 Sum of Mulliken charges =   1.00000

 Dipole moment (field-independent basis, Debye):
    X=            -15.3361    Y=              5.5405    Z=              7.2583  Tot=             17.8487
 Quadrupole moment (field-independent basis, Debye-Ang):
   XX=            -59.8696   YY=           -111.6081   ZZ=           -100.2253
   XY=            -72.6286   XZ=             45.2936   YZ=            -17.1800

 Normal termination of Gaussian 16 at Wed May 25 07:50:16 2022.
