 Gaussian 16, Revision C.01,
 Gaussian 16:  ES64L-G16RevC.01  3-Jul-2019

 -------------------------------------------------------------------
 # B3LYP/6-31G* guess=read geom=check nosymm integral(ultrafinegrid)
 -------------------------------------------------------------------

 ------------------------------------------------------
 Candidate Structure: Conf:306 Charge calc in gas phase
 ------------------------------------------------------
 Structure from the checkpoint file:  "conf-306.chk"
 Charge =  1 Multiplicity = 1

                          Input orientation:
 ---------------------------------------------------------------------
 Center     Atomic      Atomic             Coordinates (Angstroms)
 Number     Number       Type             X           Y           Z
 ---------------------------------------------------------------------
      1          7           0       -4.877374    2.574763    3.195419
      2          1           0       -5.814131    2.183041    3.061394
      3          1           0       -4.913818    3.271389    3.944610
      4          1           0       -4.203588    1.779928    3.424094
      5          6           0       -4.258989    3.111666    1.913222
      6          1           0       -5.064081    3.405765    1.238546
      7          6           0       -3.440786    1.881791    1.429905
      8          6           0       -3.358293    4.322376    2.274606
      9          1           0       -3.931102    4.961068    2.962719
     10          1           0       -2.484624    3.948580    2.820031
     11          8           0       -3.119544    1.069640    2.319734
     12          6           0       -2.926407    5.156991    1.085642
     13          6           0       -1.638273    5.028931    0.550493
     14          1           0       -0.949787    4.297170    0.961929
     15          6           0       -3.817181    6.081831    0.522254
     16          1           0       -4.812199    6.208554    0.946397
     17          6           0       -1.253685    5.815893   -0.537861
     18          1           0       -0.250835    5.715198   -0.942862
     19          6           0       -3.432464    6.862474   -0.567304
     20          1           0       -4.128141    7.580962   -0.990888
     21          6           0       -2.147299    6.730209   -1.099100
     22          1           0       -1.842142    7.344446   -1.941296
     23          7           0       -3.104687    1.746476    0.151361
     24          6           0       -2.155398    0.680146   -0.230104
     25          1           0       -2.590442   -0.289730    0.035818
     26          6           0       -0.804290    0.868394    0.496192
     27          6           0       -2.022943    0.848920   -1.762517
     28          1           0       -1.163810    1.490377   -1.987327
     29          1           0       -1.869316   -0.109148   -2.264256
     30          8           0       -0.445064    1.967262    0.912733
     31          6           0       -3.325813    1.549800   -2.177391
     32          1           0       -3.243026    2.069884   -3.135099
     33          1           0       -4.147270    0.828331   -2.251158
     34          6           0       -3.574748    2.522747   -1.019620
     35          1           0       -4.627234    2.796615   -0.906036
     36          1           0       -2.981890    3.434669   -1.128168
     37          7           0       -0.063159   -0.253781    0.567461
     38          1           0       -0.368038   -1.122224    0.135438
     39          6           0        1.321249   -0.277336    1.021573
     40          1           0        1.853630    0.579127    0.590845
     41          6           0        1.940694   -1.571666    0.495184
     42          6           0        1.483589   -0.184747    2.563250
     43          1           0        1.056152    0.777930    2.863454
     44          1           0        2.558830   -0.124995    2.759352
     45          8           0        3.218811   -1.675196    0.824565
     46          6           0        0.832143   -1.287100    3.424392
     47          1           0        0.969231   -0.989457    4.473076
     48          1           0       -0.252258   -1.272761    3.252542
     49          6           0        1.311213   -2.749703    3.260765
     50          1           0        1.058784   -3.107001    2.257887
     51          1           0        0.713414   -3.362827    3.946084
     52          6           0        2.812976   -3.020251    3.526198
     53          1           0        3.367671   -2.082076    3.626097
     54          1           0        2.937133   -3.565065    4.471668
     55          7           0        3.436218   -3.758141    2.394559
     56          1           0        4.393717   -4.019055    2.630244
     57          1           0        3.410483   -2.636811    1.139584
     58          1           0        2.934667   -4.628829    2.220086
     59          8           0        1.277615   -2.427374   -0.070169
 ---------------------------------------------------------------------

 SCF Done:  E(RB3LYP) =  -1300.53106141     A.U. after    1 cycles

 Alpha  occ. eigenvalues --  -19.26423 -19.23242 -19.20701 -19.20689 -14.60043
 Alpha  occ. eigenvalues --  -14.50207 -14.44611 -14.42186 -10.43219 -10.40975
 Alpha  occ. eigenvalues --  -10.38517 -10.38126 -10.34381 -10.34220 -10.33830
 Alpha  occ. eigenvalues --  -10.31149 -10.30444 -10.30070 -10.30012 -10.29216
 Alpha  occ. eigenvalues --  -10.29203 -10.28590 -10.28400 -10.28300 -10.28246
 Alpha  occ. eigenvalues --  -10.26144 -10.26042 -10.25849  -1.19163  -1.15752
 Alpha  occ. eigenvalues --   -1.13926  -1.12444  -1.07521  -1.07405  -1.01152
 Alpha  occ. eigenvalues --   -0.97519  -0.96280  -0.93058  -0.90904  -0.88092
 Alpha  occ. eigenvalues --   -0.86417  -0.85156  -0.84033  -0.82507  -0.79714
 Alpha  occ. eigenvalues --   -0.77524  -0.76554  -0.73858  -0.73189  -0.71693
 Alpha  occ. eigenvalues --   -0.71144  -0.70346  -0.70081  -0.67971  -0.66935
 Alpha  occ. eigenvalues --   -0.66199  -0.63972  -0.63652  -0.63404  -0.62699
 Alpha  occ. eigenvalues --   -0.60767  -0.59612  -0.58064  -0.57660  -0.57356
 Alpha  occ. eigenvalues --   -0.55990  -0.55807  -0.55637  -0.55302  -0.54192
 Alpha  occ. eigenvalues --   -0.53966  -0.53250  -0.52919  -0.52357  -0.52111
 Alpha  occ. eigenvalues --   -0.51514  -0.51187  -0.51100  -0.50615  -0.50255
 Alpha  occ. eigenvalues --   -0.49558  -0.48903  -0.48259  -0.46813  -0.46684
 Alpha  occ. eigenvalues --   -0.46489  -0.45523  -0.45239  -0.44761  -0.44353
 Alpha  occ. eigenvalues --   -0.44154  -0.43529  -0.43400  -0.41138  -0.40891
 Alpha  occ. eigenvalues --   -0.40379  -0.39561  -0.37950  -0.37111  -0.35035
 Alpha  occ. eigenvalues --   -0.34714  -0.34635  -0.34404  -0.34133  -0.33680
 Alpha virt. eigenvalues --   -0.12915  -0.11055  -0.10999  -0.09794  -0.06981
 Alpha virt. eigenvalues --   -0.06428  -0.06274  -0.03730  -0.02026  -0.01662
 Alpha virt. eigenvalues --   -0.00291  -0.00079   0.00429   0.00977   0.01909

 Mulliken charges:
               1
     1  N   -0.753674
     2  H    0.413524
     3  H    0.409904
     4  H    0.434172
     5  C   -0.108246
     6  H    0.205304
     7  C    0.654260
     8  C   -0.382626
     9  H    0.169315
    10  H    0.207583
    11  O   -0.555599
    12  C    0.144570
    13  C   -0.195590
    14  H    0.196803
    15  C   -0.184448
    16  H    0.124390
    17  C   -0.140922
    18  H    0.159419
    19  C   -0.128784
    20  H    0.156304
    21  C   -0.124161
    22  H    0.159392
    23  N   -0.438806
    24  C   -0.047996
    25  H    0.182849
    26  C    0.647307
    27  C   -0.315289
    28  H    0.183791
    29  H    0.185446
    30  O   -0.542064
    31  C   -0.298199
    32  H    0.183553
    33  H    0.167788
    34  C   -0.152029
    35  H    0.161919
    36  H    0.209276
    37  N   -0.617646
    38  H    0.355210
    39  C   -0.030186
    40  H    0.189451
    41  C    0.597925
    42  C   -0.277952
    43  H    0.167097
    44  H    0.167176
    45  O   -0.604753
    46  C   -0.279970
    47  H    0.144986
    48  H    0.144392
    49  C   -0.304489
    50  H    0.171565
    51  H    0.149338
    52  C   -0.141155
    53  H    0.168879
    54  H    0.153609
    55  N   -0.778113
    56  H    0.335317
    57  H    0.458322
    58  H    0.335051
    59  O   -0.492488
 Sum of Mulliken charges =   1.00000

 Dipole moment (field-independent basis, Debye):
    X=            -16.7207    Y=              8.9025    Z=              9.6478  Tot=             21.2583
 Quadrupole moment (field-independent basis, Debye-Ang):
   XX=            -52.6394   YY=            -98.2030   ZZ=           -113.6829
   XY=            -72.1950   XZ=            -26.8490   YZ=              0.5869

 Normal termination of Gaussian 16 at Wed May 25 07:50:06 2022.
