 Gaussian 16, Revision C.01,
 Gaussian 16:  ES64L-G16RevC.01  3-Jul-2019

 -------------------------------------------------------------------
 # B3LYP/6-31G* guess=read geom=check nosymm integral(ultrafinegrid)
 -------------------------------------------------------------------

 ------------------------------------------------------
 Candidate Structure: Conf:102 Charge calc in gas phase
 ------------------------------------------------------
 Structure from the checkpoint file:  "conf-102.chk"
 Charge =  1 Multiplicity = 1

                          Input orientation:
 ---------------------------------------------------------------------
 Center     Atomic      Atomic             Coordinates (Angstroms)
 Number     Number       Type             X           Y           Z
 ---------------------------------------------------------------------
      1          7           0       -4.872525    1.677219    4.401152
      2          1           0       -5.889319    1.756116    4.334165
      3          1           0       -4.546515    1.988806    5.327565
      4          1           0       -4.564057    0.664297    4.237620
      5          6           0       -4.129781    2.370537    3.282530
      6          1           0       -4.832487    3.012152    2.748429
      7          6           0       -3.655410    1.181279    2.408113
      8          6           0       -2.934045    3.211519    3.842849
      9          1           0       -2.169838    3.246380    3.062098
     10          1           0       -3.287053    4.233623    4.015292
     11          8           0       -3.668576    0.057451    2.947890
     12          6           0       -2.337042    2.650660    5.117971
     13          6           0       -2.753558    3.148828    6.364737
     14          1           0       -3.442991    3.991353    6.407442
     15          6           0       -1.400414    1.605550    5.075118
     16          1           0       -1.060527    1.229220    4.112737
     17          6           0       -2.250415    2.610110    7.552969
     18          1           0       -2.570819    3.014053    8.508942
     19          6           0       -0.900758    1.075699    6.264923
     20          1           0       -0.171071    0.271524    6.225387
     21          6           0       -1.324566    1.568511    7.502351
     22          1           0       -0.928001    1.149627    8.422824
     23          7           0       -3.264426    1.432959    1.165643
     24          6           0       -2.512051    0.430953    0.392179
     25          1           0       -2.987010   -0.548201    0.492973
     26          6           0       -1.053067    0.368724    0.936595
     27          6           0       -2.574028    0.991681   -1.044628
     28          1           0       -1.750637    0.632895   -1.671457
     29          1           0       -3.523381    0.700875   -1.509364
     30          8           0       -0.687194    1.101964    1.864164
     31          6           0       -2.521312    2.510281   -0.817481
     32          1           0       -1.488441    2.826963   -0.642075
     33          1           0       -2.910074    3.084192   -1.662062
     34          6           0       -3.357919    2.730783    0.453539
     35          1           0       -4.409605    2.933833    0.213656
     36          1           0       -2.974351    3.553923    1.062165
     37          7           0       -0.278539   -0.504357    0.266191
     38          1           0       -0.642132   -0.805860   -0.656740
     39          6           0        1.147715   -0.264717    0.009848
     40          1           0        1.428085    0.705551    0.433106
     41          6           0        1.302623   -0.200060   -1.582129
     42          6           0        2.083013   -1.350312    0.535605
     43          1           0        3.037629   -1.172952    0.026256
     44          1           0        1.716668   -2.331955    0.202667
     45          8           0        2.457635    0.002746   -1.977988
     46          6           0        2.295045   -1.370894    2.053360
     47          1           0        2.613408   -0.376383    2.394875
     48          1           0        1.355492   -1.601647    2.572399
     49          6           0        3.373641   -2.408121    2.419883
     50          1           0        4.283488   -2.181320    1.845637
     51          1           0        3.037327   -3.408388    2.111709
     52          6           0        3.700701   -2.411222    3.902892
     53          1           0        4.067728   -1.443991    4.254905
     54          1           0        2.860382   -2.725612    4.526660
     55          7           0        4.832404   -3.412939    4.190164
     56          1           0        5.093947   -3.447211    5.182820
     57          1           0        5.671742   -3.167616    3.650491
     58          1           0        4.557948   -4.360051    3.901989
     59          8           0        0.223558   -0.397117   -2.213604
 ---------------------------------------------------------------------

 SCF Done:  E(RB3LYP) =  -1300.45348672     A.U. after    3 cycles

 Alpha  occ. eigenvalues --  -19.23798 -19.17648 -19.09151 -19.08033 -14.64118
 Alpha  occ. eigenvalues --  -14.56754 -14.47026 -14.38865 -10.40823 -10.40302
 Alpha  occ. eigenvalues --  -10.38404 -10.34155 -10.32434 -10.31881 -10.31692
 Alpha  occ. eigenvalues --  -10.30551 -10.30393 -10.29515 -10.29029 -10.28823
 Alpha  occ. eigenvalues --  -10.28768 -10.28204 -10.27845 -10.26954 -10.26408
 Alpha  occ. eigenvalues --  -10.25227 -10.24508 -10.23683  -1.17940  -1.16285
 Alpha  occ. eigenvalues --   -1.10875  -1.08739  -1.04527  -1.02111  -0.96309
 Alpha  occ. eigenvalues --   -0.95848  -0.93806  -0.93282  -0.91065  -0.87966
 Alpha  occ. eigenvalues --   -0.85553  -0.84893  -0.84218  -0.82929  -0.79253
 Alpha  occ. eigenvalues --   -0.77661  -0.76549  -0.76320  -0.73800  -0.71595
 Alpha  occ. eigenvalues --   -0.71444  -0.70935  -0.69594  -0.68203  -0.67918
 Alpha  occ. eigenvalues --   -0.67242  -0.65482  -0.63504  -0.61876  -0.61455
 Alpha  occ. eigenvalues --   -0.61181  -0.60863  -0.59451  -0.58822  -0.56507
 Alpha  occ. eigenvalues --   -0.55620  -0.54906  -0.54765  -0.54358  -0.54152
 Alpha  occ. eigenvalues --   -0.53838  -0.51941  -0.51721  -0.51292  -0.50436
 Alpha  occ. eigenvalues --   -0.50097  -0.49854  -0.49072  -0.48653  -0.48062
 Alpha  occ. eigenvalues --   -0.47254  -0.46511  -0.46027  -0.45666  -0.45300
 Alpha  occ. eigenvalues --   -0.44377  -0.44042  -0.43519  -0.42649  -0.42221
 Alpha  occ. eigenvalues --   -0.41523  -0.40545  -0.40190  -0.39435  -0.38484
 Alpha  occ. eigenvalues --   -0.38337  -0.36379  -0.35250  -0.35238  -0.34486
 Alpha  occ. eigenvalues --   -0.31640  -0.30667  -0.24237  -0.23918  -0.22079
 Alpha virt. eigenvalues --   -0.14642  -0.11093  -0.10890  -0.09403  -0.08021
 Alpha virt. eigenvalues --   -0.07810  -0.07759  -0.05478  -0.04103  -0.02501
 Alpha virt. eigenvalues --   -0.01957  -0.00861  -0.00357   0.00279   0.00599

 Mulliken charges:
               1
     1  N   -0.766921
     2  H    0.403033
     3  H    0.400531
     4  H    0.430233
     5  C   -0.098240
     6  H    0.203086
     7  C    0.640327
     8  C   -0.381278
     9  H    0.232973
    10  H    0.178809
    11  O   -0.558120
    12  C    0.085390
    13  C   -0.222273
    14  H    0.143354
    15  C   -0.174541
    16  H    0.217893
    17  C   -0.122757
    18  H    0.157657
    19  C   -0.131337
    20  H    0.132642
    21  C   -0.123207
    22  H    0.150745
    23  N   -0.419362
    24  C   -0.094360
    25  H    0.193903
    26  C    0.603637
    27  C   -0.326569
    28  H    0.247993
    29  H    0.153985
    30  O   -0.558925
    31  C   -0.314247
    32  H    0.188088
    33  H    0.174552
    34  C   -0.139713
    35  H    0.166509
    36  H    0.167931
    37  N   -0.581732
    38  H    0.351754
    39  C   -0.099300
    40  H    0.147953
    41  C    0.585956
    42  C   -0.261202
    43  H    0.176251
    44  H    0.135466
    45  O   -0.567259
    46  C   -0.266633
    47  H    0.151501
    48  H    0.155037
    49  C   -0.290777
    50  H    0.170186
    51  H    0.166029
    52  C   -0.205905
    53  H    0.225144
    54  H    0.220770
    55  N   -0.730817
    56  H    0.425294
    57  H    0.427754
    58  H    0.425864
    59  O   -0.602754
 Sum of Mulliken charges =   1.00000

 Dipole moment (field-independent basis, Debye):
    X=             -0.3005    Y=             -5.0179    Z=             34.5834  Tot=             34.9468
 Quadrupole moment (field-independent basis, Debye-Ang):
   XX=              3.2250   YY=            -91.2628   ZZ=            -37.0254
   XY=           -109.2329   XZ=             35.8362   YZ=            -30.3763

 Normal termination of Gaussian 16 at Wed May 25 07:50:25 2022.
