 Gaussian 16, Revision C.01,
 Gaussian 16:  ES64L-G16RevC.01  3-Jul-2019

 -------------------------------------------------------------------
 # B3LYP/6-31G* guess=read geom=check nosymm integral(ultrafinegrid)
 -------------------------------------------------------------------

 ------------------------------------------------------
 Candidate Structure: Conf:961 Charge calc in gas phase
 ------------------------------------------------------
 Structure from the checkpoint file:  "conf-961.chk"
 Charge =  1 Multiplicity = 1

                          Input orientation:
 ---------------------------------------------------------------------
 Center     Atomic      Atomic             Coordinates (Angstroms)
 Number     Number       Type             X           Y           Z
 ---------------------------------------------------------------------
      1          7           0       -5.016778    2.269241    3.443362
      2          1           0       -5.942369    2.149093    3.021457
      3          1           0       -5.123361    2.731564    4.350373
      4          1           0       -4.559251    1.311107    3.536237
      5          6           0       -4.025736    2.972093    2.527469
      6          1           0       -4.582548    3.627860    1.856377
      7          6           0       -3.357127    1.757447    1.821756
      8          6           0       -3.030532    3.773550    3.411523
      9          1           0       -3.617359    4.258596    4.205436
     10          1           0       -2.350761    3.062686    3.893358
     11          8           0       -3.384015    0.688023    2.460943
     12          6           0       -2.249079    4.844803    2.676255
     13          6           0       -2.862283    6.069084    2.371053
     14          1           0       -3.893264    6.252146    2.670424
     15          6           0       -0.911496    4.637722    2.314833
     16          1           0       -0.434414    3.686319    2.527554
     17          6           0       -2.154902    7.069065    1.704316
     18          1           0       -2.637956    8.015542    1.479719
     19          6           0       -0.203823    5.643706    1.652298
     20          1           0        0.835340    5.477938    1.382892
     21          6           0       -0.821735    6.856844    1.344278
     22          1           0       -0.266110    7.638100    0.833845
     23          7           0       -2.800246    1.891098    0.622983
     24          6           0       -1.984876    0.786784    0.083872
     25          1           0       -2.564742   -0.140666    0.101580
     26          6           0       -0.713965    0.606628    0.956798
     27          6           0       -1.662418    1.258847   -1.351977
     28          1           0       -0.715078    0.851690   -1.713323
     29          1           0       -2.452110    0.927941   -2.035699
     30          8           0       -0.355230    1.460729    1.764907
     31          6           0       -1.655538    2.791044   -1.232749
     32          1           0       -0.717071    3.136303   -0.788068
     33          1           0       -1.789690    3.296645   -2.192073
     34          6           0       -2.812279    3.076319   -0.268589
     35          1           0       -3.771977    3.115963   -0.800585
     36          1           0       -2.673350    3.998465    0.294526
     37          7           0       -0.049126   -0.540451    0.719962
     38          1           0       -0.336323   -1.184969   -0.012205
     39          6           0        1.256718   -0.847059    1.292767
     40          1           0        1.871460    0.059330    1.285536
     41          6           0        1.883210   -1.918880    0.409910
     42          6           0        1.178574   -1.360522    2.756681
     43          1           0        0.561167   -0.634648    3.296045
     44          1           0        2.185733   -1.294985    3.182205
     45          8           0        3.112243   -2.222138    0.779966
     46          6           0        0.613609   -2.785101    2.979681
     47          1           0        0.157868   -2.782271    3.976255
     48          1           0       -0.216936   -2.972123    2.285276
     49          6           0        1.625185   -3.972518    2.938682
     50          1           0        1.404721   -4.621133    3.793289
     51          1           0        2.637428   -3.588306    3.113792
     52          6           0        1.638283   -4.864991    1.666950
     53          1           0        1.396862   -5.900621    1.940047
     54          1           0        0.879459   -4.535283    0.953689
     55          7           0        2.939853   -4.811449    0.945498
     56          1           0        2.880126   -5.354098    0.084388
     57          1           0        3.673279   -5.240521    1.510219
     58          1           0        3.230875   -3.247726    0.638727
     59          8           0        1.237072   -2.495942   -0.455777
 ---------------------------------------------------------------------

 SCF Done:  E(RB3LYP) =  -1300.53037165     A.U. after    1 cycles

 Alpha  occ. eigenvalues --  -19.26217 -19.23108 -19.20879 -19.20564 -14.59977
 Alpha  occ. eigenvalues --  -14.49980 -14.44546 -14.42319 -10.43049 -10.40849
 Alpha  occ. eigenvalues --  -10.38324 -10.38134 -10.34282 -10.33974 -10.33731
 Alpha  occ. eigenvalues --  -10.31047 -10.30430 -10.29949 -10.29610 -10.29200
 Alpha  occ. eigenvalues --  -10.28951 -10.28572 -10.28344 -10.28269 -10.28216
 Alpha  occ. eigenvalues --  -10.26138 -10.25940 -10.25855  -1.18999  -1.15737
 Alpha  occ. eigenvalues --   -1.13842  -1.12536  -1.07327  -1.07186  -1.01118
 Alpha  occ. eigenvalues --   -0.97577  -0.96204  -0.92918  -0.90766  -0.87873
 Alpha  occ. eigenvalues --   -0.86207  -0.85073  -0.83997  -0.82404  -0.79624
 Alpha  occ. eigenvalues --   -0.77390  -0.76400  -0.73711  -0.73145  -0.71491
 Alpha  occ. eigenvalues --   -0.70744  -0.70226  -0.69638  -0.67917  -0.66975
 Alpha  occ. eigenvalues --   -0.66148  -0.64377  -0.63980  -0.62976  -0.62041
 Alpha  occ. eigenvalues --   -0.60699  -0.58559  -0.57888  -0.57724  -0.57544
 Alpha  occ. eigenvalues --   -0.56850  -0.55747  -0.55396  -0.55147  -0.54368
 Alpha  occ. eigenvalues --   -0.53817  -0.53283  -0.52943  -0.52510  -0.51759
 Alpha  occ. eigenvalues --   -0.51453  -0.51088  -0.50668  -0.50306  -0.49709
 Alpha  occ. eigenvalues --   -0.49304  -0.48738  -0.48301  -0.47561  -0.46767
 Alpha  occ. eigenvalues --   -0.45796  -0.45214  -0.45015  -0.44603  -0.44139
 Alpha  occ. eigenvalues --   -0.44109  -0.43476  -0.43303  -0.40924  -0.40579
 Alpha  occ. eigenvalues --   -0.40478  -0.39867  -0.37870  -0.37224  -0.34941
 Alpha  occ. eigenvalues --   -0.34686  -0.34628  -0.34499  -0.34076  -0.33534
 Alpha virt. eigenvalues --   -0.12870  -0.11049  -0.10819  -0.09778  -0.07239
 Alpha virt. eigenvalues --   -0.06317  -0.06008  -0.03087  -0.01685  -0.00957
 Alpha virt. eigenvalues --   -0.00301  -0.00095   0.00849   0.01381   0.02199

 Mulliken charges:
               1
     1  N   -0.752154
     2  H    0.413680
     3  H    0.408786
     4  H    0.433664
     5  C   -0.113389
     6  H    0.208607
     7  C    0.654063
     8  C   -0.379189
     9  H    0.167130
    10  H    0.211303
    11  O   -0.554548
    12  C    0.130477
    13  C   -0.183908
    14  H    0.123858
    15  C   -0.186904
    16  H    0.197766
    17  C   -0.127561
    18  H    0.156537
    19  C   -0.139838
    20  H    0.158601
    21  C   -0.123733
    22  H    0.159368
    23  N   -0.432985
    24  C   -0.078141
    25  H    0.191673
    26  C    0.649837
    27  C   -0.307048
    28  H    0.188346
    29  H    0.171746
    30  O   -0.540808
    31  C   -0.305468
    32  H    0.187718
    33  H    0.179076
    34  C   -0.151236
    35  H    0.168672
    36  H    0.200987
    37  N   -0.614873
    38  H    0.355388
    39  C   -0.038246
    40  H    0.187065
    41  C    0.606312
    42  C   -0.265796
    43  H    0.164725
    44  H    0.165549
    45  O   -0.604997
    46  C   -0.286414
    47  H    0.148942
    48  H    0.143216
    49  C   -0.283778
    50  H    0.152753
    51  H    0.159743
    52  C   -0.159196
    53  H    0.152560
    54  H    0.182892
    55  N   -0.777170
    56  H    0.341340
    57  H    0.333380
    58  H    0.461594
    59  O   -0.509970
 Sum of Mulliken charges =   1.00000

 Dipole moment (field-independent basis, Debye):
    X=            -15.7025    Y=              7.5006    Z=             10.1434  Tot=             20.1425
 Quadrupole moment (field-independent basis, Debye-Ang):
   XX=            -64.0893   YY=            -77.7174   ZZ=           -122.1085
   XY=            -67.2033   XZ=            -45.5298   YZ=             13.8060

 Normal termination of Gaussian 16 at Wed May 25 07:50:09 2022.
