 Gaussian 16, Revision C.01,
 Gaussian 16:  ES64L-G16RevC.01  3-Jul-2019

 -------------------------------------------------------------------
 # B3LYP/6-31G* guess=read geom=check nosymm integral(ultrafinegrid)
 -------------------------------------------------------------------

 ------------------------------------------------------
 Candidate Structure: Conf:367 Charge calc in gas phase
 ------------------------------------------------------
 Structure from the checkpoint file:  "conf-367.chk"
 Charge =  1 Multiplicity = 1

                          Input orientation:
 ---------------------------------------------------------------------
 Center     Atomic      Atomic             Coordinates (Angstroms)
 Number     Number       Type             X           Y           Z
 ---------------------------------------------------------------------
      1          7           0       -0.585512   -0.758697   -3.919073
      2          1           0        0.567939   -1.398145   -2.922943
      3          1           0       -0.203037   -0.143083   -4.635260
      4          1           0       -1.136264   -1.483311   -4.383441
      5          6           0       -1.490037   -0.011702   -3.022848
      6          1           0       -0.864611    0.585930   -2.352291
      7          6           0       -2.278687   -1.067969   -2.229606
      8          6           0       -2.442089    0.986056   -3.757397
      9          1           0       -3.109999    1.435659   -3.011130
     10          1           0       -1.812082    1.802353   -4.132518
     11          8           0       -2.628457   -2.108661   -2.779040
     12          6           0       -3.248048    0.406690   -4.900626
     13          6           0       -2.768214    0.488069   -6.215466
     14          1           0       -1.826043    0.996069   -6.413461
     15          6           0       -4.484092   -0.216015   -4.679825
     16          1           0       -4.880643   -0.282324   -3.669922
     17          6           0       -3.494847   -0.047668   -7.280098
     18          1           0       -3.108001    0.031713   -8.292321
     19          6           0       -5.214821   -0.749897   -5.740328
     20          1           0       -6.172547   -1.225850   -5.549055
     21          6           0       -4.720733   -0.670278   -7.043921
     22          1           0       -5.292113   -1.082991   -7.870538
     23          7           0       -2.585193   -0.823582   -0.915293
     24          6           0       -2.288830    0.375872   -0.114510
     25          1           0       -2.455889    1.293997   -0.684920
     26          6           0       -0.829407    0.489291    0.387037
     27          6           0       -3.295508    0.274213    1.054044
     28          1           0       -2.934239    0.799761    1.941102
     29          1           0       -4.243423    0.733096    0.752432
     30          8           0       -0.426196    1.545211    0.848702
     31          6           0       -3.471253   -1.240761    1.241152
     32          1           0       -2.630128   -1.651120    1.813025
     33          1           0       -4.392315   -1.501111    1.769222
     34          6           0       -3.453125   -1.781305   -0.193959
     35          1           0       -4.451598   -1.784098   -0.647783
     36          1           0       -3.054793   -2.795030   -0.284312
     37          7           0       -0.051319   -0.643719    0.275124
     38          1           0       -0.465787   -1.383366   -0.283419
     39          6           0        1.391652   -0.507058    0.040840
     40          1           0        1.679191    0.493284    0.370698
     41          6           0        1.598087   -0.575211   -1.484690
     42          6           0        2.211084   -1.572216    0.786135
     43          1           0        3.256997   -1.454222    0.469800
     44          1           0        1.889308   -2.569632    0.457693
     45          8           0        2.179747    0.277618   -2.119694
     46          6           0        2.075845   -1.444788    2.309074
     47          1           0        2.419007   -0.454153    2.636156
     48          1           0        1.015401   -1.501180    2.574826
     49          6           0        2.818819   -2.533731    3.108258
     50          1           0        2.475554   -3.526265    2.783757
     51          1           0        2.568327   -2.431289    4.173298
     52          6           0        4.330585   -2.434844    2.936723
     53          1           0        4.656045   -2.611757    1.909988
     54          1           0        4.725910   -1.473610    3.274839
     55          7           0        5.039223   -3.498327    3.783214
     56          1           0        6.061505   -3.450655    3.690175
     57          1           0        4.744565   -4.443448    3.507523
     58          1           0        4.810435   -3.388667    4.779078
     59          8           0        0.971793   -1.641147   -1.998555
 ---------------------------------------------------------------------

 SCF Done:  E(RB3LYP) =  -1300.50903447     A.U. after    1 cycles

 Alpha  occ. eigenvalues --  -19.23506 -19.20311 -19.19725 -19.19022 -14.66050
 Alpha  occ. eigenvalues --  -14.44465 -14.44002 -14.41772 -10.42862 -10.38277
 Alpha  occ. eigenvalues --  -10.36734 -10.36178 -10.35556 -10.31947 -10.31720
 Alpha  occ. eigenvalues --  -10.31609 -10.30960 -10.30253 -10.29535 -10.27278
 Alpha  occ. eigenvalues --  -10.26958 -10.26723 -10.25454 -10.24506 -10.24318
 Alpha  occ. eigenvalues --  -10.24223 -10.24134 -10.24047  -1.19894  -1.15452
 Alpha  occ. eigenvalues --   -1.11741  -1.11109  -1.07104  -1.02453  -1.00441
 Alpha  occ. eigenvalues --   -0.97963  -0.96459  -0.90879  -0.89394  -0.87486
 Alpha  occ. eigenvalues --   -0.84580  -0.84154  -0.82595  -0.79687  -0.79367
 Alpha  occ. eigenvalues --   -0.78651  -0.78490  -0.76082  -0.73744  -0.71291
 Alpha  occ. eigenvalues --   -0.70377  -0.68199  -0.67824  -0.67141  -0.66171
 Alpha  occ. eigenvalues --   -0.65889  -0.64250  -0.63757  -0.63187  -0.60844
 Alpha  occ. eigenvalues --   -0.60138  -0.58859  -0.57890  -0.56564  -0.56351
 Alpha  occ. eigenvalues --   -0.54473  -0.54440  -0.54119  -0.53675  -0.53356
 Alpha  occ. eigenvalues --   -0.52436  -0.52137  -0.51454  -0.51305  -0.50736
 Alpha  occ. eigenvalues --   -0.50151  -0.50023  -0.49555  -0.48407  -0.48145
 Alpha  occ. eigenvalues --   -0.47707  -0.47353  -0.47162  -0.46474  -0.45990
 Alpha  occ. eigenvalues --   -0.45185  -0.45021  -0.44271  -0.43611  -0.43176
 Alpha  occ. eigenvalues --   -0.42880  -0.42079  -0.41557  -0.41017  -0.39498
 Alpha  occ. eigenvalues --   -0.39286  -0.37582  -0.36385  -0.34928  -0.34770
 Alpha  occ. eigenvalues --   -0.32809  -0.31959  -0.31243  -0.30197  -0.29608
 Alpha virt. eigenvalues --   -0.16366  -0.09701  -0.09648  -0.07923  -0.07391
 Alpha virt. eigenvalues --   -0.06342  -0.05901  -0.05411  -0.05284  -0.03735
 Alpha virt. eigenvalues --   -0.02663  -0.01026  -0.00595   0.01147   0.01514

 Mulliken charges:
               1
     1  N   -0.781496
     2  H    0.464511
     3  H    0.336946
     4  H    0.361077
     5  C   -0.062071
     6  H    0.159016
     7  C    0.610583
     8  C   -0.389284
     9  H    0.161505
    10  H    0.167117
    11  O   -0.514452
    12  C    0.181085
    13  C   -0.199505
    14  H    0.121049
    15  C   -0.158968
    16  H    0.122787
    17  C   -0.125281
    18  H    0.140915
    19  C   -0.127100
    20  H    0.140396
    21  C   -0.127629
    22  H    0.142702
    23  N   -0.496145
    24  C   -0.051194
    25  H    0.188559
    26  C    0.585067
    27  C   -0.297638
    28  H    0.181483
    29  H    0.168422
    30  O   -0.497003
    31  C   -0.309476
    32  H    0.146138
    33  H    0.169852
    34  C   -0.112248
    35  H    0.173454
    36  H    0.175060
    37  N   -0.611143
    38  H    0.357547
    39  C   -0.047346
    40  H    0.200552
    41  C    0.573860
    42  C   -0.292374
    43  H    0.146356
    44  H    0.162254
    45  O   -0.461009
    46  C   -0.271080
    47  H    0.167238
    48  H    0.192555
    49  C   -0.296778
    50  H    0.170013
    51  H    0.169643
    52  C   -0.205516
    53  H    0.235141
    54  H    0.231975
    55  N   -0.731813
    56  H    0.433910
    57  H    0.428814
    58  H    0.428120
    59  O   -0.629155
 Sum of Mulliken charges =   1.00000

 Dipole moment (field-independent basis, Debye):
    X=             16.1165    Y=            -15.4898    Z=             14.5490  Tot=             26.6711
 Quadrupole moment (field-independent basis, Debye-Ang):
   XX=            -40.3764   YY=           -120.5089   ZZ=            -77.9887
   XY=            -75.1249   XZ=             89.3001   YZ=            -62.7095

 Normal termination of Gaussian 16 at Wed May 25 07:50:05 2022.
