 Gaussian 16, Revision C.01,
 Gaussian 16:  ES64L-G16RevC.01  3-Jul-2019

 -------------------------------------------------------------------
 # B3LYP/6-31G* guess=read geom=check nosymm integral(ultrafinegrid)
 -------------------------------------------------------------------

 ------------------------------------------------------
 Candidate Structure: Conf:962 Charge calc in gas phase
 ------------------------------------------------------
 Structure from the checkpoint file:  "conf-962.chk"
 Charge =  1 Multiplicity = 1

                          Input orientation:
 ---------------------------------------------------------------------
 Center     Atomic      Atomic             Coordinates (Angstroms)
 Number     Number       Type             X           Y           Z
 ---------------------------------------------------------------------
      1          7           0       -3.483370    3.979098   -1.863377
      2          1           0       -4.477940    4.194496   -1.752407
      3          1           0       -3.073216    4.611774   -2.567349
      4          1           0       -3.015994    4.061536   -0.926012
      5          6           0       -3.212311    2.530341   -2.231164
      6          1           0       -4.031322    2.186901   -2.863462
      7          6           0       -3.122494    1.841802   -0.850528
      8          6           0       -1.858315    2.484417   -2.979347
      9          1           0       -1.092492    2.865419   -2.291595
     10          1           0       -1.576652    1.435857   -3.166984
     11          8           0       -2.695278    2.548002    0.077608
     12          6           0       -1.898220    3.317468   -4.242057
     13          6           0       -2.507758    2.825354   -5.406559
     14          1           0       -2.894859    1.809075   -5.419450
     15          6           0       -1.368978    4.618925   -4.260000
     16          1           0       -0.834474    4.995118   -3.388118
     17          6           0       -2.590828    3.613959   -6.552644
     18          1           0       -3.053099    3.213039   -7.450238
     19          6           0       -1.455131    5.412516   -5.409301
     20          1           0       -1.026540    6.410659   -5.409513
     21          6           0       -2.070653    4.912137   -6.555213
     22          1           0       -2.133352    5.522173   -7.451494
     23          7           0       -3.456295    0.553577   -0.723932
     24          6           0       -3.144884   -0.177347    0.536921
     25          1           0       -3.537920    0.387842    1.383843
     26          6           0       -1.609101   -0.297793    0.746049
     27          6           0       -3.845268   -1.547288    0.339789
     28          1           0       -3.099168   -2.306061    0.085454
     29          1           0       -4.350619   -1.870512    1.252955
     30          8           0       -1.099014   -0.087483    1.838030
     31          6           0       -4.818464   -1.346501   -0.837093
     32          1           0       -5.031078   -2.273491   -1.376577
     33          1           0       -5.770478   -0.934730   -0.483814
     34          6           0       -4.110114   -0.314861   -1.723711
     35          1           0       -4.809108    0.256199   -2.340740
     36          1           0       -3.359607   -0.771977   -2.381114
     37          7           0       -0.959701   -0.690719   -0.377890
     38          1           0       -1.455380   -0.652515   -1.275082
     39          6           0        0.437783   -0.412504   -0.696203
     40          1           0        0.690054    0.595642   -0.335880
     41          6           0        0.516595   -0.398154   -2.280391
     42          6           0        1.453600   -1.373929   -0.070263
     43          1           0        1.321148   -1.382393    1.018527
     44          1           0        2.443389   -0.960803   -0.293025
     45          8           0        1.651382   -0.491574   -2.770384
     46          6           0        1.382069   -2.794432   -0.641946
     47          1           0        0.432390   -3.272471   -0.368704
     48          1           0        1.424161   -2.715787   -1.733856
     49          6           0        2.561577   -3.657311   -0.164417
     50          1           0        2.519180   -3.802765    0.924574
     51          1           0        3.497003   -3.125302   -0.390488
     52          6           0        2.565861   -5.002171   -0.871876
     53          1           0        1.713517   -5.630920   -0.603245
     54          1           0        2.605145   -4.895447   -1.958520
     55          7           0        3.817720   -5.807652   -0.488303
     56          1           0        3.857886   -6.722424   -0.953169
     57          1           0        3.851564   -5.965535    0.525944
     58          1           0        4.666691   -5.287334   -0.741230
     59          8           0       -0.612210   -0.304133   -2.867429
 ---------------------------------------------------------------------

 SCF Done:  E(RB3LYP) =  -1300.46875794     A.U. after    1 cycles

 Alpha  occ. eigenvalues --  -19.22568 -19.16163 -19.11629 -19.10414 -14.63282
 Alpha  occ. eigenvalues --  -14.56442 -14.46815 -14.38643 -10.39734 -10.39559
 Alpha  occ. eigenvalues --  -10.37006 -10.33313 -10.31737 -10.31520 -10.30396
 Alpha  occ. eigenvalues --  -10.29285 -10.28645 -10.28333 -10.27706 -10.27675
 Alpha  occ. eigenvalues --  -10.27313 -10.27216 -10.27145 -10.27092 -10.26949
 Alpha  occ. eigenvalues --  -10.26471 -10.25492 -10.23648  -1.17109  -1.15242
 Alpha  occ. eigenvalues --   -1.10428  -1.07791  -1.04282  -1.04139  -0.96696
 Alpha  occ. eigenvalues --   -0.94867  -0.94150  -0.92805  -0.89822  -0.87759
 Alpha  occ. eigenvalues --   -0.84880  -0.83749  -0.82757  -0.82458  -0.78817
 Alpha  occ. eigenvalues --   -0.76188  -0.75747  -0.75676  -0.73706  -0.71021
 Alpha  occ. eigenvalues --   -0.70547  -0.69988  -0.68495  -0.68186  -0.67377
 Alpha  occ. eigenvalues --   -0.66620  -0.65166  -0.63946  -0.60628  -0.60435
 Alpha  occ. eigenvalues --   -0.60196  -0.59779  -0.58972  -0.58849  -0.56454
 Alpha  occ. eigenvalues --   -0.54336  -0.53849  -0.53621  -0.53423  -0.52784
 Alpha  occ. eigenvalues --   -0.52406  -0.51800  -0.50444  -0.50312  -0.50105
 Alpha  occ. eigenvalues --   -0.49967  -0.49311  -0.48625  -0.48402  -0.47333
 Alpha  occ. eigenvalues --   -0.46558  -0.46240  -0.45871  -0.44670  -0.44202
 Alpha  occ. eigenvalues --   -0.43817  -0.43581  -0.43192  -0.42428  -0.42217
 Alpha  occ. eigenvalues --   -0.41889  -0.41433  -0.40878  -0.40476  -0.39426
 Alpha  occ. eigenvalues --   -0.37907  -0.37039  -0.34984  -0.33522  -0.32898
 Alpha  occ. eigenvalues --   -0.29986  -0.29353  -0.26822  -0.26256  -0.24503
 Alpha virt. eigenvalues --   -0.13853  -0.10162  -0.09243  -0.07938  -0.07185
 Alpha virt. eigenvalues --   -0.07028  -0.06608  -0.04267  -0.03367  -0.01766
 Alpha virt. eigenvalues --   -0.00861   0.00394   0.00811   0.01128   0.01705

 Mulliken charges:
               1
     1  N   -0.744935
     2  H    0.404619
     3  H    0.399497
     4  H    0.421533
     5  C   -0.115133
     6  H    0.190600
     7  C    0.641768
     8  C   -0.424759
     9  H    0.180783
    10  H    0.290099
    11  O   -0.539818
    12  C    0.153719
    13  C   -0.177531
    14  H    0.147953
    15  C   -0.233477
    16  H    0.144006
    17  C   -0.123830
    18  H    0.155072
    19  C   -0.121438
    20  H    0.155157
    21  C   -0.126696
    22  H    0.156176
    23  N   -0.458066
    24  C   -0.035398
    25  H    0.191405
    26  C    0.589471
    27  C   -0.318270
    28  H    0.170592
    29  H    0.176998
    30  O   -0.514603
    31  C   -0.288078
    32  H    0.168954
    33  H    0.162110
    34  C   -0.167834
    35  H    0.155483
    36  H    0.210393
    37  N   -0.629301
    38  H    0.359409
    39  C   -0.065153
    40  H    0.151642
    41  C    0.571504
    42  C   -0.251797
    43  H    0.151934
    44  H    0.151302
    45  O   -0.574573
    46  C   -0.274455
    47  H    0.144396
    48  H    0.185570
    49  C   -0.292150
    50  H    0.161308
    51  H    0.167465
    52  C   -0.207780
    53  H    0.221506
    54  H    0.234276
    55  N   -0.731890
    56  H    0.426016
    57  H    0.423872
    58  H    0.426666
    59  O   -0.626286
 Sum of Mulliken charges =   1.00000

 Dipole moment (field-independent basis, Debye):
    X=             -0.7767    Y=            -12.1576    Z=             -6.9138  Tot=             14.0075
 Quadrupole moment (field-independent basis, Debye-Ang):
   XX=            -47.8628   YY=             33.8325   ZZ=           -154.8465
   XY=           -122.3195   XZ=             34.4140   YZ=            -29.2212

 Normal termination of Gaussian 16 at Wed May 25 07:50:08 2022.
