 Gaussian 16, Revision C.01,
 Gaussian 16:  ES64L-G16RevC.01  3-Jul-2019

 -------------------------------------------------------------------
 # B3LYP/6-31G* guess=read geom=check nosymm integral(ultrafinegrid)
 -------------------------------------------------------------------

 ------------------------------------------------------
 Candidate Structure: Conf:315 Charge calc in gas phase
 ------------------------------------------------------
 Structure from the checkpoint file:  "conf-315.chk"
 Charge =  1 Multiplicity = 1

                          Input orientation:
 ---------------------------------------------------------------------
 Center     Atomic      Atomic             Coordinates (Angstroms)
 Number     Number       Type             X           Y           Z
 ---------------------------------------------------------------------
      1          7           0       -0.617051    0.079457   -3.413181
      2          1           0        0.247184   -0.120200   -2.814255
      3          1           0       -0.413282    0.779907   -4.135868
      4          1           0       -0.917129   -0.807672   -3.848770
      5          6           0       -1.749860    0.524295   -2.534173
      6          1           0       -1.324867    1.213180   -1.804573
      7          6           0       -2.278749   -0.789872   -1.921112
      8          6           0       -2.842007    1.231137   -3.369219
      9          1           0       -3.294297    0.492681   -4.040906
     10          1           0       -3.627415    1.551980   -2.674716
     11          8           0       -2.352811   -1.768481   -2.668160
     12          6           0       -2.298999    2.411873   -4.148698
     13          6           0       -2.026827    3.629697   -3.506743
     14          1           0       -2.248437    3.744664   -2.447537
     15          6           0       -2.020550    2.293225   -5.518899
     16          1           0       -2.258748    1.367636   -6.040159
     17          6           0       -1.492017    4.702405   -4.218436
     18          1           0       -1.297392    5.642536   -3.710560
     19          6           0       -1.481679    3.368040   -6.232311
     20          1           0       -1.283326    3.264285   -7.295089
     21          6           0       -1.215728    4.572881   -5.582518
     22          1           0       -0.803594    5.411189   -6.136264
     23          7           0       -2.621003   -0.813978   -0.616127
     24          6           0       -2.524257    0.300886    0.347827
     25          1           0       -3.022135    1.198349   -0.031619
     26          6           0       -1.085205    0.752096    0.680744
     27          6           0       -3.273388   -0.246361    1.587010
     28          1           0       -2.894037    0.198705    2.509442
     29          1           0       -4.335648    0.007307    1.504855
     30          8           0       -0.907980    1.844908    1.205612
     31          6           0       -3.078314   -1.768209    1.495009
     32          1           0       -2.088711   -2.049998    1.872591
     33          1           0       -3.825548   -2.325760    2.064929
     34          6           0       -3.171947   -2.048798   -0.008720
     35          1           0       -4.207883   -2.185110   -0.340694
     36          1           0       -2.598239   -2.915063   -0.345422
     37          7           0       -0.072201   -0.096748    0.356087
     38          1           0       -0.278096   -0.913850   -0.201681
     39          6           0        1.318548    0.352207    0.364000
     40          1           0        1.298900    1.426859    0.131274
     41          6           0        2.065559   -0.351691   -0.805428
     42          6           0        1.994474    0.193562    1.737271
     43          1           0        2.302233   -0.852635    1.867776
     44          1           0        1.243920    0.384854    2.509637
     45          8           0        3.292762   -0.626229   -0.666144
     46          6           0        3.177034    1.174132    1.931148
     47          1           0        3.580504    1.469674    0.954724
     48          1           0        2.787855    2.092026    2.383577
     49          6           0        4.332808    0.635363    2.799566
     50          1           0        3.950721   -0.031202    3.585137
     51          1           0        4.826684    1.461230    3.324505
     52          6           0        5.434624   -0.066251    2.004907
     53          1           0        5.881310    0.619180    1.279157
     54          1           0        6.227437   -0.439657    2.659452
     55          7           0        4.908391   -1.225062    1.200517
     56          1           0        5.657143   -1.666539    0.659253
     57          1           0        4.119195   -0.908953    0.455909
     58          1           0        4.513302   -1.946443    1.809345
     59          8           0        1.409156   -0.600718   -1.845321
 ---------------------------------------------------------------------

 SCF Done:  E(RB3LYP) =  -1300.55557186     A.U. after    3 cycles

 Alpha  occ. eigenvalues --  -19.23605 -19.21532 -19.21319 -19.21051 -14.54316
 Alpha  occ. eigenvalues --  -14.54194 -14.48501 -14.46043 -10.40836 -10.39392
 Alpha  occ. eigenvalues --  -10.38609 -10.37334 -10.36216 -10.34446 -10.32679
 Alpha  occ. eigenvalues --  -10.32301 -10.31548 -10.30770 -10.30150 -10.29476
 Alpha  occ. eigenvalues --  -10.29014 -10.29014 -10.28960 -10.28865 -10.28728
 Alpha  occ. eigenvalues --  -10.28434 -10.28373 -10.28163  -1.16051  -1.14752
 Alpha  occ. eigenvalues --   -1.13320  -1.09671  -1.09361  -1.06093  -1.05620
 Alpha  occ. eigenvalues --   -1.02016  -0.95560  -0.91450  -0.91241  -0.89492
 Alpha  occ. eigenvalues --   -0.87360  -0.85482  -0.84064  -0.83783  -0.80680
 Alpha  occ. eigenvalues --   -0.77799  -0.75294  -0.74272  -0.70770  -0.70546
 Alpha  occ. eigenvalues --   -0.70207  -0.69847  -0.69411  -0.68531  -0.68409
 Alpha  occ. eigenvalues --   -0.67734  -0.67482  -0.67458  -0.64354  -0.61711
 Alpha  occ. eigenvalues --   -0.61321  -0.60307  -0.60001  -0.59344  -0.58396
 Alpha  occ. eigenvalues --   -0.56736  -0.56427  -0.55683  -0.55286  -0.55120
 Alpha  occ. eigenvalues --   -0.54640  -0.54202  -0.53580  -0.53423  -0.52236
 Alpha  occ. eigenvalues --   -0.51564  -0.51400  -0.51361  -0.50677  -0.50357
 Alpha  occ. eigenvalues --   -0.50013  -0.49320  -0.49291  -0.49052  -0.48294
 Alpha  occ. eigenvalues --   -0.47585  -0.46761  -0.45702  -0.45537  -0.45233
 Alpha  occ. eigenvalues --   -0.44491  -0.44070  -0.43802  -0.43627  -0.43550
 Alpha  occ. eigenvalues --   -0.43316  -0.37844  -0.37574  -0.37157  -0.36503
 Alpha  occ. eigenvalues --   -0.35511  -0.35046  -0.34705  -0.34292  -0.34021
 Alpha virt. eigenvalues --   -0.11390  -0.10021  -0.09620  -0.08269  -0.07855
 Alpha virt. eigenvalues --   -0.06808  -0.03771  -0.02648  -0.02562  -0.01083
 Alpha virt. eigenvalues --   -0.00610   0.00027   0.01112   0.01669   0.01745

 Mulliken charges:
               1
     1  N   -0.769990
     2  H    0.454366
     3  H    0.392171
     4  H    0.405212
     5  C   -0.104666
     6  H    0.201741
     7  C    0.607966
     8  C   -0.372985
     9  H    0.191919
    10  H    0.190368
    11  O   -0.523598
    12  C    0.137306
    13  C   -0.181525
    14  H    0.144461
    15  C   -0.216150
    16  H    0.144363
    17  C   -0.124487
    18  H    0.159163
    19  C   -0.121767
    20  H    0.159788
    21  C   -0.124703
    22  H    0.160585
    23  N   -0.476696
    24  C   -0.050895
    25  H    0.182684
    26  C    0.590141
    27  C   -0.303944
    28  H    0.192622
    29  H    0.175245
    30  O   -0.517651
    31  C   -0.309513
    32  H    0.161521
    33  H    0.181363
    34  C   -0.126367
    35  H    0.184898
    36  H    0.191351
    37  N   -0.610845
    38  H    0.342206
    39  C   -0.048260
    40  H    0.187021
    41  C    0.606788
    42  C   -0.264410
    43  H    0.108965
    44  H    0.179512
    45  O   -0.607336
    46  C   -0.293446
    47  H    0.158461
    48  H    0.179841
    49  C   -0.285955
    50  H    0.160837
    51  H    0.185587
    52  C   -0.185529
    53  H    0.206210
    54  H    0.195895
    55  N   -0.772857
    56  H    0.396129
    57  H    0.477735
    58  H    0.382881
    59  O   -0.583726
 Sum of Mulliken charges =   1.00000

 Dipole moment (field-independent basis, Debye):
    X=              6.2180    Y=             -0.0884    Z=             -1.5251  Tot=              6.4029
 Quadrupole moment (field-independent basis, Debye-Ang):
   XX=            -78.5905   YY=           -146.1286   ZZ=           -112.7761
   XY=            -11.6941   XZ=             32.6694   YZ=            -30.0225

 Normal termination of Gaussian 16 at Wed May 25 07:50:30 2022.
