 Gaussian 16, Revision C.01,
 Gaussian 16:  ES64L-G16RevC.01  3-Jul-2019

 -------------------------------------------------------------------
 # B3LYP/6-31G* guess=read geom=check nosymm integral(ultrafinegrid)
 -------------------------------------------------------------------

 ------------------------------------------------------
 Candidate Structure: Conf:549 Charge calc in gas phase
 ------------------------------------------------------
 Structure from the checkpoint file:  "conf-549.chk"
 Charge =  1 Multiplicity = 1

                          Input orientation:
 ---------------------------------------------------------------------
 Center     Atomic      Atomic             Coordinates (Angstroms)
 Number     Number       Type             X           Y           Z
 ---------------------------------------------------------------------
      1          7           0       -3.155163    1.587464    2.619036
      2          1           0       -2.197893    1.207648    2.845460
      3          1           0       -3.890471    1.181908    3.204649
      4          1           0       -3.145897    2.618011    2.744840
      5          6           0       -3.395370    1.375477    1.150403
      6          1           0       -2.853182    0.471370    0.878368
      7          6           0       -2.765846    2.625158    0.497511
      8          6           0       -4.913053    1.210350    0.833258
      9          1           0       -5.061278    1.467215   -0.221670
     10          1           0       -5.156324    0.146493    0.927894
     11          8           0       -2.763931    3.679687    1.141420
     12          6           0       -5.842973    2.015348    1.720722
     13          6           0       -6.514187    1.377403    2.775688
     14          1           0       -6.406606    0.302143    2.911599
     15          6           0       -6.035025    3.392255    1.533407
     16          1           0       -5.525163    3.906909    0.724479
     17          6           0       -7.355109    2.097298    3.628296
     18          1           0       -7.875530    1.585301    4.432503
     19          6           0       -6.876262    4.110230    2.383006
     20          1           0       -7.020102    5.174629    2.221892
     21          6           0       -7.535734    3.466405    3.433229
     22          1           0       -8.193275    4.028716    4.089581
     23          7           0       -2.248901    2.514670   -0.743434
     24          6           0       -2.161280    1.294013   -1.572910
     25          1           0       -3.119995    0.769697   -1.611643
     26          6           0       -1.145453    0.235944   -1.083390
     27          6           0       -1.791659    1.854311   -2.966514
     28          1           0       -1.249720    1.115614   -3.561005
     29          1           0       -2.709824    2.112133   -3.505553
     30          8           0       -1.249501   -0.913043   -1.492156
     31          6           0       -0.982189    3.121270   -2.648048
     32          1           0        0.048858    2.857917   -2.387450
     33          1           0       -0.948084    3.823621   -3.484494
     34          6           0       -1.703832    3.711011   -1.430764
     35          1           0       -2.531500    4.369966   -1.718199
     36          1           0       -1.057386    4.269350   -0.749738
     37          7           0       -0.171556    0.660288   -0.225670
     38          1           0       -0.328068    1.554382    0.221508
     39          6           0        0.567388   -0.299334    0.590081
     40          1           0        0.139639   -1.280707    0.348046
     41          6           0        0.269588   -0.017902    2.094154
     42          6           0        2.076050   -0.341910    0.259005
     43          1           0        2.588629    0.455737    0.812317
     44          1           0        2.199413   -0.100126   -0.800884
     45          8           0        0.982038   -0.578345    2.977493
     46          6           0        2.703218   -1.725915    0.546297
     47          1           0        2.080893   -2.265413    1.270281
     48          1           0        2.670410   -2.332598   -0.365285
     49          6           0        4.156716   -1.701709    1.050547
     50          1           0        4.815009   -1.231262    0.309970
     51          1           0        4.515953   -2.733498    1.163011
     52          6           0        4.364192   -0.954694    2.370774
     53          1           0        5.366907   -1.127463    2.770467
     54          1           0        4.223547    0.122875    2.259234
     55          7           0        3.357227   -1.389725    3.401686
     56          1           0        3.548019   -0.963326    4.312438
     57          1           0        3.372993   -2.405130    3.533215
     58          1           0        2.318739   -1.078289    3.110266
     59          8           0       -0.692426    0.749336    2.335373
 ---------------------------------------------------------------------

 SCF Done:  E(RB3LYP) =  -1300.55272194     A.U. after    1 cycles

 Alpha  occ. eigenvalues --  -19.23617 -19.21168 -19.20739 -19.20718 -14.54566
 Alpha  occ. eigenvalues --  -14.54229 -14.48183 -14.44978 -10.40642 -10.38987
 Alpha  occ. eigenvalues --  -10.37966 -10.37049 -10.36369 -10.33964 -10.32052
 Alpha  occ. eigenvalues --  -10.31932 -10.31545 -10.30915 -10.29727 -10.29230
 Alpha  occ. eigenvalues --  -10.29067 -10.28655 -10.28613 -10.28560 -10.28118
 Alpha  occ. eigenvalues --  -10.28022 -10.27855 -10.27738  -1.15973  -1.14340
 Alpha  occ. eigenvalues --   -1.12669  -1.09798  -1.09342  -1.05750  -1.05314
 Alpha  occ. eigenvalues --   -1.01222  -0.95085  -0.91565  -0.90962  -0.89019
 Alpha  occ. eigenvalues --   -0.86859  -0.85112  -0.83638  -0.83412  -0.80650
 Alpha  occ. eigenvalues --   -0.77599  -0.75334  -0.74146  -0.70427  -0.70057
 Alpha  occ. eigenvalues --   -0.69672  -0.69269  -0.68980  -0.68567  -0.68346
 Alpha  occ. eigenvalues --   -0.67791  -0.67377  -0.66792  -0.64113  -0.61419
 Alpha  occ. eigenvalues --   -0.60785  -0.60480  -0.59909  -0.58519  -0.57898
 Alpha  occ. eigenvalues --   -0.56301  -0.56053  -0.55658  -0.55206  -0.54639
 Alpha  occ. eigenvalues --   -0.54457  -0.53981  -0.53684  -0.52675  -0.51958
 Alpha  occ. eigenvalues --   -0.51276  -0.51150  -0.50916  -0.50607  -0.49999
 Alpha  occ. eigenvalues --   -0.49784  -0.49213  -0.48946  -0.48585  -0.47936
 Alpha  occ. eigenvalues --   -0.47200  -0.46574  -0.45442  -0.45189  -0.44915
 Alpha  occ. eigenvalues --   -0.44169  -0.43952  -0.43598  -0.43280  -0.42969
 Alpha  occ. eigenvalues --   -0.42927  -0.37815  -0.37319  -0.37099  -0.36838
 Alpha  occ. eigenvalues --   -0.35023  -0.34225  -0.33941  -0.33909  -0.33442
 Alpha virt. eigenvalues --   -0.10691  -0.09759  -0.09439  -0.07867  -0.07662
 Alpha virt. eigenvalues --   -0.06116  -0.04322  -0.02441  -0.01853  -0.01005
 Alpha virt. eigenvalues --    0.00179   0.00322   0.00463   0.00921   0.01579

 Mulliken charges:
               1
     1  N   -0.763560
     2  H    0.442597
     3  H    0.390943
     4  H    0.415574
     5  C   -0.084428
     6  H    0.210075
     7  C    0.616873
     8  C   -0.390868
     9  H    0.193174
    10  H    0.185337
    11  O   -0.530260
    12  C    0.132047
    13  C   -0.215543
    14  H    0.138819
    15  C   -0.167549
    16  H    0.149264
    17  C   -0.122769
    18  H    0.156618
    19  C   -0.127380
    20  H    0.158682
    21  C   -0.124746
    22  H    0.159196
    23  N   -0.480073
    24  C   -0.057442
    25  H    0.183819
    26  C    0.580009
    27  C   -0.300901
    28  H    0.193876
    29  H    0.172097
    30  O   -0.506175
    31  C   -0.311874
    32  H    0.166288
    33  H    0.179550
    34  C   -0.123967
    35  H    0.180497
    36  H    0.188800
    37  N   -0.588606
    38  H    0.342442
    39  C   -0.082396
    40  H    0.201253
    41  C    0.613212
    42  C   -0.268217
    43  H    0.133222
    44  H    0.173700
    45  O   -0.613213
    46  C   -0.291454
    47  H    0.145308
    48  H    0.179405
    49  C   -0.292054
    50  H    0.184030
    51  H    0.164204
    52  C   -0.182163
    53  H    0.199782
    54  H    0.202397
    55  N   -0.771133
    56  H    0.396058
    57  H    0.387764
    58  H    0.473238
    59  O   -0.593380
 Sum of Mulliken charges =   1.00000

 Dipole moment (field-independent basis, Debye):
    X=             -0.1148    Y=              2.4904    Z=              9.5060  Tot=              9.8274
 Quadrupole moment (field-independent basis, Debye-Ang):
   XX=            -60.2965   YY=           -141.9643   ZZ=           -115.2822
   XY=            -40.1302   XZ=              5.7066   YZ=            -16.6811

 Normal termination of Gaussian 16 at Wed May 25 07:50:15 2022.
