 Gaussian 16, Revision C.01,
 Gaussian 16:  ES64L-G16RevC.01  3-Jul-2019

 -------------------------------------------------------------------
 # B3LYP/6-31G* guess=read geom=check nosymm integral(ultrafinegrid)
 -------------------------------------------------------------------

 ------------------------------------------------------
 Candidate Structure: Conf:217 Charge calc in gas phase
 ------------------------------------------------------
 Structure from the checkpoint file:  "conf-217.chk"
 Charge =  1 Multiplicity = 1

                          Input orientation:
 ---------------------------------------------------------------------
 Center     Atomic      Atomic             Coordinates (Angstroms)
 Number     Number       Type             X           Y           Z
 ---------------------------------------------------------------------
      1          7           0       -4.572935    2.535159    3.546088
      2          1           0       -5.499807    2.145981    3.737283
      3          1           0       -4.446676    3.390183    4.109320
      4          1           0       -3.844401    1.795918    3.754109
      5          6           0       -4.334079    2.813509    2.079012
      6          1           0       -5.305599    2.922406    1.594369
      7          6           0       -3.535888    1.571334    1.614804
      8          6           0       -3.484217    4.105470    1.926321
      9          1           0       -2.451794    3.877643    2.211911
     10          1           0       -3.456865    4.346980    0.859979
     11          8           0       -3.016244    0.879890    2.505965
     12          6           0       -4.039644    5.260084    2.733617
     13          6           0       -5.159288    5.980738    2.289855
     14          1           0       -5.605657    5.747332    1.325298
     15          6           0       -3.466736    5.595774    3.971626
     16          1           0       -2.568281    5.080394    4.307836
     17          6           0       -5.690403    7.012214    3.062572
     18          1           0       -6.548334    7.570793    2.699971
     19          6           0       -4.003296    6.627822    4.749106
     20          1           0       -3.539951    6.885453    5.696912
     21          6           0       -5.116257    7.334822    4.296125
     22          1           0       -5.529742    8.141467    4.893864
     23          7           0       -3.394779    1.337149    0.309682
     24          6           0       -2.328827    0.426901   -0.145382
     25          1           0       -2.499460   -0.568824    0.275162
     26          6           0       -0.961794    0.987458    0.320034
     27          6           0       -2.458225    0.447463   -1.693491
     28          1           0       -1.675883    1.082817   -2.121178
     29          1           0       -2.345606   -0.550864   -2.122206
     30          8           0       -0.837804    2.171049    0.630536
     31          6           0       -3.843065    1.061472   -1.965955
     32          1           0       -3.907817    1.544227   -2.944323
     33          1           0       -4.626045    0.297698   -1.909203
     34          6           0       -4.009223    2.061108   -0.816614
     35          1           0       -5.054550    2.304048   -0.605582
     36          1           0       -3.456386    2.987170   -1.019191
     37          7           0        0.044739    0.095731    0.280231
     38          1           0       -0.110295   -0.873964    0.020288
     39          6           0        1.441711    0.432497    0.525386
     40          1           0        1.640253    1.432959    0.134633
     41          6           0        2.298088   -0.588435   -0.213113
     42          6           0        1.783056    0.396148    2.050892
     43          1           0        1.223423   -0.436687    2.494587
     44          1           0        1.371498    1.315013    2.481171
     45          8           0        3.496868   -0.110016   -0.500193
     46          6           0        3.282291    0.256974    2.404489
     47          1           0        3.879043    0.825668    1.685069
     48          1           0        3.448804    0.729030    3.379605
     49          6           0        3.781213   -1.215729    2.478914
     50          1           0        3.084216   -1.882678    1.956370
     51          1           0        3.755145   -1.536791    3.526795
     52          6           0        5.199335   -1.484091    1.932940
     53          1           0        5.825231   -0.591350    2.038763
     54          1           0        5.676731   -2.280671    2.519321
     55          7           0        5.183310   -1.846433    0.489243
     56          1           0        6.135791   -1.906492    0.130611
     57          1           0        4.208402   -0.851512   -0.357195
     58          1           0        4.771619   -2.772965    0.372923
     59          8           0        1.916367   -1.734900   -0.398368
 ---------------------------------------------------------------------

 SCF Done:  E(RB3LYP) =  -1300.53814325     A.U. after    3 cycles

 Alpha  occ. eigenvalues --  -19.25861 -19.22822 -19.20450 -19.20085 -14.58844
 Alpha  occ. eigenvalues --  -14.49551 -14.44618 -14.42228 -10.42682 -10.40264
 Alpha  occ. eigenvalues --  -10.37943 -10.37863 -10.34582 -10.34085 -10.33119
 Alpha  occ. eigenvalues --  -10.31939 -10.30794 -10.30698 -10.30467 -10.30123
 Alpha  occ. eigenvalues --  -10.30057 -10.30041 -10.29866 -10.29783 -10.29223
 Alpha  occ. eigenvalues --  -10.26328 -10.25669 -10.25373  -1.18511  -1.15216
 Alpha  occ. eigenvalues --   -1.13225  -1.12134  -1.07227  -1.06849  -1.01049
 Alpha  occ. eigenvalues --   -0.97584  -0.97346  -0.93165  -0.90730  -0.87911
 Alpha  occ. eigenvalues --   -0.86673  -0.85746  -0.85522  -0.82235  -0.79367
 Alpha  occ. eigenvalues --   -0.77443  -0.76276  -0.73311  -0.72631  -0.71444
 Alpha  occ. eigenvalues --   -0.70958  -0.70491  -0.69914  -0.69649  -0.66631
 Alpha  occ. eigenvalues --   -0.66412  -0.64253  -0.63426  -0.63265  -0.62151
 Alpha  occ. eigenvalues --   -0.61776  -0.59596  -0.58089  -0.57620  -0.56947
 Alpha  occ. eigenvalues --   -0.56633  -0.56133  -0.55829  -0.55000  -0.54089
 Alpha  occ. eigenvalues --   -0.53847  -0.53139  -0.52807  -0.52667  -0.52585
 Alpha  occ. eigenvalues --   -0.51955  -0.51106  -0.50724  -0.50397  -0.49852
 Alpha  occ. eigenvalues --   -0.49806  -0.48475  -0.48265  -0.47784  -0.47081
 Alpha  occ. eigenvalues --   -0.46506  -0.45978  -0.45507  -0.45220  -0.44637
 Alpha  occ. eigenvalues --   -0.44206  -0.43591  -0.42940  -0.40891  -0.40541
 Alpha  occ. eigenvalues --   -0.40372  -0.40166  -0.37599  -0.36561  -0.36496
 Alpha  occ. eigenvalues --   -0.36019  -0.34692  -0.34654  -0.33928  -0.32926
 Alpha virt. eigenvalues --   -0.12908  -0.12129  -0.10826  -0.09556  -0.06719
 Alpha virt. eigenvalues --   -0.05572  -0.04973  -0.02164  -0.01534  -0.01037
 Alpha virt. eigenvalues --   -0.00954  -0.00150  -0.00057   0.00813   0.01440

 Mulliken charges:
               1
     1  N   -0.753308
     2  H    0.411025
     3  H    0.403726
     4  H    0.428060
     5  C   -0.114607
     6  H    0.201276
     7  C    0.652064
     8  C   -0.385782
     9  H    0.222328
    10  H    0.205344
    11  O   -0.545737
    12  C    0.130959
    13  C   -0.180882
    14  H    0.140771
    15  C   -0.227184
    16  H    0.154504
    17  C   -0.122319
    18  H    0.165787
    19  C   -0.119972
    20  H    0.166392
    21  C   -0.124393
    22  H    0.168198
    23  N   -0.433739
    24  C   -0.053571
    25  H    0.189029
    26  C    0.637792
    27  C   -0.317605
    28  H    0.185668
    29  H    0.184506
    30  O   -0.547977
    31  C   -0.291092
    32  H    0.182013
    33  H    0.172200
    34  C   -0.152777
    35  H    0.164469
    36  H    0.188286
    37  N   -0.613185
    38  H    0.351522
    39  C   -0.014098
    40  H    0.189551
    41  C    0.578215
    42  C   -0.277537
    43  H    0.149690
    44  H    0.162827
    45  O   -0.600318
    46  C   -0.283666
    47  H    0.171355
    48  H    0.146449
    49  C   -0.291681
    50  H    0.161143
    51  H    0.153202
    52  C   -0.144791
    53  H    0.166951
    54  H    0.153358
    55  N   -0.778664
    56  H    0.337793
    57  H    0.460322
    58  H    0.341787
    59  O   -0.503680
 Sum of Mulliken charges =   1.00000

 Dipole moment (field-independent basis, Debye):
    X=            -14.8152    Y=             10.4462    Z=             10.9608  Tot=             21.1838
 Quadrupole moment (field-independent basis, Debye-Ang):
   XX=            -24.7558   YY=           -103.4019   ZZ=           -109.8045
   XY=            -80.6109   XZ=            -36.5997   YZ=             39.9190

 Normal termination of Gaussian 16 at Wed May 25 07:50:23 2022.
