 Gaussian 16, Revision C.01,
 Gaussian 16:  ES64L-G16RevC.01  3-Jul-2019

 -------------------------------------------------------------------
 # B3LYP/6-31G* guess=read geom=check nosymm integral(ultrafinegrid)
 -------------------------------------------------------------------

 ------------------------------------------------------
 Candidate Structure: Conf:304 Charge calc in gas phase
 ------------------------------------------------------
 Structure from the checkpoint file:  "conf-304.chk"
 Charge =  1 Multiplicity = 1

                          Input orientation:
 ---------------------------------------------------------------------
 Center     Atomic      Atomic             Coordinates (Angstroms)
 Number     Number       Type             X           Y           Z
 ---------------------------------------------------------------------
      1          7           0       -4.158274    4.386831    0.386076
      2          1           0       -5.162263    4.436761    0.573315
      3          1           0       -3.746025    5.333996    0.371332
      4          1           0       -3.673373    3.813311    1.136794
      5          6           0       -3.804689    3.615659   -0.865162
      6          1           0       -4.721228    3.449599   -1.434122
      7          6           0       -3.233001    2.291052   -0.303407
      8          6           0       -2.757729    4.406805   -1.725207
      9          1           0       -2.154299    3.671166   -2.263012
     10          1           0       -3.307637    4.995700   -2.466498
     11          8           0       -2.890194    2.285265    0.890358
     12          6           0       -1.855254    5.313749   -0.912666
     13          6           0       -2.195529    6.667778   -0.741639
     14          1           0       -3.060210    7.079194   -1.261677
     15          6           0       -0.699640    4.814512   -0.291935
     16          1           0       -0.418760    3.774116   -0.434689
     17          6           0       -1.398255    7.508762    0.041184
     18          1           0       -1.663636    8.555988    0.152545
     19          6           0        0.094748    5.660294    0.482674
     20          1           0        0.994558    5.270113    0.949413
     21          6           0       -0.253142    7.002923    0.656189
     22          1           0        0.373011    7.654392    1.258551
     23          7           0       -3.120993    1.244318   -1.122666
     24          6           0       -2.303919    0.090352   -0.718631
     25          1           0       -2.596032   -0.240624    0.281679
     26          6           0       -0.812361    0.519039   -0.715369
     27          6           0       -2.616908   -0.951298   -1.812825
     28          1           0       -1.809706   -1.677383   -1.934886
     29          1           0       -3.527682   -1.499748   -1.548092
     30          8           0       -0.448574    1.568197   -1.249906
     31          6           0       -2.841808   -0.087026   -3.064064
     32          1           0       -1.881442    0.220533   -3.488403
     33          1           0       -3.412425   -0.599098   -3.842398
     34          6           0       -3.586114    1.144692   -2.525506
     35          1           0       -4.673262    0.995294   -2.538538
     36          1           0       -3.351277    2.046894   -3.094938
     37          7           0        0.016032   -0.362830   -0.128316
     38          1           0       -0.330422   -1.226760    0.279666
     39          6           0        1.470337   -0.252736   -0.133119
     40          1           0        1.784571    0.244130   -1.053381
     41          6           0        2.038309   -1.666557   -0.088741
     42          6           0        1.989240    0.557311    1.099160
     43          1           0        1.353290    0.301134    1.955613
     44          1           0        1.803981    1.613653    0.876894
     45          8           0        3.255896   -1.725026   -0.598799
     46          6           0        3.473628    0.338806    1.475514
     47          1           0        4.065594    0.221279    0.562961
     48          1           0        3.840193    1.250100    1.961824
     49          6           0        3.713349   -0.862117    2.436571
     50          1           0        2.850756   -1.539970    2.425374
     51          1           0        3.764068   -0.478752    3.462298
     52          6           0        4.983006   -1.699859    2.177223
     53          1           0        5.763707   -1.080662    1.722299
     54          1           0        5.383093   -2.069698    3.130701
     55          7           0        4.723287   -2.837288    1.252462
     56          1           0        5.598425   -3.300245    1.008916
     57          1           0        3.841801   -2.364457   -0.025436
     58          1           0        4.147299   -3.536625    1.722268
     59          8           0        1.441403   -2.580427    0.461933
 ---------------------------------------------------------------------

 SCF Done:  E(RB3LYP) =  -1300.53887131     A.U. after    1 cycles

 Alpha  occ. eigenvalues --  -19.26020 -19.23177 -19.21292 -19.20477 -14.58488
 Alpha  occ. eigenvalues --  -14.49633 -14.45215 -14.42574 -10.42671 -10.40240
 Alpha  occ. eigenvalues --  -10.38501 -10.38339 -10.34598 -10.34342 -10.33167
 Alpha  occ. eigenvalues --  -10.31293 -10.31286 -10.30253 -10.30072 -10.29881
 Alpha  occ. eigenvalues --  -10.29584 -10.29539 -10.29220 -10.29167 -10.29045
 Alpha  occ. eigenvalues --  -10.26876 -10.26014 -10.25790  -1.18521  -1.15599
 Alpha  occ. eigenvalues --   -1.13247  -1.12497  -1.07316  -1.07191  -1.01642
 Alpha  occ. eigenvalues --   -0.97921  -0.96661  -0.93009  -0.90635  -0.88191
 Alpha  occ. eigenvalues --   -0.86712  -0.85527  -0.84864  -0.82641  -0.79199
 Alpha  occ. eigenvalues --   -0.77713  -0.76291  -0.73227  -0.72200  -0.71498
 Alpha  occ. eigenvalues --   -0.70662  -0.70416  -0.70063  -0.69025  -0.67113
 Alpha  occ. eigenvalues --   -0.66777  -0.64737  -0.64040  -0.62733  -0.61847
 Alpha  occ. eigenvalues --   -0.60740  -0.59061  -0.58386  -0.57941  -0.57228
 Alpha  occ. eigenvalues --   -0.56846  -0.56180  -0.55919  -0.55203  -0.54281
 Alpha  occ. eigenvalues --   -0.53933  -0.53330  -0.52904  -0.52526  -0.52399
 Alpha  occ. eigenvalues --   -0.51753  -0.51350  -0.50999  -0.50474  -0.49997
 Alpha  occ. eigenvalues --   -0.49422  -0.48866  -0.48729  -0.47875  -0.46766
 Alpha  occ. eigenvalues --   -0.46549  -0.46359  -0.45264  -0.44701  -0.44684
 Alpha  occ. eigenvalues --   -0.44175  -0.43986  -0.43387  -0.41244  -0.40765
 Alpha  occ. eigenvalues --   -0.40596  -0.40517  -0.37744  -0.36968  -0.35844
 Alpha  occ. eigenvalues --   -0.35355  -0.35277  -0.35131  -0.34429  -0.33381
 Alpha virt. eigenvalues --   -0.12521  -0.11678  -0.11006  -0.09138  -0.07703
 Alpha virt. eigenvalues --   -0.06102  -0.04117  -0.02670  -0.01609  -0.00784
 Alpha virt. eigenvalues --   -0.00362  -0.00034   0.00628   0.00951   0.01701

 Mulliken charges:
               1
     1  N   -0.763973
     2  H    0.406896
     3  H    0.404629
     4  H    0.432789
     5  C   -0.098823
     6  H    0.205446
     7  C    0.640700
     8  C   -0.384645
     9  H    0.228037
    10  H    0.184422
    11  O   -0.544487
    12  C    0.089044
    13  C   -0.226528
    14  H    0.144383
    15  C   -0.178980
    16  H    0.206411
    17  C   -0.120613
    18  H    0.162410
    19  C   -0.131225
    20  H    0.160001
    21  C   -0.122526
    22  H    0.163777
    23  N   -0.427849
    24  C   -0.086561
    25  H    0.196097
    26  C    0.645433
    27  C   -0.298988
    28  H    0.188245
    29  H    0.174438
    30  O   -0.543478
    31  C   -0.312714
    32  H    0.190330
    33  H    0.181379
    34  C   -0.139737
    35  H    0.175373
    36  H    0.176536
    37  N   -0.609298
    38  H    0.353476
    39  C   -0.019482
    40  H    0.190998
    41  C    0.579418
    42  C   -0.277071
    43  H    0.151722
    44  H    0.157490
    45  O   -0.599751
    46  C   -0.283529
    47  H    0.172060
    48  H    0.146868
    49  C   -0.292218
    50  H    0.161538
    51  H    0.154754
    52  C   -0.145274
    53  H    0.167593
    54  H    0.154955
    55  N   -0.779537
    56  H    0.338950
    57  H    0.461102
    58  H    0.342716
    59  O   -0.503128
 Sum of Mulliken charges =   1.00000

 Dipole moment (field-independent basis, Debye):
    X=            -10.5400    Y=             12.7880    Z=              0.0986  Tot=             16.5721
 Quadrupole moment (field-independent basis, Debye-Ang):
   XX=            -57.3235   YY=            -70.7423   ZZ=           -148.9345
   XY=            -71.2877   XZ=             28.5851   YZ=             -1.8705

 Normal termination of Gaussian 16 at Wed May 25 07:50:08 2022.
