 Gaussian 16, Revision C.01,
 Gaussian 16:  ES64L-G16RevC.01  3-Jul-2019

 ----------------------------------------------------------------------
 # B3LYP/6-31G* empiricaldispersion=gd3 guess=read geom=check nosymm in
 tegral(ultrafinegrid)
 ----------------------------------------------------------------------

 -----------------------------------------------------
 Candidate Structure: Conf:34 Charge calc in gas phase
 -----------------------------------------------------
 Structure from the checkpoint file:  "conf-34.chk"
 Charge =  1 Multiplicity = 1

                          Input orientation:
 ---------------------------------------------------------------------
 Center     Atomic      Atomic             Coordinates (Angstroms)
 Number     Number       Type             X           Y           Z
 ---------------------------------------------------------------------
      1          7           0        0.533545   -1.727143    3.342325
      2          1           0        1.138679   -2.434481    2.923950
      3          1           0        1.151951   -0.966050    3.621836
      4          6           0       -0.380529   -1.245680    2.313774
      5          1           0       -0.889241   -0.357813    2.704792
      6          6           0        0.361705   -0.857255    1.022693
      7          6           0       -1.431119   -2.337251    2.022870
      8          1           0       -1.907364   -2.593618    2.974034
      9          1           0       -0.912866   -3.236097    1.667653
     10          8           0        1.354865   -1.469143    0.631376
     11          6           0       -2.504505   -1.963225    0.973249
     12          1           0       -3.205435   -2.794037    0.861924
     13          1           0       -2.037189   -1.773797    0.001919
     14          6           0       -3.261106   -0.716143    1.366499
     15          8           0       -2.874323    0.428673    1.173885
     16          8           0       -4.406435   -0.984310    2.007491
     17          7           0       -0.102336    0.252966    0.364561
     18          1           0       -1.045807    0.577295    0.587749
     19          6           0        0.497044    0.650823   -0.901923
     20          1           0        0.168870    1.682225   -1.086018
     21          6           0        2.027902    0.696806   -0.745936
     22          6           0        0.066493   -0.234355   -2.092704
     23          1           0        0.498634   -1.227526   -1.947970
     24          1           0       -1.024057   -0.335934   -2.028588
     25          8           0        2.800851    0.307008   -1.637016
     26          6           0        0.442914    0.322373   -3.450050
     27          6           0        1.285759   -0.386799   -4.320379
     28          1           0        1.687517   -1.344240   -4.002179
     29          6           0       -0.047251    1.560473   -3.887338
     30          1           0       -0.722272    2.131419   -3.253428
     31          6           0        1.620964    0.106840   -5.579496
     32          1           0        2.247005   -0.462489   -6.259904
     33          6           0        0.295402    2.085523   -5.140668
     34          1           0       -0.111000    3.042816   -5.460416
     35          8           0        1.503828    1.787129   -7.232487
     36          1           0        0.982421    2.564263   -7.489870
     37          6           0        1.121277    1.348239   -6.001831
     38          7           0        2.469543    1.284401    0.385268
     39          1           0        1.778585    1.411343    1.121708
     40          6           0        3.821928    1.049086    0.879636
     41          1           0        4.193466    0.127380    0.414925
     42          6           0        3.696939    0.768128    2.376973
     43          6           0        4.822972    2.185466    0.577656
     44          1           0        4.462261    3.119742    1.026702
     45          1           0        5.759705    1.931506    1.082389
     46          8           0        2.651578    0.805394    2.994448
     47          6           0        5.093729    2.375796   -0.927797
     48          1           0        5.087312    1.390740   -1.408623
     49          1           0        6.105217    2.778123   -1.060523
     50          6           0        4.112000    3.325557   -1.643785
     51          1           0        3.083793    3.167319   -1.299465
     52          1           0        4.356830    4.362513   -1.387622
     53          6           0        4.171775    3.190503   -3.168356
     54          1           0        3.782738    4.071136   -3.684532
     55          1           0        5.196810    3.020659   -3.507803
     56          7           0        3.345804    2.010003   -3.636121
     57          1           0        3.676745    1.600220   -4.513477
     58          1           0        2.365734    2.274229   -3.811250
     59          1           0        3.282532    1.246845   -2.908902
     60          8           0        4.882695    0.469265    2.922370
     61          1           0       -4.809430   -0.132645    2.266572
     62          1           0        4.741199    0.292720    3.872693
 ---------------------------------------------------------------------

 SCF Done:  E(RB3LYP) =  -1526.32240043     A.U. after    1 cycles

 Alpha  occ. eigenvalues --  -19.30837 -19.29070 -19.28880 -19.25605 -19.24586
 Alpha  occ. eigenvalues --  -19.23910 -19.21295 -14.56804 -14.47286 -14.45464
 Alpha  occ. eigenvalues --  -14.38635 -10.43544 -10.41862 -10.41431 -10.37988
 Alpha  occ. eigenvalues --  -10.37489 -10.36711 -10.35065 -10.34993 -10.31983
 Alpha  occ. eigenvalues --  -10.31058 -10.30924 -10.30699 -10.30464 -10.30348
 Alpha  occ. eigenvalues --  -10.30330 -10.30194 -10.30002 -10.29700 -10.29021
 Alpha  occ. eigenvalues --  -10.27907  -1.21991  -1.20184  -1.17071  -1.16322
 Alpha  occ. eigenvalues --   -1.13169  -1.13025  -1.11840  -1.11005  -1.04689
 Alpha  occ. eigenvalues --   -1.02015  -0.96993  -0.96511  -0.92982  -0.90052
 Alpha  occ. eigenvalues --   -0.88972  -0.88091  -0.86371  -0.84592  -0.83139
 Alpha  occ. eigenvalues --   -0.79231  -0.77529  -0.76756  -0.73807  -0.73604
 Alpha  occ. eigenvalues --   -0.72329  -0.71508  -0.70540  -0.69745  -0.69394
 Alpha  occ. eigenvalues --   -0.69162  -0.68529  -0.67594  -0.65713  -0.63054
 Alpha  occ. eigenvalues --   -0.62524  -0.62184  -0.60809  -0.59931  -0.59745
 Alpha  occ. eigenvalues --   -0.58876  -0.58644  -0.57930  -0.57585  -0.57313
 Alpha  occ. eigenvalues --   -0.56873  -0.56311  -0.55585  -0.55191  -0.54879
 Alpha  occ. eigenvalues --   -0.54447  -0.53881  -0.53564  -0.53107  -0.52780
 Alpha  occ. eigenvalues --   -0.52210  -0.51950  -0.51779  -0.50785  -0.50359
 Alpha  occ. eigenvalues --   -0.50079  -0.49967  -0.49363  -0.48296  -0.47904
 Alpha  occ. eigenvalues --   -0.47499  -0.47054  -0.46423  -0.46203  -0.45559
 Alpha  occ. eigenvalues --   -0.45251  -0.44987  -0.44814  -0.44225  -0.43894
 Alpha  occ. eigenvalues --   -0.43103  -0.42347  -0.41151  -0.39380  -0.38660
 Alpha  occ. eigenvalues --   -0.38005  -0.37573  -0.37185  -0.36007  -0.34814
 Alpha  occ. eigenvalues --   -0.33069  -0.31315
 Alpha virt. eigenvalues --   -0.12544  -0.11307  -0.10504  -0.10296  -0.08968
 Alpha virt. eigenvalues --   -0.07650  -0.07324  -0.03507  -0.03299  -0.02725
 Alpha virt. eigenvalues --   -0.02165  -0.01604  -0.01093  -0.00476   0.00303

 Mulliken charges:
               1
     1  N   -0.705893
     2  H    0.310667
     3  H    0.324073
     4  C   -0.086089
     5  H    0.160731
     6  C    0.584210
     7  C   -0.270257
     8  H    0.189921
     9  H    0.170097
    10  O   -0.535663
    11  C   -0.363100
    12  H    0.194406
    13  H    0.171181
    14  C    0.594571
    15  O   -0.491164
    16  O   -0.534241
    17  N   -0.652861
    18  H    0.387989
    19  C   -0.050947
    20  H    0.166156
    21  C    0.638148
    22  C   -0.350395
    23  H    0.196354
    24  H    0.171263
    25  O   -0.591471
    26  C    0.163766
    27  C   -0.188532
    28  H    0.167063
    29  C   -0.218134
    30  H    0.152292
    31  C   -0.207399
    32  H    0.172630
    33  C   -0.234751
    34  H    0.151404
    35  O   -0.626053
    36  H    0.422930
    37  C    0.344075
    38  N   -0.580627
    39  H    0.370916
    40  C   -0.051208
    41  H    0.217909
    42  C    0.602174
    43  C   -0.276313
    44  H    0.158758
    45  H    0.188747
    46  O   -0.471082
    47  C   -0.282454
    48  H    0.158193
    49  H    0.165845
    50  C   -0.296847
    51  H    0.165806
    52  H    0.185783
    53  C   -0.181305
    54  H    0.201445
    55  H    0.207436
    56  N   -0.792917
    57  H    0.404283
    58  H    0.401027
    59  H    0.467768
    60  O   -0.549924
    61  H    0.424678
    62  H    0.434934
 Sum of Mulliken charges =   1.00000

 Dipole moment (field-independent basis, Debye):
    X=              9.6967    Y=              9.8073    Z=             -9.9178  Tot=             16.9874
 Quadrupole moment (field-independent basis, Debye-Ang):
   XX=           -107.7463   YY=           -146.8762   ZZ=           -112.3039
   XY=             32.4531   XZ=            -23.0151   YZ=            -33.9879

 Normal termination of Gaussian 16 at Wed Jun  1 23:25:19 2022.
