 Gaussian 16, Revision C.01,
 Gaussian 16:  ES64L-G16RevC.01  3-Jul-2019

 ----------------------------------------------------------------------
 # B3LYP/6-31G* empiricaldispersion=gd3 guess=read geom=check nosymm in
 tegral(ultrafinegrid)
 ----------------------------------------------------------------------

 ------------------------------------------------------
 Candidate Structure: Conf:797 Charge calc in gas phase
 ------------------------------------------------------
 Structure from the checkpoint file:  "conf-797.chk"
 Charge =  1 Multiplicity = 1

                          Input orientation:
 ---------------------------------------------------------------------
 Center     Atomic      Atomic             Coordinates (Angstroms)
 Number     Number       Type             X           Y           Z
 ---------------------------------------------------------------------
      1          7           0        0.030780   -2.946184    3.430153
      2          1           0        0.476533   -3.460962    2.670248
      3          1           0        0.793149   -2.537964    3.968081
      4          6           0       -0.793154   -1.895039    2.853394
      5          1           0       -1.090959   -1.210426    3.660168
      6          6           0       -0.060620   -1.091142    1.765610
      7          6           0       -2.066823   -2.496495    2.220653
      8          1           0       -1.774191   -3.166995    1.403007
      9          1           0       -2.673424   -1.708817    1.758073
     10          8           0        0.917464   -1.523382    1.168290
     11          6           0       -2.917157   -3.263395    3.230994
     12          1           0       -3.216005   -2.621268    4.070644
     13          1           0       -2.347167   -4.084160    3.676717
     14          6           0       -4.174853   -3.811103    2.592810
     15          8           0       -4.523770   -3.614991    1.448070
     16          8           0       -4.887601   -4.554921    3.467785
     17          7           0       -0.571757    0.158018    1.473066
     18          1           0       -1.477536    0.399058    1.855936
     19          6           0       -0.178418    0.824094    0.233870
     20          1           0       -0.577995    1.843995    0.297703
     21          6           0        1.352710    0.978537    0.173002
     22          6           0       -0.736663    0.136167   -1.031057
     23          1           0       -0.256228   -0.840773   -1.122953
     24          1           0       -1.804240   -0.042240   -0.849791
     25          8           0        1.978492    0.800549   -0.887767
     26          6           0       -0.569031    0.930924   -2.311065
     27          6           0       -1.054646    2.243714   -2.430290
     28          1           0       -1.569090    2.709267   -1.592479
     29          6           0        0.051545    0.366595   -3.431029
     30          1           0        0.446814   -0.643064   -3.368679
     31          6           0       -0.926733    2.971362   -3.612415
     32          1           0       -1.328129    3.975527   -3.704797
     33          6           0        0.185978    1.075938   -4.629787
     34          1           0        0.652408    0.603554   -5.492110
     35          8           0       -0.222765    3.139555   -5.859825
     36          1           0        0.037881    2.585810   -6.613260
     37          6           0       -0.315108    2.384321   -4.730201
     38          7           0        1.930936    1.439361    1.288678
     39          1           0        1.382234    1.503467    2.141511
     40          6           0        3.353934    1.720211    1.429200
     41          1           0        3.919944    0.779030    1.399030
     42          6           0        3.533874    2.300367    2.832411
     43          6           0        3.920786    2.644669    0.322904
     44          1           0        4.949621    2.897977    0.594689
     45          1           0        3.976545    2.044535   -0.586016
     46          8           0        2.637217    2.422925    3.638305
     47          6           0        3.100360    3.927364    0.096676
     48          1           0        3.385744    4.667203    0.852682
     49          1           0        2.034677    3.727599    0.267178
     50          6           0        3.272817    4.550618   -1.304970
     51          1           0        3.130314    5.635526   -1.240923
     52          1           0        4.299501    4.408485   -1.670538
     53          6           0        2.271251    4.080447   -2.362729
     54          1           0        1.241478    4.162924   -2.007155
     55          1           0        2.360739    4.670106   -3.278836
     56          7           0        2.437502    2.636151   -2.767075
     57          1           0        3.379260    2.454182   -3.125534
     58          1           0        1.761337    2.378826   -3.504287
     59          1           0        2.256982    1.953399   -1.975828
     60          8           0        4.811263    2.639519    3.062588
     61          1           0       -5.680248   -4.868336    2.992254
     62          1           0        4.869850    2.971645    3.979341
 ---------------------------------------------------------------------

 SCF Done:  E(RB3LYP) =  -1526.30534468     A.U. after    1 cycles

 Alpha  occ. eigenvalues --  -19.31281 -19.28935 -19.25903 -19.25405 -19.24672
 Alpha  occ. eigenvalues --  -19.22302 -19.19961 -14.56810 -14.48244 -14.47223
 Alpha  occ. eigenvalues --  -14.39519 -10.43951 -10.41883 -10.38509 -10.38163
 Alpha  occ. eigenvalues --  -10.37957 -10.36837 -10.36139 -10.35670 -10.32684
 Alpha  occ. eigenvalues --  -10.31351 -10.31124 -10.31025 -10.30865 -10.30831
 Alpha  occ. eigenvalues --  -10.30807 -10.30579 -10.30324 -10.29870 -10.27243
 Alpha  occ. eigenvalues --  -10.26608  -1.22400  -1.17140  -1.16618  -1.16348
 Alpha  occ. eigenvalues --   -1.14131  -1.13597  -1.11908  -1.07434  -1.05350
 Alpha  occ. eigenvalues --   -1.03193  -0.97354  -0.97020  -0.93541  -0.90635
 Alpha  occ. eigenvalues --   -0.89362  -0.86585  -0.86437  -0.84986  -0.83622
 Alpha  occ. eigenvalues --   -0.79445  -0.78163  -0.77082  -0.74205  -0.73400
 Alpha  occ. eigenvalues --   -0.73195  -0.71285  -0.70846  -0.70173  -0.69922
 Alpha  occ. eigenvalues --   -0.68869  -0.68386  -0.65904  -0.64972  -0.63607
 Alpha  occ. eigenvalues --   -0.63145  -0.62511  -0.60878  -0.60170  -0.59589
 Alpha  occ. eigenvalues --   -0.59362  -0.58926  -0.58165  -0.57834  -0.56955
 Alpha  occ. eigenvalues --   -0.56693  -0.56333  -0.55308  -0.54416  -0.54387
 Alpha  occ. eigenvalues --   -0.54034  -0.53640  -0.53323  -0.52921  -0.52816
 Alpha  occ. eigenvalues --   -0.52705  -0.52312  -0.52044  -0.51583  -0.50474
 Alpha  occ. eigenvalues --   -0.49648  -0.49629  -0.49514  -0.48970  -0.47456
 Alpha  occ. eigenvalues --   -0.47042  -0.46714  -0.46525  -0.46158  -0.45889
 Alpha  occ. eigenvalues --   -0.45359  -0.44869  -0.44478  -0.43951  -0.43434
 Alpha  occ. eigenvalues --   -0.42717  -0.42147  -0.39524  -0.39032  -0.38407
 Alpha  occ. eigenvalues --   -0.37742  -0.37238  -0.37053  -0.35753  -0.33636
 Alpha  occ. eigenvalues --   -0.33191  -0.32157
 Alpha virt. eigenvalues --   -0.12467  -0.11568  -0.10900  -0.10253  -0.08256
 Alpha virt. eigenvalues --   -0.08161  -0.04907  -0.04570  -0.03649  -0.03185
 Alpha virt. eigenvalues --   -0.02667  -0.01697  -0.01619  -0.00520   0.00190

 Mulliken charges:
               1
     1  N   -0.687496
     2  H    0.318395
     3  H    0.310145
     4  C   -0.094811
     5  H    0.149207
     6  C    0.591308
     7  C   -0.261768
     8  H    0.168569
     9  H    0.142499
    10  O   -0.507116
    11  C   -0.349928
    12  H    0.175680
    13  H    0.215532
    14  C    0.581395
    15  O   -0.466471
    16  O   -0.562020
    17  N   -0.617854
    18  H    0.343072
    19  C   -0.070586
    20  H    0.168011
    21  C    0.673313
    22  C   -0.349400
    23  H    0.199272
    24  H    0.174271
    25  O   -0.593433
    26  C    0.172398
    27  C   -0.206649
    28  H    0.145627
    29  C   -0.185978
    30  H    0.166559
    31  C   -0.179032
    32  H    0.169909
    33  C   -0.250538
    34  H    0.153425
    35  O   -0.628797
    36  H    0.423466
    37  C    0.333218
    38  N   -0.602274
    39  H    0.373072
    40  C   -0.018562
    41  H    0.217336
    42  C    0.587784
    43  C   -0.298659
    44  H    0.192825
    45  H    0.148336
    46  O   -0.456196
    47  C   -0.285026
    48  H    0.177614
    49  H    0.148676
    50  C   -0.288934
    51  H    0.191441
    52  H    0.164721
    53  C   -0.193529
    54  H    0.203826
    55  H    0.207251
    56  N   -0.797296
    57  H    0.390888
    58  H    0.410137
    59  H    0.469416
    60  O   -0.558685
    61  H    0.416270
    62  H    0.436176
 Sum of Mulliken charges =   1.00000

 Dipole moment (field-independent basis, Debye):
    X=              8.6129    Y=             11.9693    Z=             -5.3953  Tot=             15.7021
 Quadrupole moment (field-independent basis, Debye-Ang):
   XX=           -131.6446   YY=           -135.5657   ZZ=           -116.6122
   XY=             38.3458   XZ=            -16.2142   YZ=            -19.9933

 Normal termination of Gaussian 16 at Wed Jun  1 23:25:13 2022.
