 Gaussian 16, Revision C.01,
 Gaussian 16:  ES64L-G16RevC.01  3-Jul-2019

 ----------------------------------------------------------------------
 # B3LYP/6-31G* empiricaldispersion=gd3 guess=read geom=check nosymm in
 tegral(ultrafinegrid)
 ----------------------------------------------------------------------

 ------------------------------------------------------
 Candidate Structure: Conf:472 Charge calc in gas phase
 ------------------------------------------------------
 Structure from the checkpoint file:  "conf-472.chk"
 Charge =  1 Multiplicity = 1

                          Input orientation:
 ---------------------------------------------------------------------
 Center     Atomic      Atomic             Coordinates (Angstroms)
 Number     Number       Type             X           Y           Z
 ---------------------------------------------------------------------
      1          7           0       -0.633562   -3.099508    3.119161
      2          1           0       -0.355571   -3.627566    2.295518
      3          1           0        0.189264   -2.722569    3.579071
      4          6           0       -1.657622   -2.097116    2.838752
      5          1           0       -1.839017   -1.544509    3.767101
      6          6           0       -1.327205   -1.017927    1.787895
      7          6           0       -2.985916   -2.776739    2.451835
      8          1           0       -2.839439   -3.338831    1.518648
      9          1           0       -3.716023   -1.991439    2.242416
     10          8           0       -2.168421   -0.226796    1.372726
     11          6           0       -3.513403   -3.734122    3.521398
     12          1           0       -2.744158   -4.463586    3.800272
     13          1           0       -4.365427   -4.310534    3.142311
     14          6           0       -3.957494   -3.037273    4.788993
     15          8           0       -3.828299   -1.857524    5.043125
     16          8           0       -4.531781   -3.909220    5.650580
     17          7           0       -0.023376   -0.954422    1.366191
     18          1           0        0.622487   -1.695616    1.600524
     19          6           0        0.367108   -0.006707    0.344030
     20          1           0       -0.224507    0.898438    0.510468
     21          6           0        1.862786    0.277664    0.454332
     22          6           0        0.060709   -0.549908   -1.080199
     23          1           0        0.446727   -1.571949   -1.126985
     24          1           0       -1.029437   -0.595607   -1.170393
     25          8           0        2.698809   -0.578068    0.176581
     26          6           0        0.667693    0.264741   -2.200734
     27          6           0        0.164251    1.525368   -2.553557
     28          1           0       -0.696674    1.925676   -2.024051
     29          6           0        1.773065   -0.229315   -2.909673
     30          1           0        2.200635   -1.185629   -2.626513
     31          6           0        0.719089    2.260475   -3.605313
     32          1           0        0.295788    3.212668   -3.910698
     33          6           0        2.339413    0.489561   -3.962354
     34          1           0        3.186537    0.088094   -4.513556
     35          8           0        2.326520    2.466993   -5.384893
     36          1           0        2.476511    1.868453   -6.135174
     37          6           0        1.792927    1.722981   -4.308534
     38          7           0        2.188783    1.552269    0.806748
     39          1           0        1.454582    2.210728    1.026572
     40          6           0        3.524225    2.073547    0.575315
     41          1           0        4.232965    1.255396    0.733419
     42          6           0        3.902017    3.195125    1.531203
     43          6           0        3.619133    2.550058   -0.896189
     44          1           0        3.252566    1.715535   -1.503101
     45          1           0        2.895886    3.367666   -1.019462
     46          8           0        5.009507    3.680671    1.578329
     47          6           0        5.009618    2.959181   -1.393258
     48          1           0        5.721334    2.153375   -1.181779
     49          1           0        5.378312    3.837923   -0.854872
     50          6           0        5.014395    3.211734   -2.913011
     51          1           0        6.044854    3.358079   -3.263033
     52          1           0        4.611385    2.327812   -3.425216
     53          6           0        4.178669    4.431715   -3.292491
     54          1           0        3.157273    4.366489   -2.913603
     55          1           0        4.630634    5.364356   -2.945596
     56          7           0        4.035106    4.521257   -4.801605
     57          1           0        3.569088    5.386709   -5.093784
     58          1           0        3.447804    3.707873   -5.135581
     59          1           0        4.949992    4.488518   -5.263874
     60          8           0        2.861755    3.630663    2.274337
     61          1           0       -4.780714   -3.395241    6.441932
     62          1           0        3.194749    4.348545    2.846907
 ---------------------------------------------------------------------

 SCF Done:  E(RB3LYP) =  -1526.27988665     A.U. after    1 cycles

 Alpha  occ. eigenvalues --  -19.33102 -19.30003 -19.23917 -19.23791 -19.20942
 Alpha  occ. eigenvalues --  -19.18390 -19.17765 -14.61130 -14.45976 -14.43408
 Alpha  occ. eigenvalues --  -14.38818 -10.42309 -10.40152 -10.38041 -10.37135
 Alpha  occ. eigenvalues --  -10.36483 -10.34791 -10.34231 -10.33620 -10.32046
 Alpha  occ. eigenvalues --  -10.30937 -10.30890 -10.30599 -10.30397 -10.30337
 Alpha  occ. eigenvalues --  -10.30331 -10.30062 -10.28087 -10.28036 -10.24481
 Alpha  occ. eigenvalues --  -10.24140  -1.20755  -1.19701  -1.15595  -1.14741
 Alpha  occ. eigenvalues --   -1.13035  -1.11732  -1.09864  -1.05753  -1.02742
 Alpha  occ. eigenvalues --   -0.99948  -0.96968  -0.95476  -0.94576  -0.89286
 Alpha  occ. eigenvalues --   -0.88511  -0.86337  -0.84331  -0.84074  -0.82442
 Alpha  occ. eigenvalues --   -0.78790  -0.77280  -0.75551  -0.74872  -0.74728
 Alpha  occ. eigenvalues --   -0.73157  -0.71622  -0.70687  -0.69799  -0.69620
 Alpha  occ. eigenvalues --   -0.67588  -0.66659  -0.65874  -0.65292  -0.63584
 Alpha  occ. eigenvalues --   -0.62362  -0.61534  -0.59934  -0.59680  -0.58515
 Alpha  occ. eigenvalues --   -0.58448  -0.57728  -0.56952  -0.56929  -0.56103
 Alpha  occ. eigenvalues --   -0.55272  -0.54921  -0.54629  -0.54062  -0.53912
 Alpha  occ. eigenvalues --   -0.53767  -0.53375  -0.52313  -0.51846  -0.51296
 Alpha  occ. eigenvalues --   -0.51139  -0.50930  -0.50286  -0.49448  -0.48928
 Alpha  occ. eigenvalues --   -0.48724  -0.48293  -0.47537  -0.46976  -0.46314
 Alpha  occ. eigenvalues --   -0.45936  -0.45744  -0.45428  -0.45149  -0.44803
 Alpha  occ. eigenvalues --   -0.44415  -0.44004  -0.42749  -0.41769  -0.41345
 Alpha  occ. eigenvalues --   -0.40567  -0.39178  -0.38078  -0.36727  -0.36108
 Alpha  occ. eigenvalues --   -0.35440  -0.35288  -0.34776  -0.34145  -0.32074
 Alpha  occ. eigenvalues --   -0.31827  -0.28923
 Alpha virt. eigenvalues --   -0.12706  -0.12008  -0.11374  -0.09375  -0.07591
 Alpha virt. eigenvalues --   -0.07082  -0.06565  -0.04948  -0.03744  -0.03292
 Alpha virt. eigenvalues --   -0.02860  -0.02247  -0.01902  -0.01046  -0.00287

 Mulliken charges:
               1
     1  N   -0.730799
     2  H    0.301027
     3  H    0.313768
     4  C   -0.078249
     5  H    0.211401
     6  C    0.607853
     7  C   -0.265609
     8  H    0.127567
     9  H    0.190077
    10  O   -0.529101
    11  C   -0.353034
    12  H    0.201419
    13  H    0.179992
    14  C    0.583614
    15  O   -0.466649
    16  O   -0.563785
    17  N   -0.624061
    18  H    0.320850
    19  C   -0.020076
    20  H    0.166516
    21  C    0.616218
    22  C   -0.353194
    23  H    0.165128
    24  H    0.195042
    25  O   -0.534541
    26  C    0.161487
    27  C   -0.198336
    28  H    0.166774
    29  C   -0.178979
    30  H    0.175922
    31  C   -0.159867
    32  H    0.150754
    33  C   -0.178822
    34  H    0.147029
    35  O   -0.713688
    36  H    0.440285
    37  C    0.309242
    38  N   -0.603910
    39  H    0.351191
    40  C   -0.061211
    41  H    0.221206
    42  C    0.594893
    43  C   -0.289850
    44  H    0.186746
    45  H    0.130946
    46  O   -0.450970
    47  C   -0.275582
    48  H    0.179085
    49  H    0.183999
    50  C   -0.298356
    51  H    0.167265
    52  H    0.166807
    53  C   -0.197894
    54  H    0.216520
    55  H    0.217464
    56  N   -0.765558
    57  H    0.413540
    58  H    0.449511
    59  H    0.406736
    60  O   -0.567748
    61  H    0.412419
    62  H    0.429577
 Sum of Mulliken charges =   1.00000

 Dipole moment (field-independent basis, Debye):
    X=             16.7566    Y=             15.8291    Z=            -18.3275  Tot=             29.4490
 Quadrupole moment (field-independent basis, Debye-Ang):
   XX=           -121.5703   YY=            -85.8450   ZZ=            -65.1891
   XY=             73.6017   XZ=            -77.3600   YZ=            -77.5251

 Normal termination of Gaussian 16 at Wed Jun  1 23:25:10 2022.
