 Gaussian 16, Revision C.01,
 Gaussian 16:  ES64L-G16RevC.01  3-Jul-2019

 ----------------------------------------------------------------------
 # B3LYP/6-31G* empiricaldispersion=gd3 guess=read geom=check nosymm in
 tegral(ultrafinegrid)
 ----------------------------------------------------------------------

 ------------------------------------------------------
 Candidate Structure: Conf:535 Charge calc in gas phase
 ------------------------------------------------------
 Structure from the checkpoint file:  "conf-535.chk"
 Charge =  1 Multiplicity = 1

                          Input orientation:
 ---------------------------------------------------------------------
 Center     Atomic      Atomic             Coordinates (Angstroms)
 Number     Number       Type             X           Y           Z
 ---------------------------------------------------------------------
      1          7           0       -0.263718   -1.353009    4.021187
      2          1           0       -0.774902   -1.837566    4.755553
      3          1           0        0.605734   -1.854653    3.853158
      4          6           0       -1.047392   -1.307536    2.791314
      5          1           0       -1.823066   -0.539100    2.915531
      6          6           0       -0.090769   -0.868959    1.681977
      7          6           0       -1.778784   -2.624640    2.402897
      8          1           0       -2.388301   -2.461462    1.506414
      9          1           0       -2.470589   -2.849975    3.223343
     10          8           0        1.044586   -1.326710    1.587380
     11          6           0       -0.864411   -3.831587    2.176348
     12          1           0       -1.429299   -4.764382    2.302765
     13          1           0       -0.053245   -3.873154    2.909979
     14          6           0       -0.266455   -3.884657    0.787429
     15          8           0       -0.659854   -3.256636   -0.176186
     16          8           0        0.747572   -4.769242    0.720715
     17          7           0       -0.553998    0.085716    0.817157
     18          1           0       -1.529751    0.346788    0.865373
     19          6           0        0.187856    0.458799   -0.383609
     20          1           0       -0.181651    1.453954   -0.660774
     21          6           0        1.685136    0.645216   -0.055577
     22          6           0       -0.016545   -0.508781   -1.564351
     23          1           0        0.402092   -1.478569   -1.293806
     24          1           0       -1.097054   -0.664186   -1.673221
     25          8           0        2.559785    0.121000   -0.758217
     26          6           0        0.560873   -0.025214   -2.881713
     27          6           0        1.346616   -0.879110   -3.669755
     28          1           0        1.564265   -1.879733   -3.307285
     29          6           0        0.302828    1.257843   -3.386619
     30          1           0       -0.318616    1.949931   -2.823854
     31          6           0        1.846890   -0.483920   -4.912925
     32          1           0        2.416407   -1.167795   -5.535313
     33          6           0        0.806418    1.681778   -4.619341
     34          1           0        0.574239    2.678314   -4.989676
     35          8           0        2.095641    1.139324   -6.614326
     36          1           0        1.701544    1.967792   -6.930928
     37          6           0        1.570260    0.803776   -5.401121
     38          7           0        1.924553    1.542927    0.931805
     39          1           0        1.144678    1.789759    1.537135
     40          6           0        3.232951    1.845018    1.508840
     41          1           0        3.841593    0.933132    1.497381
     42          6           0        2.996897    2.252748    2.958349
     43          6           0        4.011932    2.966105    0.743593
     44          1           0        3.520105    3.935381    0.888900
     45          1           0        5.019691    3.031206    1.165866
     46          8           0        1.905841    2.471193    3.435727
     47          6           0        4.005958    2.541722   -0.719948
     48          1           0        2.952591    2.556872   -1.020561
     49          1           0        4.306446    1.493639   -0.702967
     50          6           0        4.780071    3.202743   -1.857475
     51          1           0        4.655626    4.291199   -1.890296
     52          1           0        5.856232    3.002786   -1.791171
     53          6           0        4.194982    2.637961   -3.168455
     54          1           0        3.208146    3.062530   -3.369092
     55          1           0        4.834235    2.809884   -4.037328
     56          7           0        3.949037    1.134973   -3.098157
     57          1           0        3.449400    0.795999   -3.937726
     58          1           0        3.352559    0.841891   -2.286975
     59          1           0        4.825738    0.610469   -3.019726
     60          8           0        4.158171    2.373413    3.621276
     61          1           0        1.056609   -4.778533   -0.204366
     62          1           0        3.949728    2.653340    4.533665
 ---------------------------------------------------------------------

 SCF Done:  E(RB3LYP) =  -1526.29257014     A.U. after    1 cycles

 Alpha  occ. eigenvalues --  -19.29891 -19.28819 -19.26940 -19.24473 -19.23260
 Alpha  occ. eigenvalues --  -19.21494 -19.21249 -14.57752 -14.46804 -14.46500
 Alpha  occ. eigenvalues --  -14.38972 -10.42510 -10.40587 -10.39658 -10.38406
 Alpha  occ. eigenvalues --  -10.38059 -10.36614 -10.34899 -10.34467 -10.32446
 Alpha  occ. eigenvalues --  -10.30813 -10.30679 -10.30625 -10.30484 -10.30403
 Alpha  occ. eigenvalues --  -10.30239 -10.30171 -10.30044 -10.28395 -10.27606
 Alpha  occ. eigenvalues --  -10.27162  -1.20953  -1.17965  -1.16981  -1.15036
 Alpha  occ. eigenvalues --   -1.13162  -1.12418  -1.12179  -1.08904  -1.03942
 Alpha  occ. eigenvalues --   -1.02298  -0.96755  -0.96603  -0.93470  -0.89919
 Alpha  occ. eigenvalues --   -0.88705  -0.86718  -0.86146  -0.84536  -0.83171
 Alpha  occ. eigenvalues --   -0.79275  -0.77760  -0.76335  -0.73574  -0.73332
 Alpha  occ. eigenvalues --   -0.72487  -0.71451  -0.70848  -0.69520  -0.68922
 Alpha  occ. eigenvalues --   -0.68536  -0.67948  -0.65996  -0.65560  -0.62859
 Alpha  occ. eigenvalues --   -0.62147  -0.61277  -0.61024  -0.59790  -0.59130
 Alpha  occ. eigenvalues --   -0.58358  -0.57846  -0.57606  -0.57466  -0.56904
 Alpha  occ. eigenvalues --   -0.55998  -0.55808  -0.55423  -0.55388  -0.54525
 Alpha  occ. eigenvalues --   -0.53744  -0.53403  -0.53246  -0.52645  -0.52250
 Alpha  occ. eigenvalues --   -0.51830  -0.51481  -0.50930  -0.50380  -0.50024
 Alpha  occ. eigenvalues --   -0.49488  -0.49077  -0.48922  -0.47983  -0.47627
 Alpha  occ. eigenvalues --   -0.47134  -0.46505  -0.46167  -0.45843  -0.45767
 Alpha  occ. eigenvalues --   -0.44955  -0.44730  -0.44183  -0.43423  -0.43322
 Alpha  occ. eigenvalues --   -0.42888  -0.41984  -0.39101  -0.38319  -0.37301
 Alpha  occ. eigenvalues --   -0.37077  -0.36897  -0.35950  -0.35302  -0.34583
 Alpha  occ. eigenvalues --   -0.32876  -0.31100
 Alpha virt. eigenvalues --   -0.12430  -0.10500  -0.10014  -0.09146  -0.08295
 Alpha virt. eigenvalues --   -0.07076  -0.06323  -0.03786  -0.03059  -0.02340
 Alpha virt. eigenvalues --   -0.01883  -0.01666  -0.01346  -0.00311  -0.00034

 Mulliken charges:
               1
     1  N   -0.716475
     2  H    0.308070
     3  H    0.323621
     4  C   -0.067165
     5  H    0.144125
     6  C    0.662009
     7  C   -0.280645
     8  H    0.162034
     9  H    0.155978
    10  O   -0.535665
    11  C   -0.356199
    12  H    0.196206
    13  H    0.178118
    14  C    0.606138
    15  O   -0.486584
    16  O   -0.553051
    17  N   -0.627856
    18  H    0.343566
    19  C   -0.067389
    20  H    0.162039
    21  C    0.664222
    22  C   -0.342042
    23  H    0.210629
    24  H    0.171116
    25  O   -0.573397
    26  C    0.176688
    27  C   -0.185762
    28  H    0.160383
    29  C   -0.201426
    30  H    0.146661
    31  C   -0.232992
    32  H    0.171333
    33  C   -0.213328
    34  H    0.147346
    35  O   -0.634215
    36  H    0.422409
    37  C    0.334875
    38  N   -0.607583
    39  H    0.371863
    40  C   -0.038900
    41  H    0.209304
    42  C    0.589871
    43  C   -0.272531
    44  H    0.162767
    45  H    0.181223
    46  O   -0.449617
    47  C   -0.297028
    48  H    0.146590
    49  H    0.161836
    50  C   -0.276721
    51  H    0.186400
    52  H    0.172295
    53  C   -0.193232
    54  H    0.208337
    55  H    0.207558
    56  N   -0.797878
    57  H    0.414753
    58  H    0.462532
    59  H    0.399886
    60  O   -0.559387
    61  H    0.410559
    62  H    0.433730
 Sum of Mulliken charges =   1.00000

 Dipole moment (field-independent basis, Debye):
    X=             11.7990    Y=              6.4949    Z=             -8.0397  Tot=             15.6855
 Quadrupole moment (field-independent basis, Debye-Ang):
   XX=           -110.2116   YY=           -140.3697   ZZ=           -114.9940
   XY=             31.6461   XZ=            -34.7193   YZ=            -27.0319

 Normal termination of Gaussian 16 at Wed Jun  1 23:25:17 2022.
