 Gaussian 16, Revision C.01,
 Gaussian 16:  ES64L-G16RevC.01  3-Jul-2019

 ----------------------------------------------------------------------
 # B3LYP/6-31G* empiricaldispersion=gd3 guess=read geom=check nosymm in
 tegral(ultrafinegrid)
 ----------------------------------------------------------------------

 ------------------------------------------------------
 Candidate Structure: Conf:684 Charge calc in gas phase
 ------------------------------------------------------
 Structure from the checkpoint file:  "conf-684.chk"
 Charge =  1 Multiplicity = 1

                          Input orientation:
 ---------------------------------------------------------------------
 Center     Atomic      Atomic             Coordinates (Angstroms)
 Number     Number       Type             X           Y           Z
 ---------------------------------------------------------------------
      1          7           0        0.326739   -2.261828    3.546073
      2          1           0       -0.128193   -2.800784    4.279922
      3          1           0        0.895821   -2.901682    2.994121
      4          6           0       -0.668840   -1.641838    2.679057
      5          1           0       -1.155555   -0.837888    3.242601
      6          6           0        0.091210   -1.030197    1.498370
      7          6           0       -1.756346   -2.615280    2.152386
      8          1           0       -2.255298   -3.065187    3.019282
      9          1           0       -1.259562   -3.425493    1.606031
     10          8           0        1.025708   -1.613075    0.955551
     11          6           0       -2.824316   -1.989968    1.221150
     12          1           0       -3.556094   -2.752547    0.943182
     13          1           0       -2.352631   -1.615041    0.308146
     14          6           0       -3.532889   -0.828466    1.878813
     15          8           0       -3.112062    0.318727    1.917947
     16          8           0       -4.677569   -1.191713    2.475039
     17          7           0       -0.325792    0.210499    1.090344
     18          1           0       -1.246657    0.524425    1.401259
     19          6           0        0.227665    0.789404   -0.126889
     20          1           0       -0.128456    1.826692   -0.156152
     21          6           0        1.760668    0.873246   -0.025761
     22          6           0       -0.233344    0.058143   -1.407586
     23          1           0        0.188209   -0.949456   -1.386950
     24          1           0       -1.323888   -0.040392   -1.329616
     25          8           0        2.494697    0.677729   -1.013244
     26          6           0        0.107856    0.746167   -2.713636
     27          6           0       -0.262279    2.074637   -2.969478
     28          1           0       -0.798670    2.644825   -2.214586
     29          6           0        0.774517    0.052017   -3.732962
     30          1           0        1.086968   -0.973762   -3.559040
     31          6           0        0.018689    2.693087   -4.191291
     32          1           0       -0.294043    3.712852   -4.392733
     33          6           0        1.048322    0.643013   -4.967211
     34          1           0        1.548949    0.071501   -5.746186
     35          8           0        0.889775    2.617265   -6.385116
     36          1           0        1.186610    1.987239   -7.061103
     37          6           0        0.658380    1.969021   -5.209853
     38          7           0        2.245222    1.267583    1.155489
     39          1           0        1.629190    1.294441    1.964750
     40          6           0        3.667628    1.416716    1.435302
     41          1           0        4.193067    0.497974    1.146552
     42          6           0        3.789796    1.551392    2.951496
     43          6           0        4.306483    2.632788    0.697072
     44          1           0        3.488518    3.329582    0.481339
     45          1           0        4.980569    3.159201    1.378892
     46          8           0        2.850006    1.643335    3.708896
     47          6           0        5.087369    2.258123   -0.582443
     48          1           0        4.715789    1.308311   -0.974558
     49          1           0        6.138772    2.090475   -0.324738
     50          6           0        5.034231    3.334540   -1.681647
     51          1           0        5.359576    4.302157   -1.279273
     52          1           0        5.750984    3.084699   -2.476182
     53          6           0        3.661480    3.567122   -2.317539
     54          1           0        2.904437    3.849395   -1.581843
     55          1           0        3.709695    4.353357   -3.075159
     56          7           0        3.125520    2.329295   -2.991259
     57          1           0        2.277208    2.532697   -3.541291
     58          1           0        2.846230    1.601683   -2.272023
     59          1           0        3.812770    1.912937   -3.625202
     60          8           0        5.078014    1.559748    3.331360
     61          1           0       -5.051164   -0.399368    2.908179
     62          1           0        5.098098    1.643568    4.304181
 ---------------------------------------------------------------------

 SCF Done:  E(RB3LYP) =  -1526.31561797     A.U. after    2 cycles

 Alpha  occ. eigenvalues --  -19.29967 -19.29186 -19.28618 -19.24603 -19.24075
 Alpha  occ. eigenvalues --  -19.23964 -19.21125 -14.56116 -14.47155 -14.45321
 Alpha  occ. eigenvalues --  -14.38919 -10.42635 -10.41969 -10.40992 -10.37681
 Alpha  occ. eigenvalues --  -10.37497 -10.36482 -10.34979 -10.34661 -10.31926
 Alpha  occ. eigenvalues --  -10.30702 -10.30533 -10.30446 -10.30386 -10.30296
 Alpha  occ. eigenvalues --  -10.30226 -10.30101 -10.29741 -10.29396 -10.29283
 Alpha  occ. eigenvalues --  -10.28400  -1.21072  -1.20270  -1.16826  -1.15826
 Alpha  occ. eigenvalues --   -1.13015  -1.12326  -1.11323  -1.11104  -1.04316
 Alpha  occ. eigenvalues --   -1.01879  -0.96788  -0.96611  -0.92683  -0.89733
 Alpha  occ. eigenvalues --   -0.88541  -0.88276  -0.86096  -0.84352  -0.82798
 Alpha  occ. eigenvalues --   -0.79315  -0.77729  -0.76678  -0.73849  -0.73309
 Alpha  occ. eigenvalues --   -0.71796  -0.71523  -0.70241  -0.69694  -0.69386
 Alpha  occ. eigenvalues --   -0.68690  -0.68354  -0.67592  -0.65522  -0.62490
 Alpha  occ. eigenvalues --   -0.62006  -0.61705  -0.60677  -0.59547  -0.59226
 Alpha  occ. eigenvalues --   -0.58896  -0.58536  -0.57954  -0.57578  -0.56911
 Alpha  occ. eigenvalues --   -0.56867  -0.56537  -0.55442  -0.54915  -0.54394
 Alpha  occ. eigenvalues --   -0.53925  -0.53506  -0.53271  -0.53110  -0.52259
 Alpha  occ. eigenvalues --   -0.52044  -0.51555  -0.51013  -0.50512  -0.50044
 Alpha  occ. eigenvalues --   -0.49877  -0.49477  -0.49051  -0.48581  -0.48075
 Alpha  occ. eigenvalues --   -0.47145  -0.47002  -0.46768  -0.45855  -0.45563
 Alpha  occ. eigenvalues --   -0.45199  -0.44918  -0.44601  -0.44492  -0.44030
 Alpha  occ. eigenvalues --   -0.43497  -0.42078  -0.41289  -0.38688  -0.37970
 Alpha  occ. eigenvalues --   -0.37668  -0.37466  -0.36909  -0.35743  -0.34354
 Alpha  occ. eigenvalues --   -0.32773  -0.31098
 Alpha virt. eigenvalues --   -0.12110  -0.10681  -0.10128  -0.09113  -0.09044
 Alpha virt. eigenvalues --   -0.07408  -0.07201  -0.03686  -0.03054  -0.01873
 Alpha virt. eigenvalues --   -0.01622  -0.01158  -0.01011  -0.00303   0.00323

 Mulliken charges:
               1
     1  N   -0.711086
     2  H    0.307787
     3  H    0.319707
     4  C   -0.070716
     5  H    0.161947
     6  C    0.616245
     7  C   -0.291502
     8  H    0.166527
     9  H    0.171608
    10  O   -0.528857
    11  C   -0.362955
    12  H    0.193380
    13  H    0.174800
    14  C    0.592335
    15  O   -0.487023
    16  O   -0.536632
    17  N   -0.652900
    18  H    0.388036
    19  C   -0.059210
    20  H    0.171036
    21  C    0.661351
    22  C   -0.359178
    23  H    0.197225
    24  H    0.171377
    25  O   -0.598285
    26  C    0.172529
    27  C   -0.202625
    28  H    0.149982
    29  C   -0.195256
    30  H    0.163114
    31  C   -0.211455
    32  H    0.170793
    33  C   -0.219914
    34  H    0.150215
    35  O   -0.628635
    36  H    0.422813
    37  C    0.332585
    38  N   -0.601764
    39  H    0.380938
    40  C   -0.008482
    41  H    0.213798
    42  C    0.572445
    43  C   -0.292003
    44  H    0.150107
    45  H    0.189441
    46  O   -0.446269
    47  C   -0.289103
    48  H    0.170906
    49  H    0.174736
    50  C   -0.296951
    51  H    0.186304
    52  H    0.162540
    53  C   -0.187709
    54  H    0.198254
    55  H    0.205793
    56  N   -0.792739
    57  H    0.409197
    58  H    0.471204
    59  H    0.390071
    60  O   -0.559677
    61  H    0.425219
    62  H    0.434580
 Sum of Mulliken charges =   1.00000

 Dipole moment (field-independent basis, Debye):
    X=              8.6188    Y=              7.3854    Z=             -6.8725  Tot=             13.2688
 Quadrupole moment (field-independent basis, Debye-Ang):
   XX=           -107.4329   YY=           -145.1440   ZZ=           -111.8192
   XY=             40.6840   XZ=            -31.4771   YZ=            -22.0560

 Normal termination of Gaussian 16 at Wed Jun  1 23:25:24 2022.
