 Gaussian 16, Revision C.01,
 Gaussian 16:  ES64L-G16RevC.01  3-Jul-2019

 ----------------------------------------------------------------------
 # B3LYP/6-31G* empiricaldispersion=gd3 guess=read geom=check nosymm in
 tegral(ultrafinegrid)
 ----------------------------------------------------------------------

 ------------------------------------------------------
 Candidate Structure: Conf:102 Charge calc in gas phase
 ------------------------------------------------------
 Structure from the checkpoint file:  "conf-102.chk"
 Charge =  1 Multiplicity = 1

                          Input orientation:
 ---------------------------------------------------------------------
 Center     Atomic      Atomic             Coordinates (Angstroms)
 Number     Number       Type             X           Y           Z
 ---------------------------------------------------------------------
      1          7           0        0.066739   -3.871849    3.208683
      2          1           0        0.376893   -4.378374    2.378199
      3          1           0        0.924496   -3.598085    3.685619
      4          6           0       -0.648653   -2.682518    2.766919
      5          1           0       -0.775513   -2.017793    3.633544
      6          6           0        0.102316   -1.919648    1.656108
      7          6           0       -2.044453   -3.065825    2.232207
      8          1           0       -1.922083   -3.708394    1.351100
      9          1           0       -2.578380   -2.175363    1.879937
     10          8           0        0.963634   -2.447211    0.969178
     11          6           0       -2.895601   -3.785744    3.275993
     12          1           0       -3.002098   -3.180998    4.187364
     13          1           0       -2.417093   -4.715621    3.596768
     14          6           0       -4.284589   -4.082877    2.756475
     15          8           0       -4.739482   -3.698157    1.700002
     16          8           0       -4.988913   -4.835953    3.632313
     17          7           0       -0.274089   -0.605007    1.471840
     18          1           0       -1.109224   -0.295108    1.952125
     19          6           0        0.098092    0.146206    0.276041
     20          1           0       -0.273637    1.164186    0.443509
     21          6           0        1.633747    0.268264    0.114252
     22          6           0       -0.524678   -0.383105   -1.037468
     23          1           0       -0.094236   -1.363786   -1.248225
     24          1           0       -1.601339   -0.508317   -0.872783
     25          8           0        2.258581   -0.290660   -0.774683
     26          6           0       -0.270315    0.583268   -2.177406
     27          6           0       -0.912409    1.829257   -2.211580
     28          1           0       -1.671531    2.063197   -1.468759
     29          6           0        0.673006    0.299750   -3.174858
     30          1           0        1.198266   -0.647986   -3.151258
     31          6           0       -0.607962    2.781589   -3.187807
     32          1           0       -1.129026    3.733868   -3.229418
     33          6           0        0.994742    1.239046   -4.154918
     34          1           0        1.747841    1.011727   -4.906190
     35          8           0        0.715513    3.497483   -5.043055
     36          1           0        1.023822    3.104061   -5.876379
     37          6           0        0.358864    2.478345   -4.142313
     38          7           0        2.207219    1.186042    0.951030
     39          1           0        1.715138    1.456798    1.791795
     40          6           0        3.614318    1.540053    0.829261
     41          1           0        4.140610    0.663467    0.429017
     42          6           0        4.262089    1.854792    2.174829
     43          6           0        3.827648    2.728952   -0.140694
     44          1           0        3.211629    3.564979    0.221276
     45          1           0        4.873454    3.046005   -0.069303
     46          8           0        5.346143    2.376511    2.285250
     47          6           0        3.472043    2.371382   -1.589703
     48          1           0        2.474987    1.930320   -1.643480
     49          1           0        4.154908    1.593180   -1.945995
     50          6           0        3.507252    3.546549   -2.578944
     51          1           0        4.491936    4.031468   -2.595724
     52          1           0        3.324251    3.137632   -3.581633
     53          6           0        2.421735    4.579016   -2.269482
     54          1           0        1.489405    4.096420   -1.966611
     55          1           0        2.721253    5.300710   -1.506829
     56          7           0        2.074939    5.367571   -3.524582
     57          1           0        1.411962    6.126028   -3.332943
     58          1           0        1.629539    4.723517   -4.231239
     59          1           0        2.913169    5.786354   -3.941479
     60          8           0        3.498770    1.486539    3.229839
     61          1           0       -5.869155   -4.977915    3.235457
     62          1           0        4.006170    1.705798    4.035101
 ---------------------------------------------------------------------

 SCF Done:  E(RB3LYP) =  -1526.27582554     A.U. after    3 cycles

 Alpha  occ. eigenvalues --  -19.32868 -19.29482 -19.24600 -19.23296 -19.20723
 Alpha  occ. eigenvalues --  -19.19650 -19.19131 -14.60977 -14.45508 -14.45014
 Alpha  occ. eigenvalues --  -14.37878 -10.41744 -10.39628 -10.38021 -10.37299
 Alpha  occ. eigenvalues --  -10.37045 -10.36163 -10.33774 -10.33409 -10.33065
 Alpha  occ. eigenvalues --  -10.30766 -10.30617 -10.30418 -10.30142 -10.29726
 Alpha  occ. eigenvalues --  -10.29582 -10.29582 -10.29540 -10.28149 -10.25861
 Alpha  occ. eigenvalues --  -10.25547  -1.20187  -1.19591  -1.15517  -1.15323
 Alpha  occ. eigenvalues --   -1.13061  -1.11509  -1.11170  -1.06580  -1.02294
 Alpha  occ. eigenvalues --   -1.00986  -0.96842  -0.95622  -0.93892  -0.89229
 Alpha  occ. eigenvalues --   -0.88342  -0.86230  -0.85340  -0.84016  -0.82661
 Alpha  occ. eigenvalues --   -0.78399  -0.78143  -0.75629  -0.74659  -0.74103
 Alpha  occ. eigenvalues --   -0.73028  -0.71011  -0.70683  -0.70292  -0.69030
 Alpha  occ. eigenvalues --   -0.67655  -0.66428  -0.65950  -0.64806  -0.63831
 Alpha  occ. eigenvalues --   -0.62366  -0.61232  -0.60789  -0.59613  -0.58276
 Alpha  occ. eigenvalues --   -0.58082  -0.57497  -0.57001  -0.56257  -0.56005
 Alpha  occ. eigenvalues --   -0.55534  -0.55309  -0.54600  -0.54076  -0.53668
 Alpha  occ. eigenvalues --   -0.53465  -0.53114  -0.52791  -0.51967  -0.51468
 Alpha  occ. eigenvalues --   -0.51204  -0.50838  -0.50570  -0.50004  -0.49383
 Alpha  occ. eigenvalues --   -0.49054  -0.48133  -0.47697  -0.46923  -0.46557
 Alpha  occ. eigenvalues --   -0.46046  -0.45762  -0.45418  -0.44963  -0.44629
 Alpha  occ. eigenvalues --   -0.44178  -0.44169  -0.44024  -0.42998  -0.41361
 Alpha  occ. eigenvalues --   -0.41224  -0.40770  -0.37553  -0.36930  -0.36606
 Alpha  occ. eigenvalues --   -0.36005  -0.35250  -0.34215  -0.33499  -0.32880
 Alpha  occ. eigenvalues --   -0.32612  -0.30516
 Alpha virt. eigenvalues --   -0.12584  -0.11553  -0.11101  -0.08659  -0.07676
 Alpha virt. eigenvalues --   -0.06970  -0.06161  -0.05816  -0.04692  -0.04044
 Alpha virt. eigenvalues --   -0.02600  -0.02301  -0.01474  -0.00885  -0.00626

 Mulliken charges:
               1
     1  N   -0.690601
     2  H    0.317722
     3  H    0.308676
     4  C   -0.093390
     5  H    0.140245
     6  C    0.585685
     7  C   -0.259148
     8  H    0.166259
     9  H    0.139932
    10  O   -0.496601
    11  C   -0.347669
    12  H    0.172688
    13  H    0.213605
    14  C    0.579347
    15  O   -0.468223
    16  O   -0.563120
    17  N   -0.612013
    18  H    0.332080
    19  C   -0.065811
    20  H    0.142098
    21  C    0.666368
    22  C   -0.351868
    23  H    0.209266
    24  H    0.161721
    25  O   -0.510902
    26  C    0.158599
    27  C   -0.189591
    28  H    0.148275
    29  C   -0.161667
    30  H    0.186651
    31  C   -0.182670
    32  H    0.145905
    33  C   -0.181382
    34  H    0.148770
    35  O   -0.700163
    36  H    0.438802
    37  C    0.315756
    38  N   -0.623950
    39  H    0.347518
    40  C   -0.050098
    41  H    0.224134
    42  C    0.589209
    43  C   -0.268209
    44  H    0.126178
    45  H    0.184762
    46  O   -0.445835
    47  C   -0.279804
    48  H    0.180562
    49  H    0.178532
    50  C   -0.296034
    51  H    0.171192
    52  H    0.153847
    53  C   -0.198337
    54  H    0.218244
    55  H    0.214032
    56  N   -0.768868
    57  H    0.411915
    58  H    0.450291
    59  H    0.409048
    60  O   -0.574797
    61  H    0.413809
    62  H    0.429024
 Sum of Mulliken charges =   1.00000

 Dipole moment (field-independent basis, Debye):
    X=              6.3337    Y=             20.8275    Z=            -10.1722  Tot=             24.0286
 Quadrupole moment (field-independent basis, Debye-Ang):
   XX=           -160.2303   YY=            -74.8763   ZZ=            -96.4393
   XY=             44.4643   XZ=            -34.3365   YZ=            -68.9040

 Normal termination of Gaussian 16 at Wed Jun  1 23:25:31 2022.
