 Gaussian 16, Revision C.01,
 Gaussian 16:  ES64L-G16RevC.01  3-Jul-2019

 ----------------------------------------------------------------------
 # B3LYP/6-31G* empiricaldispersion=gd3 guess=read geom=check nosymm in
 tegral(ultrafinegrid)
 ----------------------------------------------------------------------

 ------------------------------------------------------
 Candidate Structure: Conf:123 Charge calc in gas phase
 ------------------------------------------------------
 Structure from the checkpoint file:  "conf-123.chk"
 Charge =  1 Multiplicity = 1

                          Input orientation:
 ---------------------------------------------------------------------
 Center     Atomic      Atomic             Coordinates (Angstroms)
 Number     Number       Type             X           Y           Z
 ---------------------------------------------------------------------
      1          7           0       -0.241424   -1.829565    4.020255
      2          1           0       -0.705521   -2.295040    4.797970
      3          1           0        0.376086   -2.511250    3.580805
      4          6           0       -1.228997   -1.396011    3.036094
      5          1           0       -1.799378   -0.561919    3.469749
      6          6           0       -0.445857   -0.915356    1.813736
      7          6           0       -2.220309   -2.492366    2.576353
      8          1           0       -2.708446   -2.914795    3.461277
      9          1           0       -1.640860   -3.294496    2.103372
     10          8           0        0.411671   -1.615578    1.288275
     11          6           0       -3.295113   -1.974665    1.602291
     12          1           0       -2.845769   -1.538314    0.706623
     13          1           0       -3.897097   -1.201055    2.098146
     14          6           0       -4.227690   -3.067294    1.125354
     15          8           0       -4.388547   -3.395995   -0.027912
     16          8           0       -4.871508   -3.655780    2.162774
     17          7           0       -0.760576    0.323458    1.315784
     18          1           0       -1.543240    0.823564    1.714981
     19          6           0       -0.246464    0.761952    0.021847
     20          1           0       -0.429143    1.841978   -0.021392
     21          6           0        1.290470    0.591809   -0.049499
     22          6           0       -0.953579    0.081267   -1.171152
     23          1           0       -0.779453   -0.995185   -1.099076
     24          1           0       -2.031618    0.252105   -1.057811
     25          8           0        1.852731    0.068780   -1.007473
     26          6           0       -0.470040    0.603421   -2.508269
     27          6           0       -0.480954    1.973074   -2.801144
     28          1           0       -0.937303    2.674601   -2.107434
     29          6           0        0.079358   -0.270704   -3.455036
     30          1           0        0.099779   -1.335683   -3.246773
     31          6           0        0.107547    2.472835   -3.965980
     32          1           0        0.110672    3.535212   -4.190500
     33          6           0        0.663435    0.205597   -4.626715
     34          1           0        1.117584   -0.483304   -5.335892
     35          8           0        1.448984    2.126823   -5.907895
     36          1           0        1.373963    1.564508   -6.697334
     37          6           0        0.691920    1.581907   -4.861573
     38          7           0        1.957600    1.215217    0.960623
     39          1           0        1.456093    1.433064    1.817015
     40          6           0        3.401644    1.112720    1.099862
     41          1           0        3.726935    0.141157    0.708947
     42          6           0        3.727429    1.171973    2.587457
     43          6           0        4.164621    2.232797    0.340369
     44          1           0        3.936582    3.203653    0.798939
     45          1           0        5.239631    2.056952    0.459363
     46          8           0        2.925674    1.443329    3.452896
     47          6           0        3.771377    2.246044   -1.138291
     48          1           0        2.702365    2.482900   -1.205546
     49          1           0        3.876319    1.221974   -1.511211
     50          6           0        4.539678    3.213254   -2.044123
     51          1           0        4.592101    4.215875   -1.602641
     52          1           0        5.576515    2.882171   -2.188868
     53          6           0        3.834642    3.362298   -3.394686
     54          1           0        2.860766    3.846831   -3.287161
     55          1           0        4.424911    3.914246   -4.129589
     56          7           0        3.526172    2.008885   -4.014270
     57          1           0        3.004046    2.108926   -4.913511
     58          1           0        2.915755    1.452248   -3.397594
     59          1           0        4.380505    1.465835   -4.174766
     60          8           0        5.028777    0.916428    2.811467
     61          1           0       -5.442356   -4.350146    1.782488
     62          1           0        5.177800    0.982037    3.774539
 ---------------------------------------------------------------------

 SCF Done:  E(RB3LYP) =  -1526.28589462     A.U. after    1 cycles

 Alpha  occ. eigenvalues --  -19.31559 -19.29282 -19.25860 -19.23807 -19.21391
 Alpha  occ. eigenvalues --  -19.20703 -19.20160 -14.59652 -14.46198 -14.45257
 Alpha  occ. eigenvalues --  -14.38582 -10.41814 -10.39217 -10.38767 -10.38486
 Alpha  occ. eigenvalues --  -10.37503 -10.36619 -10.34025 -10.33845 -10.32838
 Alpha  occ. eigenvalues --  -10.30678 -10.30583 -10.30524 -10.30425 -10.30394
 Alpha  occ. eigenvalues --  -10.30275 -10.30055 -10.29945 -10.28913 -10.27478
 Alpha  occ. eigenvalues --  -10.26743  -1.20294  -1.18561  -1.16652  -1.14191
 Alpha  occ. eigenvalues --   -1.13692  -1.12533  -1.11478  -1.07724  -1.02845
 Alpha  occ. eigenvalues --   -1.01589  -0.96823  -0.96278  -0.93754  -0.89623
 Alpha  occ. eigenvalues --   -0.88707  -0.86813  -0.86216  -0.84530  -0.82963
 Alpha  occ. eigenvalues --   -0.78529  -0.77574  -0.76296  -0.73747  -0.73282
 Alpha  occ. eigenvalues --   -0.72323  -0.72048  -0.70759  -0.70537  -0.69065
 Alpha  occ. eigenvalues --   -0.67802  -0.67397  -0.66840  -0.66119  -0.63625
 Alpha  occ. eigenvalues --   -0.61831  -0.61273  -0.60634  -0.59454  -0.59308
 Alpha  occ. eigenvalues --   -0.58580  -0.57694  -0.57302  -0.56708  -0.56408
 Alpha  occ. eigenvalues --   -0.55901  -0.55216  -0.55043  -0.54785  -0.53813
 Alpha  occ. eigenvalues --   -0.53537  -0.53311  -0.52802  -0.52391  -0.52042
 Alpha  occ. eigenvalues --   -0.51708  -0.51028  -0.50774  -0.50169  -0.50039
 Alpha  occ. eigenvalues --   -0.49205  -0.48513  -0.47830  -0.47502  -0.47327
 Alpha  occ. eigenvalues --   -0.46626  -0.46433  -0.46228  -0.45807  -0.45282
 Alpha  occ. eigenvalues --   -0.45023  -0.44812  -0.44480  -0.43881  -0.43258
 Alpha  occ. eigenvalues --   -0.42498  -0.41377  -0.38047  -0.37656  -0.36787
 Alpha  occ. eigenvalues --   -0.36279  -0.35936  -0.35210  -0.34259  -0.33891
 Alpha  occ. eigenvalues --   -0.33010  -0.30578
 Alpha virt. eigenvalues --   -0.12018  -0.11237  -0.10153  -0.08744  -0.07916
 Alpha virt. eigenvalues --   -0.06731  -0.05525  -0.05490  -0.03924  -0.03514
 Alpha virt. eigenvalues --   -0.02305  -0.01323  -0.01292  -0.01044  -0.00025

 Mulliken charges:
               1
     1  N   -0.710904
     2  H    0.309556
     3  H    0.319904
     4  C   -0.061792
     5  H    0.135724
     6  C    0.634384
     7  C   -0.284811
     8  H    0.171255
     9  H    0.169774
    10  O   -0.518777
    11  C   -0.361136
    12  H    0.170488
    13  H    0.166848
    14  C    0.569732
    15  O   -0.451813
    16  O   -0.558262
    17  N   -0.622476
    18  H    0.339874
    19  C   -0.065757
    20  H    0.161733
    21  C    0.659602
    22  C   -0.356172
    23  H    0.199912
    24  H    0.167287
    25  O   -0.550598
    26  C    0.196264
    27  C   -0.194581
    28  H    0.147474
    29  C   -0.155462
    30  H    0.170047
    31  C   -0.176887
    32  H    0.161047
    33  C   -0.202621
    34  H    0.147557
    35  O   -0.671885
    36  H    0.435422
    37  C    0.264269
    38  N   -0.616295
    39  H    0.364896
    40  C   -0.034490
    41  H    0.205549
    42  C    0.587324
    43  C   -0.269233
    44  H    0.158337
    45  H    0.175031
    46  O   -0.450169
    47  C   -0.296634
    48  H    0.156260
    49  H    0.159487
    50  C   -0.283429
    51  H    0.190823
    52  H    0.169571
    53  C   -0.196957
    54  H    0.215814
    55  H    0.213580
    56  N   -0.771750
    57  H    0.440609
    58  H    0.435084
    59  H    0.404833
    60  O   -0.562269
    61  H    0.418726
    62  H    0.431083
 Sum of Mulliken charges =   1.00000

 Dipole moment (field-independent basis, Debye):
    X=             11.3397    Y=              8.9994    Z=            -11.0988  Tot=             18.2417
 Quadrupole moment (field-independent basis, Debye-Ang):
   XX=           -104.6034   YY=           -146.8839   ZZ=            -92.0238
   XY=             36.7796   XZ=            -53.6400   YZ=            -35.8737

 Normal termination of Gaussian 16 at Wed Jun  1 23:25:12 2022.
