 Gaussian 16, Revision C.01,
 Gaussian 16:  ES64L-G16RevC.01  3-Jul-2019

 ----------------------------------------------------------------------
 # B3LYP/6-31G* empiricaldispersion=gd3 guess=read geom=check nosymm in
 tegral(ultrafinegrid)
 ----------------------------------------------------------------------

 ------------------------------------------------------
 Candidate Structure: Conf:961 Charge calc in gas phase
 ------------------------------------------------------
 Structure from the checkpoint file:  "conf-961.chk"
 Charge =  1 Multiplicity = 1

                          Input orientation:
 ---------------------------------------------------------------------
 Center     Atomic      Atomic             Coordinates (Angstroms)
 Number     Number       Type             X           Y           Z
 ---------------------------------------------------------------------
      1          7           0       -2.034300   -1.280455    2.385132
      2          1           0       -2.613205   -1.856925    1.773140
      3          1           0       -2.278182   -1.536467    3.340250
      4          6           0       -0.617958   -1.557215    2.128036
      5          1           0       -0.393711   -2.627474    2.000870
      6          6           0       -0.164428   -0.927082    0.799641
      7          6           0        0.280677   -1.061824    3.278062
      8          1           0        1.319574   -1.170900    2.950520
      9          1           0        0.140272   -1.711854    4.150249
     10          8           0        0.876071   -1.279662    0.254639
     11          6           0        0.006547    0.403402    3.692143
     12          1           0       -0.983068    0.495943    4.143570
     13          1           0        0.047517    1.052157    2.815142
     14          6           0        1.056288    0.860506    4.672603
     15          8           0        2.157378    1.321124    4.379400
     16          8           0        0.699234    0.669611    5.944908
     17          7           0       -0.970910    0.062069    0.300355
     18          1           0       -1.868290    0.137632    0.771685
     19          6           0       -0.917012    0.397404   -1.127739
     20          1           0       -1.628022    1.220254   -1.268440
     21          6           0        0.482783    0.913883   -1.514208
     22          6           0       -1.319437   -0.790385   -2.042152
     23          1           0       -1.493051   -0.395147   -3.047787
     24          1           0       -0.465373   -1.467542   -2.113142
     25          8           0        0.992354    0.692703   -2.599949
     26          6           0       -2.527343   -1.517487   -1.502304
     27          6           0       -2.377959   -2.734736   -0.821311
     28          1           0       -1.391717   -3.188574   -0.757167
     29          6           0       -3.811190   -0.963977   -1.578285
     30          1           0       -3.961894   -0.025704   -2.108320
     31          6           0       -3.463466   -3.376516   -0.226637
     32          1           0       -3.349632   -4.328873    0.281967
     33          6           0       -4.908934   -1.589989   -0.988673
     34          1           0       -5.898515   -1.143798   -1.064319
     35          8           0       -5.761942   -3.467677    0.299166
     36          1           0       -6.598135   -3.005774    0.130667
     37          6           0       -4.738145   -2.800772   -0.305635
     38          7           0        1.101021    1.669512   -0.539774
     39          1           0        0.672131    1.563292    0.371304
     40          6           0        2.561661    1.683909   -0.524990
     41          1           0        2.919456    0.681440   -0.813507
     42          6           0        3.040711    1.890841    0.910479
     43          6           0        3.158295    2.706581   -1.495830
     44          1           0        4.249534    2.590609   -1.471460
     45          1           0        2.851220    2.404347   -2.499769
     46          8           0        4.027790    2.557383    1.231081
     47          6           0        2.722396    4.163103   -1.222913
     48          1           0        2.459321    4.296517   -0.164947
     49          1           0        1.801459    4.359790   -1.777811
     50          6           0        3.780764    5.215426   -1.607651
     51          1           0        4.314509    4.912915   -2.519035
     52          1           0        3.296601    6.169374   -1.847257
     53          6           0        4.782591    5.543260   -0.500325
     54          1           0        5.505446    6.298676   -0.818992
     55          1           0        4.272855    5.902084    0.397968
     56          7           0        5.578345    4.330580   -0.054342
     57          1           0        6.268117    4.582161    0.660985
     58          1           0        6.087981    3.914016   -0.839510
     59          1           0        4.945464    3.581198    0.368859
     60          8           0        2.290133    1.256102    1.778586
     61          1           0        1.445488    0.942219    6.514274
     62          1           0        2.510042    1.397387    2.751622
 ---------------------------------------------------------------------

 SCF Done:  E(RB3LYP) =  -1526.31149888     A.U. after    3 cycles

 Alpha  occ. eigenvalues --  -19.30646 -19.30489 -19.27510 -19.25927 -19.24631
 Alpha  occ. eigenvalues --  -19.20402 -19.20097 -14.58723 -14.44247 -14.44217
 Alpha  occ. eigenvalues --  -14.40969 -10.44996 -10.43597 -10.38870 -10.37271
 Alpha  occ. eigenvalues --  -10.36789 -10.34340 -10.32563 -10.32119 -10.32051
 Alpha  occ. eigenvalues --  -10.31309 -10.30419 -10.29865 -10.29768 -10.29194
 Alpha  occ. eigenvalues --  -10.26387 -10.26189 -10.26182 -10.26127 -10.25980
 Alpha  occ. eigenvalues --  -10.25690  -1.22756  -1.21876  -1.14399  -1.13146
 Alpha  occ. eigenvalues --   -1.12752  -1.12694  -1.12488  -1.11654  -1.02177
 Alpha  occ. eigenvalues --   -1.00804  -0.97821  -0.93286  -0.92450  -0.89123
 Alpha  occ. eigenvalues --   -0.88827  -0.85833  -0.83722  -0.81929  -0.81458
 Alpha  occ. eigenvalues --   -0.80000  -0.78200  -0.74232  -0.74095  -0.73215
 Alpha  occ. eigenvalues --   -0.72376  -0.71362  -0.69893  -0.69358  -0.69106
 Alpha  occ. eigenvalues --   -0.66629  -0.66222  -0.65325  -0.63744  -0.62703
 Alpha  occ. eigenvalues --   -0.61794  -0.61444  -0.61126  -0.60386  -0.59773
 Alpha  occ. eigenvalues --   -0.59096  -0.57607  -0.57367  -0.56646  -0.56496
 Alpha  occ. eigenvalues --   -0.55644  -0.55339  -0.54982  -0.54738  -0.54031
 Alpha  occ. eigenvalues --   -0.53646  -0.53129  -0.52253  -0.51839  -0.51387
 Alpha  occ. eigenvalues --   -0.50818  -0.50406  -0.50025  -0.49283  -0.49218
 Alpha  occ. eigenvalues --   -0.48833  -0.48390  -0.47672  -0.47298  -0.46716
 Alpha  occ. eigenvalues --   -0.46129  -0.45692  -0.45598  -0.45183  -0.44988
 Alpha  occ. eigenvalues --   -0.44349  -0.43884  -0.43523  -0.43046  -0.42769
 Alpha  occ. eigenvalues --   -0.41909  -0.41089  -0.40630  -0.39692  -0.39313
 Alpha  occ. eigenvalues --   -0.35742  -0.35217  -0.34582  -0.33164  -0.32637
 Alpha  occ. eigenvalues --   -0.32329  -0.28806
 Alpha virt. eigenvalues --   -0.11982  -0.10541  -0.10517  -0.08335  -0.06980
 Alpha virt. eigenvalues --   -0.06322  -0.05690  -0.05233  -0.02830  -0.02540
 Alpha virt. eigenvalues --   -0.00918  -0.00536   0.00020   0.00290   0.00534

 Mulliken charges:
               1
     1  N   -0.775070
     2  H    0.339771
     3  H    0.318137
     4  C   -0.042480
     5  H    0.166948
     6  C    0.604918
     7  C   -0.310441
     8  H    0.187720
     9  H    0.169033
    10  O   -0.531577
    11  C   -0.339724
    12  H    0.193468
    13  H    0.177422
    14  C    0.598343
    15  O   -0.510114
    16  O   -0.527894
    17  N   -0.634240
    18  H    0.363205
    19  C   -0.060466
    20  H    0.175171
    21  C    0.632804
    22  C   -0.363040
    23  H    0.174489
    24  H    0.190800
    25  O   -0.507462
    26  C    0.166458
    27  C   -0.216049
    28  H    0.153260
    29  C   -0.195144
    30  H    0.134622
    31  C   -0.187665
    32  H    0.154491
    33  C   -0.189259
    34  H    0.135256
    35  O   -0.633372
    36  H    0.415654
    37  C    0.354335
    38  N   -0.624757
    39  H    0.368278
    40  C   -0.039515
    41  H    0.221890
    42  C    0.623425
    43  C   -0.282834
    44  H    0.099496
    45  H    0.215153
    46  O   -0.544065
    47  C   -0.280402
    48  H    0.143493
    49  H    0.190133
    50  C   -0.292347
    51  H    0.171060
    52  H    0.194138
    53  C   -0.198398
    54  H    0.210261
    55  H    0.214217
    56  N   -0.770850
    57  H    0.409612
    58  H    0.402755
    59  H    0.466184
    60  O   -0.575265
    61  H    0.429840
    62  H    0.466188
 Sum of Mulliken charges =   1.00000

 Dipole moment (field-independent basis, Debye):
    X=             12.1863    Y=             15.5717    Z=              5.5544  Tot=             20.5386
 Quadrupole moment (field-independent basis, Debye-Ang):
   XX=            -50.3474   YY=            -99.3261   ZZ=           -148.5759
   XY=             88.3213   XZ=              0.4262   YZ=            -10.4124

 Normal termination of Gaussian 16 at Wed Jun  1 23:25:31 2022.
