 Gaussian 16, Revision C.01,
 Gaussian 16:  ES64L-G16RevC.01  3-Jul-2019

 ----------------------------------------------------------------------
 # B3LYP/6-31G* empiricaldispersion=gd3 guess=read geom=check nosymm in
 tegral(ultrafinegrid)
 ----------------------------------------------------------------------

 ------------------------------------------------------
 Candidate Structure: Conf:137 Charge calc in gas phase
 ------------------------------------------------------
 Structure from the checkpoint file:  "conf-137.chk"
 Charge =  1 Multiplicity = 1

                          Input orientation:
 ---------------------------------------------------------------------
 Center     Atomic      Atomic             Coordinates (Angstroms)
 Number     Number       Type             X           Y           Z
 ---------------------------------------------------------------------
      1          7           0       -0.198560   -3.764787    3.187695
      2          1           0        0.064782   -4.287152    2.350887
      3          1           0        0.683000   -3.534475    3.643682
      4          6           0       -0.863066   -2.540901    2.760597
      5          1           0       -0.925721   -1.865608    3.625945
      6          6           0       -0.108591   -1.826406    1.620528
      7          6           0       -2.293942   -2.851316    2.273216
      8          1           0       -2.234728   -3.506123    1.394669
      9          1           0       -2.789078   -1.935306    1.929875
     10          8           0        0.697442   -2.405008    0.907245
     11          6           0       -3.148572   -3.516364    3.349946
     12          1           0       -3.198958   -2.897089    4.256327
     13          1           0       -2.706187   -4.464885    3.668321
     14          6           0       -4.564548   -3.752317    2.874239
     15          8           0       -5.028541   -3.367553    1.821764
     16          8           0       -5.281897   -4.449965    3.785053
     17          7           0       -0.416554   -0.494863    1.440314
     18          1           0       -1.204019   -0.127164    1.958310
     19          6           0       -0.030290    0.236211    0.237301
     20          1           0       -0.339488    1.273306    0.413718
     21          6           0        1.506045    0.270543    0.042501
     22          6           0       -0.711422   -0.255517   -1.062096
     23          1           0       -0.339035   -1.257085   -1.284758
     24          1           0       -1.789015   -0.323038   -0.872583
     25          8           0        2.079344   -0.319433   -0.862083
     26          6           0       -0.430874    0.701433   -2.203500
     27          6           0       -1.025120    1.971150   -2.229745
     28          1           0       -1.770991    2.230512   -1.481975
     29          6           0        0.495282    0.385276   -3.207455
     30          1           0        0.981335   -0.583119   -3.191489
     31          6           0       -0.687697    2.915559   -3.202865
     32          1           0       -1.171523    3.887591   -3.238340
     33          6           0        0.851954    1.317071   -4.182535
     34          1           0        1.593045    1.064543   -4.937757
     35          8           0        0.665990    3.593749   -5.049039
     36          1           0        0.968849    3.197984   -5.883327
     37          6           0        0.265271    2.580235   -4.160700
     38          7           0        2.146384    1.146900    0.871780
     39          1           0        1.706792    1.436081    1.739121
     40          6           0        3.576096    1.385309    0.776803
     41          1           0        4.067131    0.482483    0.397257
     42          6           0        4.096639    1.681630    2.177460
     43          6           0        3.892749    2.575946   -0.169892
     44          1           0        3.318184    3.437267    0.198784
     45          1           0        4.954536    2.833438   -0.080960
     46          8           0        3.390635    1.892106    3.139752
     47          6           0        3.545893    2.263745   -1.634051
     48          1           0        2.564075    1.793159   -1.702170
     49          1           0        4.252667    1.520696   -2.018318
     50          6           0        3.542000    3.476341   -2.579007
     51          1           0        4.514508    3.985912   -2.590300
     52          1           0        3.355429    3.101903   -3.594600
     53          6           0        2.436594    4.469272   -2.215170
     54          1           0        1.513865    3.954179   -1.937803
     55          1           0        2.723817    5.153091   -1.413877
     56          7           0        2.074465    5.323238   -3.421867
     57          1           0        1.402707    6.059934   -3.181902
     58          1           0        1.629908    4.722630   -4.166860
     59          1           0        2.904754    5.777976   -3.816284
     60          8           0        5.440625    1.717484    2.204686
     61          1           0       -6.178463   -4.555241    3.414215
     62          1           0        5.710103    1.921835    3.120966
 ---------------------------------------------------------------------

 SCF Done:  E(RB3LYP) =  -1526.27969334     A.U. after    1 cycles

 Alpha  occ. eigenvalues --  -19.32850 -19.29542 -19.24423 -19.24110 -19.20559
 Alpha  occ. eigenvalues --  -19.19428 -19.18952 -14.61003 -14.45138 -14.44808
 Alpha  occ. eigenvalues --  -14.37671 -10.42082 -10.39678 -10.37878 -10.37117
 Alpha  occ. eigenvalues --  -10.37023 -10.35958 -10.33776 -10.33295 -10.33219
 Alpha  occ. eigenvalues --  -10.30739 -10.30604 -10.30370 -10.30179 -10.30084
 Alpha  occ. eigenvalues --  -10.29844 -10.29678 -10.29355 -10.28002 -10.25636
 Alpha  occ. eigenvalues --  -10.25344  -1.20565  -1.19596  -1.15349  -1.15338
 Alpha  occ. eigenvalues --   -1.12930  -1.11712  -1.11278  -1.06399  -1.02095
 Alpha  occ. eigenvalues --   -1.00787  -0.96806  -0.95408  -0.94058  -0.89229
 Alpha  occ. eigenvalues --   -0.88527  -0.86207  -0.85149  -0.84015  -0.82768
 Alpha  occ. eigenvalues --   -0.78353  -0.77999  -0.75755  -0.74718  -0.73937
 Alpha  occ. eigenvalues --   -0.73102  -0.71686  -0.70576  -0.69940  -0.68542
 Alpha  occ. eigenvalues --   -0.67661  -0.66437  -0.66287  -0.64928  -0.63629
 Alpha  occ. eigenvalues --   -0.61672  -0.60952  -0.60481  -0.59330  -0.58855
 Alpha  occ. eigenvalues --   -0.58019  -0.57651  -0.56868  -0.56475  -0.56172
 Alpha  occ. eigenvalues --   -0.55686  -0.55257  -0.54785  -0.54051  -0.53697
 Alpha  occ. eigenvalues --   -0.53348  -0.52926  -0.52894  -0.51812  -0.51603
 Alpha  occ. eigenvalues --   -0.51295  -0.50980  -0.50475  -0.50097  -0.49500
 Alpha  occ. eigenvalues --   -0.48631  -0.47942  -0.47768  -0.47068  -0.46486
 Alpha  occ. eigenvalues --   -0.45977  -0.45904  -0.45350  -0.45213  -0.44609
 Alpha  occ. eigenvalues --   -0.44215  -0.44040  -0.43981  -0.42785  -0.41654
 Alpha  occ. eigenvalues --   -0.41150  -0.40565  -0.37838  -0.36755  -0.36620
 Alpha  occ. eigenvalues --   -0.36009  -0.35086  -0.34290  -0.33319  -0.32724
 Alpha  occ. eigenvalues --   -0.32428  -0.30311
 Alpha virt. eigenvalues --   -0.12622  -0.11513  -0.11061  -0.09040  -0.07511
 Alpha virt. eigenvalues --   -0.06982  -0.06220  -0.05564  -0.04864  -0.03861
 Alpha virt. eigenvalues --   -0.02364  -0.02082  -0.01515  -0.00852  -0.00639

 Mulliken charges:
               1
     1  N   -0.691237
     2  H    0.317420
     3  H    0.308892
     4  C   -0.093958
     5  H    0.141910
     6  C    0.586564
     7  C   -0.258108
     8  H    0.166054
     9  H    0.139646
    10  O   -0.499180
    11  C   -0.348073
    12  H    0.172838
    13  H    0.213642
    14  C    0.579239
    15  O   -0.468331
    16  O   -0.563418
    17  N   -0.611866
    18  H    0.333065
    19  C   -0.061321
    20  H    0.143425
    21  C    0.661617
    22  C   -0.351569
    23  H    0.209364
    24  H    0.161684
    25  O   -0.513929
    26  C    0.156808
    27  C   -0.188559
    28  H    0.149538
    29  C   -0.161185
    30  H    0.187917
    31  C   -0.185686
    32  H    0.145999
    33  C   -0.182422
    34  H    0.148365
    35  O   -0.697840
    36  H    0.438825
    37  C    0.311728
    38  N   -0.622422
    39  H    0.353290
    40  C   -0.035250
    41  H    0.213986
    42  C    0.581341
    43  C   -0.275977
    44  H    0.133148
    45  H    0.174862
    46  O   -0.458460
    47  C   -0.280582
    48  H    0.190635
    49  H    0.176750
    50  C   -0.295088
    51  H    0.168227
    52  H    0.155563
    53  C   -0.198536
    54  H    0.222483
    55  H    0.211674
    56  N   -0.769289
    57  H    0.412206
    58  H    0.450726
    59  H    0.408363
    60  O   -0.558584
    61  H    0.413465
    62  H    0.429616
 Sum of Mulliken charges =   1.00000

 Dipole moment (field-independent basis, Debye):
    X=              9.0460    Y=             21.3609    Z=            -10.7512  Tot=             25.5677
 Quadrupole moment (field-independent basis, Debye-Ang):
   XX=           -134.1698   YY=            -75.3297   ZZ=           -108.1172
   XY=             52.2933   XZ=            -28.9505   YZ=            -67.3953

 Normal termination of Gaussian 16 at Wed Jun  1 23:25:11 2022.
