 Gaussian 16, Revision C.01,
 Gaussian 16:  ES64L-G16RevC.01  3-Jul-2019

 ----------------------------------------------------------------------
 # B3LYP/6-31G* empiricaldispersion=gd3 guess=read geom=check nosymm in
 tegral(ultrafinegrid)
 ----------------------------------------------------------------------

 ------------------------------------------------------
 Candidate Structure: Conf:474 Charge calc in gas phase
 ------------------------------------------------------
 Structure from the checkpoint file:  "conf-474.chk"
 Charge =  1 Multiplicity = 1

                          Input orientation:
 ---------------------------------------------------------------------
 Center     Atomic      Atomic             Coordinates (Angstroms)
 Number     Number       Type             X           Y           Z
 ---------------------------------------------------------------------
      1          7           0        1.814811   -1.928920    2.368120
      2          1           0        2.247270   -1.127629    2.826501
      3          1           0        1.741602   -2.662622    3.070826
      4          6           0        0.472962   -1.561665    1.915287
      5          1           0       -0.171485   -1.175006    2.719358
      6          6           0        0.612402   -0.440853    0.876777
      7          6           0       -0.209468   -2.808750    1.309418
      8          1           0       -0.243638   -3.578268    2.091015
      9          1           0        0.434597   -3.194229    0.512159
     10          8           0        1.623710   -0.302807    0.171252
     11          6           0       -1.629048   -2.604803    0.733454
     12          1           0       -2.007466   -3.560911    0.366027
     13          1           0       -1.597438   -1.913316   -0.112109
     14          6           0       -2.607729   -2.031257    1.730241
     15          8           0       -2.585928   -0.882027    2.153260
     16          8           0       -3.523847   -2.917595    2.141286
     17          7           0       -0.416672    0.435776    0.826236
     18          1           0       -1.278570    0.183261    1.319334
     19          6           0       -0.438398    1.548798   -0.129446
     20          1           0       -1.190306    2.252097    0.245892
     21          6           0        0.941875    2.237989   -0.071426
     22          6           0       -0.782207    1.130064   -1.571792
     23          1           0       -0.932541    2.047549   -2.154476
     24          1           0        0.097534    0.641703   -1.998424
     25          8           0        1.600140    2.463306   -1.094047
     26          6           0       -1.973661    0.201969   -1.675820
     27          6           0       -1.906341   -0.926032   -2.508707
     28          1           0       -0.999497   -1.113700   -3.078974
     29          6           0       -3.158536    0.411007   -0.959720
     30          1           0       -3.261017    1.273098   -0.305239
     31          6           0       -2.969107   -1.816408   -2.623482
     32          1           0       -2.912184   -2.685126   -3.271103
     33          6           0       -4.229430   -0.477671   -1.051865
     34          1           0       -5.135825   -0.296898   -0.477985
     35          8           0       -5.138779   -2.512791   -2.020906
     36          1           0       -5.916963   -2.229653   -1.515691
     37          6           0       -4.139563   -1.598362   -1.886801
     38          7           0        1.386628    2.530491    1.179138
     39          1           0        0.802906    2.173683    1.927843
     40          6           0        2.827831    2.493269    1.468731
     41          1           0        3.189805    1.524472    1.099448
     42          6           0        3.044763    2.392148    2.978442
     43          6           0        3.643723    3.642544    0.853789
     44          1           0        3.174443    3.940358   -0.085746
     45          1           0        3.590963    4.499762    1.531024
     46          8           0        3.894470    2.973123    3.602361
     47          6           0        5.121649    3.276204    0.618042
     48          1           0        5.523418    2.773207    1.506544
     49          1           0        5.683771    4.212439    0.532597
     50          6           0        5.462680    2.448013   -0.641531
     51          1           0        5.081308    2.950653   -1.541500
     52          1           0        6.553626    2.450477   -0.744261
     53          6           0        5.032583    0.969886   -0.663264
     54          1           0        5.737534    0.359572   -1.231417
     55          1           0        4.978777    0.548570    0.343017
     56          7           0        3.675544    0.751776   -1.308472
     57          1           0        3.117585    0.009124   -0.846503
     58          1           0        3.766301    0.525620   -2.301794
     59          1           0        3.039867    1.586215   -1.244468
     60          8           0        2.181722    1.497489    3.540013
     61          1           0       -4.101717   -2.467347    2.788249
     62          1           0        2.365113    1.487731    4.499791
 ---------------------------------------------------------------------

 SCF Done:  E(RB3LYP) =  -1526.30945804     A.U. after    1 cycles

 Alpha  occ. eigenvalues --  -19.32308 -19.30149 -19.26366 -19.26007 -19.25214
 Alpha  occ. eigenvalues --  -19.24906 -19.24378 -14.56031 -14.48298 -14.47324
 Alpha  occ. eigenvalues --  -14.41594 -10.44387 -10.42877 -10.42066 -10.40640
 Alpha  occ. eigenvalues --  -10.37544 -10.36353 -10.35393 -10.33620 -10.32929
 Alpha  occ. eigenvalues --  -10.31636 -10.29917 -10.29643 -10.29580 -10.29383
 Alpha  occ. eigenvalues --  -10.29085 -10.28316 -10.28206 -10.27900 -10.27797
 Alpha  occ. eigenvalues --  -10.27090  -1.22815  -1.21253  -1.17211  -1.15426
 Alpha  occ. eigenvalues --   -1.14190  -1.14087  -1.12015  -1.11108  -1.05711
 Alpha  occ. eigenvalues --   -1.03717  -0.99134  -0.94350  -0.92674  -0.90170
 Alpha  occ. eigenvalues --   -0.89245  -0.88198  -0.84173  -0.83605  -0.82876
 Alpha  occ. eigenvalues --   -0.80750  -0.78160  -0.76472  -0.74775  -0.72721
 Alpha  occ. eigenvalues --   -0.71700  -0.71269  -0.70591  -0.69671  -0.69483
 Alpha  occ. eigenvalues --   -0.69167  -0.67598  -0.67115  -0.64474  -0.63159
 Alpha  occ. eigenvalues --   -0.62950  -0.62466  -0.61474  -0.60918  -0.60063
 Alpha  occ. eigenvalues --   -0.59839  -0.59329  -0.58754  -0.57912  -0.57437
 Alpha  occ. eigenvalues --   -0.56797  -0.56502  -0.55330  -0.55208  -0.55088
 Alpha  occ. eigenvalues --   -0.54729  -0.53982  -0.53649  -0.53037  -0.52662
 Alpha  occ. eigenvalues --   -0.52497  -0.52041  -0.51994  -0.51047  -0.50703
 Alpha  occ. eigenvalues --   -0.50209  -0.49797  -0.49505  -0.49220  -0.48656
 Alpha  occ. eigenvalues --   -0.47834  -0.46645  -0.46007  -0.45930  -0.45446
 Alpha  occ. eigenvalues --   -0.45095  -0.44927  -0.44513  -0.44303  -0.43856
 Alpha  occ. eigenvalues --   -0.42396  -0.42337  -0.41103  -0.40018  -0.39558
 Alpha  occ. eigenvalues --   -0.38778  -0.38285  -0.37426  -0.36996  -0.34060
 Alpha  occ. eigenvalues --   -0.33890  -0.30479
 Alpha virt. eigenvalues --   -0.12408  -0.11809  -0.10453  -0.09892  -0.08938
 Alpha virt. eigenvalues --   -0.07816  -0.07656  -0.05243  -0.03095  -0.02419
 Alpha virt. eigenvalues --   -0.02031  -0.01276  -0.00749  -0.00322   0.00039

 Mulliken charges:
               1
     1  N   -0.722717
     2  H    0.301336
     3  H    0.312264
     4  C   -0.064226
     5  H    0.154611
     6  C    0.623571
     7  C   -0.281787
     8  H    0.166055
     9  H    0.183646
    10  O   -0.588113
    11  C   -0.383455
    12  H    0.195962
    13  H    0.207437
    14  C    0.610144
    15  O   -0.496688
    16  O   -0.538441
    17  N   -0.640330
    18  H    0.406448
    19  C   -0.067630
    20  H    0.190630
    21  C    0.642076
    22  C   -0.337556
    23  H    0.182524
    24  H    0.153370
    25  O   -0.570031
    26  C    0.165480
    27  C   -0.206799
    28  H    0.132048
    29  C   -0.191865
    30  H    0.131537
    31  C   -0.155657
    32  H    0.160089
    33  C   -0.202047
    34  H    0.137430
    35  O   -0.628891
    36  H    0.416624
    37  C    0.353288
    38  N   -0.587605
    39  H    0.363066
    40  C   -0.039017
    41  H    0.165168
    42  C    0.573667
    43  C   -0.281255
    44  H    0.183177
    45  H    0.185422
    46  O   -0.418728
    47  C   -0.288853
    48  H    0.167647
    49  H    0.177736
    50  C   -0.298259
    51  H    0.167024
    52  H    0.188827
    53  C   -0.188104
    54  H    0.205718
    55  H    0.207917
    56  N   -0.799261
    57  H    0.441157
    58  H    0.398413
    59  H    0.455328
    60  O   -0.587534
    61  H    0.422906
    62  H    0.435107
 Sum of Mulliken charges =   1.00000

 Dipole moment (field-independent basis, Debye):
    X=              6.2853    Y=              1.0890    Z=              2.4766  Tot=              6.8428
 Quadrupole moment (field-independent basis, Debye-Ang):
   XX=            -96.8887   YY=           -167.3253   ZZ=           -151.1227
   XY=             18.0254   XZ=            -19.2349   YZ=             -7.1708

 Normal termination of Gaussian 16 at Wed Jun  1 23:25:17 2022.
