 Gaussian 16, Revision C.01,
 Gaussian 16:  ES64L-G16RevC.01  3-Jul-2019

 ----------------------------------------------------------------------
 # B3LYP/6-31G* empiricaldispersion=gd3 guess=read geom=check nosymm in
 tegral(ultrafinegrid)
 ----------------------------------------------------------------------

 ------------------------------------------------------
 Candidate Structure: Conf:879 Charge calc in gas phase
 ------------------------------------------------------
 Structure from the checkpoint file:  "conf-879.chk"
 Charge =  1 Multiplicity = 1

                          Input orientation:
 ---------------------------------------------------------------------
 Center     Atomic      Atomic             Coordinates (Angstroms)
 Number     Number       Type             X           Y           Z
 ---------------------------------------------------------------------
      1          7           0       -0.152469   -2.341104    3.965825
      2          1           0       -0.599786   -2.862670    4.715278
      3          1           0        0.448398   -2.981547    3.449105
      4          6           0       -1.144578   -1.786805    3.052531
      5          1           0       -1.660875   -0.965796    3.572667
      6          6           0       -0.383746   -1.234390    1.845260
      7          6           0       -2.213706   -2.763051    2.500307
      8          1           0       -1.708602   -3.550750    1.928583
      9          1           0       -2.868248   -2.238064    1.793316
     10          8           0        0.553625   -1.836516    1.340402
     11          6           0       -3.079057   -3.387071    3.594464
     12          1           0       -3.502468   -2.614625    4.253057
     13          1           0       -2.503884   -4.055606    4.244350
     14          6           0       -4.244470   -4.168787    3.019747
     15          8           0       -4.633403   -4.110723    1.874240
     16          8           0       -4.828573   -4.941020    3.963977
     17          7           0       -0.838744   -0.041440    1.337835
     18          1           0       -1.685690    0.349481    1.728571
     19          6           0       -0.400202    0.471871    0.045628
     20          1           0       -0.656368    1.538885    0.049208
     21          6           0        1.141051    0.397479   -0.105488
     22          6           0       -1.090857   -0.184151   -1.172730
     23          1           0       -0.752523   -1.220018   -1.247799
     24          1           0       -2.171537   -0.189948   -0.987753
     25          8           0        1.687759   -0.209300   -1.017186
     26          6           0       -0.767535    0.592402   -2.432659
     27          6           0       -1.277307    1.884014   -2.616455
     28          1           0       -2.013677    2.277196   -1.919178
     29          6           0        0.138386    0.097579   -3.380875
     30          1           0        0.554309   -0.893725   -3.246836
     31          6           0       -0.856768    2.688096   -3.680110
     32          1           0       -1.278966    3.676237   -3.844386
     33          6           0        0.575501    0.884119   -4.444961
     34          1           0        1.309022    0.497211   -5.148917
     35          8           0        0.602743    3.079171   -5.516832
     36          1           0        0.990219    2.588869   -6.261231
     37          6           0        0.088483    2.183208   -4.571881
     38          7           0        1.815993    1.190717    0.767267
     39          1           0        1.342328    1.584256    1.572343
     40          6           0        3.263941    1.296664    0.758099
     41          1           0        3.720728    0.324298    0.987736
     42          6           0        3.647770    2.258328    1.877292
     43          6           0        3.834113    1.757934   -0.609243
     44          1           0        4.904589    1.949465   -0.480026
     45          1           0        3.718187    0.924197   -1.303761
     46          8           0        2.858023    2.871480    2.563068
     47          6           0        3.142723    2.999387   -1.188112
     48          1           0        3.270801    3.856266   -0.511038
     49          1           0        2.063806    2.798106   -1.246251
     50          6           0        3.702360    3.349352   -2.576411
     51          1           0        4.794820    3.431004   -2.523104
     52          1           0        3.488734    2.538259   -3.285874
     53          6           0        3.203538    4.678745   -3.137636
     54          1           0        3.307509    5.482442   -2.403917
     55          1           0        3.727722    4.968908   -4.051365
     56          7           0        1.730747    4.612975   -3.504354
     57          1           0        1.326077    5.546303   -3.629450
     58          1           0        1.178616    4.129226   -2.784140
     59          1           0        1.547825    4.082223   -4.390192
     60          8           0        4.983655    2.351215    2.007822
     61          1           0       -5.579170   -5.393432    3.534119
     62          1           0        5.161812    2.955010    2.754158
 ---------------------------------------------------------------------

 SCF Done:  E(RB3LYP) =  -1526.27961773     A.U. after    1 cycles

 Alpha  occ. eigenvalues --  -19.32412 -19.29607 -19.25339 -19.24201 -19.20294
 Alpha  occ. eigenvalues --  -19.19837 -19.19774 -14.60381 -14.45313 -14.44816
 Alpha  occ. eigenvalues --  -14.37874 -10.42130 -10.39939 -10.38097 -10.37834
 Alpha  occ. eigenvalues --  -10.37052 -10.36664 -10.33716 -10.33360 -10.33292
 Alpha  occ. eigenvalues --  -10.31216 -10.30837 -10.30536 -10.30519 -10.30096
 Alpha  occ. eigenvalues --  -10.29766 -10.29738 -10.29171 -10.28376 -10.26873
 Alpha  occ. eigenvalues --  -10.25866  -1.20666  -1.19392  -1.16250  -1.14946
 Alpha  occ. eigenvalues --   -1.12872  -1.11831  -1.11546  -1.07345  -1.02115
 Alpha  occ. eigenvalues --   -1.01043  -0.96850  -0.95601  -0.94158  -0.89460
 Alpha  occ. eigenvalues --   -0.88609  -0.86318  -0.85802  -0.84619  -0.82853
 Alpha  occ. eigenvalues --   -0.78691  -0.77712  -0.75847  -0.74082  -0.73260
 Alpha  occ. eigenvalues --   -0.73093  -0.72079  -0.71513  -0.70795  -0.69000
 Alpha  occ. eigenvalues --   -0.67189  -0.66448  -0.66234  -0.64854  -0.64501
 Alpha  occ. eigenvalues --   -0.61590  -0.60837  -0.60361  -0.59258  -0.58771
 Alpha  occ. eigenvalues --   -0.58440  -0.58096  -0.57577  -0.56821  -0.56272
 Alpha  occ. eigenvalues --   -0.55876  -0.55721  -0.54629  -0.54394  -0.53882
 Alpha  occ. eigenvalues --   -0.53751  -0.53602  -0.52702  -0.52267  -0.51661
 Alpha  occ. eigenvalues --   -0.51283  -0.51055  -0.50427  -0.49946  -0.49276
 Alpha  occ. eigenvalues --   -0.49003  -0.48820  -0.47841  -0.47297  -0.46988
 Alpha  occ. eigenvalues --   -0.46154  -0.45829  -0.45764  -0.45728  -0.44926
 Alpha  occ. eigenvalues --   -0.44804  -0.44553  -0.44076  -0.43588  -0.42820
 Alpha  occ. eigenvalues --   -0.41801  -0.41411  -0.37693  -0.37629  -0.36767
 Alpha  occ. eigenvalues --   -0.35612  -0.35012  -0.34241  -0.33718  -0.33116
 Alpha  occ. eigenvalues --   -0.32716  -0.30026
 Alpha virt. eigenvalues --   -0.12409  -0.11423  -0.10682  -0.09206  -0.07014
 Alpha virt. eigenvalues --   -0.06508  -0.05866  -0.05622  -0.04691  -0.04029
 Alpha virt. eigenvalues --   -0.02256  -0.01936  -0.01522  -0.01283  -0.00802

 Mulliken charges:
               1
     1  N   -0.716955
     2  H    0.308571
     3  H    0.321977
     4  C   -0.075680
     5  H    0.132547
     6  C    0.634712
     7  C   -0.264384
     8  H    0.169726
     9  H    0.151117
    10  O   -0.510192
    11  C   -0.365393
    12  H    0.180477
    13  H    0.177007
    14  C    0.583767
    15  O   -0.457853
    16  O   -0.562486
    17  N   -0.620798
    18  H    0.335048
    19  C   -0.061919
    20  H    0.145367
    21  C    0.670333
    22  C   -0.345187
    23  H    0.200687
    24  H    0.158334
    25  O   -0.530028
    26  C    0.160825
    27  C   -0.187452
    28  H    0.148129
    29  C   -0.143120
    30  H    0.184141
    31  C   -0.220135
    32  H    0.150447
    33  C   -0.184440
    34  H    0.150029
    35  O   -0.681690
    36  H    0.437833
    37  C    0.301633
    38  N   -0.634706
    39  H    0.358336
    40  C   -0.008585
    41  H    0.213324
    42  C    0.576585
    43  C   -0.295065
    44  H    0.173566
    45  H    0.201326
    46  O   -0.463153
    47  C   -0.287851
    48  H    0.153426
    49  H    0.145217
    50  C   -0.290641
    51  H    0.194568
    52  H    0.174168
    53  C   -0.194580
    54  H    0.212049
    55  H    0.214123
    56  N   -0.769689
    57  H    0.411086
    58  H    0.412314
    59  H    0.445189
    60  O   -0.561915
    61  H    0.417064
    62  H    0.428854
 Sum of Mulliken charges =   1.00000

 Dipole moment (field-independent basis, Debye):
    X=              6.3447    Y=             17.2056    Z=            -10.8882  Tot=             21.3270
 Quadrupole moment (field-independent basis, Debye-Ang):
   XX=           -133.3292   YY=            -88.7974   ZZ=           -102.7625
   XY=             49.1652   XZ=            -37.1171   YZ=            -67.1263

 Normal termination of Gaussian 16 at Wed Jun  1 23:25:08 2022.
