 Gaussian 16, Revision C.01,
 Gaussian 16:  ES64L-G16RevC.01  3-Jul-2019

 ----------------------------------------------------------------------
 # B3LYP/6-31G* empiricaldispersion=gd3 guess=read geom=check nosymm in
 tegral(ultrafinegrid)
 ----------------------------------------------------------------------

 -----------------------------------------------------
 Candidate Structure: Conf:14 Charge calc in gas phase
 -----------------------------------------------------
 Structure from the checkpoint file:  "conf-14.chk"
 Charge =  1 Multiplicity = 1

                          Input orientation:
 ---------------------------------------------------------------------
 Center     Atomic      Atomic             Coordinates (Angstroms)
 Number     Number       Type             X           Y           Z
 ---------------------------------------------------------------------
      1          7           0       -0.006001   -1.918864    2.908201
      2          1           0        0.008496   -2.584307    3.674850
      3          1           0       -0.694473   -2.241823    2.229635
      4          6           0       -0.306107   -0.563588    3.377762
      5          1           0        0.099788   -0.446423    4.388274
      6          6           0        0.379527    0.477302    2.476914
      7          6           0       -1.811345   -0.179141    3.373866
      8          1           0       -2.127733   -0.063248    2.332137
      9          1           0       -1.926328    0.795268    3.856819
     10          8           0        0.278616    1.691976    2.676198
     11          6           0       -2.723546   -1.228861    4.037747
     12          1           0       -2.533712   -1.297673    5.112672
     13          1           0       -2.564100   -2.209603    3.580128
     14          6           0       -4.165877   -0.858125    3.785988
     15          8           0       -4.776730   -1.079455    2.750559
     16          8           0       -4.718752   -0.192384    4.809720
     17          7           0        1.005030   -0.024053    1.379652
     18          1           0        1.034989   -1.038913    1.327989
     19          6           0        1.081910    0.772545    0.161806
     20          1           0        0.326935    1.562723    0.268807
     21          6           0        2.437983    1.486911    0.085844
     22          6           0        0.737544   -0.077043   -1.081944
     23          1           0        0.623788    0.602743   -1.936537
     24          1           0        1.576030   -0.742208   -1.314469
     25          8           0        3.252083    1.302992   -0.846943
     26          6           0       -0.524680   -0.869899   -0.808254
     27          6           0       -0.471666   -2.252839   -0.594365
     28          1           0        0.446440   -2.795151   -0.810791
     29          6           0       -1.734585   -0.212594   -0.541715
     30          1           0       -1.818780    0.857863   -0.719801
     31          6           0       -1.553844   -2.947254   -0.053014
     32          1           0       -1.497844   -4.013724    0.141753
     33          6           0       -2.822730   -0.887175    0.004468
     34          1           0       -3.740108   -0.356820    0.241924
     35          8           0       -3.686146   -2.937063    0.966747
     36          1           0       -4.253924   -2.303843    1.458596
     37          6           0       -2.717534   -2.255465    0.311844
     38          7           0        2.660487    2.331463    1.102218
     39          1           0        1.951888    2.339584    1.849196
     40          6           0        3.936361    2.970016    1.392380
     41          1           0        4.689311    2.535490    0.729404
     42          6           0        4.331763    2.594161    2.823858
     43          6           0        3.895154    4.519024    1.222684
     44          1           0        2.860092    4.842711    1.381818
     45          1           0        4.495319    4.979870    2.012801
     46          8           0        3.609033    2.049215    3.622066
     47          6           0        4.415437    5.054588   -0.122964
     48          1           0        5.497160    4.873032   -0.181235
     49          1           0        4.300331    6.142954   -0.117159
     50          6           0        3.716732    4.468227   -1.379068
     51          1           0        2.833484    3.899820   -1.071935
     52          1           0        3.360826    5.272097   -2.033582
     53          6           0        4.655030    3.556355   -2.175140
     54          1           0        5.323479    4.120120   -2.830349
     55          1           0        5.248551    2.917155   -1.521063
     56          7           0        3.857507    2.589694   -3.026649
     57          1           0        4.454399    2.034259   -3.647451
     58          1           0        3.158144    3.068055   -3.602330
     59          1           0        3.385480    1.934998   -2.335309
     60          8           0        5.602560    2.971649    3.072856
     61          1           0       -5.634038    0.035164    4.554063
     62          1           0        5.802390    2.734492    3.998934
 ---------------------------------------------------------------------

 SCF Done:  E(RB3LYP) =  -1526.30732663     A.U. after    1 cycles

 Alpha  occ. eigenvalues --  -19.29871 -19.28375 -19.25292 -19.24332 -19.23231
 Alpha  occ. eigenvalues --  -19.23204 -19.20956 -14.59279 -14.47597 -14.44634
 Alpha  occ. eigenvalues --  -14.40853 -10.42434 -10.41375 -10.41229 -10.38946
 Alpha  occ. eigenvalues --  -10.37395 -10.35389 -10.33956 -10.32980 -10.32374
 Alpha  occ. eigenvalues --  -10.31419 -10.31178 -10.30584 -10.29442 -10.28387
 Alpha  occ. eigenvalues --  -10.27619 -10.27499 -10.27298 -10.27226 -10.26468
 Alpha  occ. eigenvalues --  -10.26201  -1.20826  -1.19480  -1.16421  -1.13822
 Alpha  occ. eigenvalues --   -1.12647  -1.12099  -1.11930  -1.10164  -1.04649
 Alpha  occ. eigenvalues --   -1.02057  -0.97861  -0.93830  -0.93405  -0.89817
 Alpha  occ. eigenvalues --   -0.87631  -0.87555  -0.84304  -0.82676  -0.81766
 Alpha  occ. eigenvalues --   -0.79910  -0.77983  -0.75654  -0.73778  -0.73558
 Alpha  occ. eigenvalues --   -0.72730  -0.71092  -0.69915  -0.69706  -0.69360
 Alpha  occ. eigenvalues --   -0.68147  -0.66548  -0.66422  -0.63642  -0.63441
 Alpha  occ. eigenvalues --   -0.61888  -0.61382  -0.60659  -0.59843  -0.58877
 Alpha  occ. eigenvalues --   -0.58547  -0.58142  -0.57572  -0.57384  -0.56891
 Alpha  occ. eigenvalues --   -0.56528  -0.55575  -0.55300  -0.54311  -0.53922
 Alpha  occ. eigenvalues --   -0.53351  -0.52923  -0.52632  -0.52219  -0.51906
 Alpha  occ. eigenvalues --   -0.51577  -0.51013  -0.50206  -0.49979  -0.49804
 Alpha  occ. eigenvalues --   -0.49618  -0.49184  -0.49104  -0.47789  -0.47223
 Alpha  occ. eigenvalues --   -0.46562  -0.46415  -0.45767  -0.45489  -0.44875
 Alpha  occ. eigenvalues --   -0.44499  -0.44186  -0.43557  -0.42940  -0.41996
 Alpha  occ. eigenvalues --   -0.40865  -0.40440  -0.39855  -0.39318  -0.38445
 Alpha  occ. eigenvalues --   -0.37533  -0.36727  -0.36179  -0.34717  -0.33174
 Alpha  occ. eigenvalues --   -0.32433  -0.29283
 Alpha virt. eigenvalues --   -0.11499  -0.10437  -0.09451  -0.08936  -0.08484
 Alpha virt. eigenvalues --   -0.07293  -0.06226  -0.05188  -0.03831  -0.02229
 Alpha virt. eigenvalues --   -0.02145  -0.01788  -0.00984  -0.00530   0.00814

 Mulliken charges:
               1
     1  N   -0.776668
     2  H    0.327492
     3  H    0.341243
     4  C   -0.054557
     5  H    0.180700
     6  C    0.623708
     7  C   -0.312054
     8  H    0.172623
     9  H    0.189566
    10  O   -0.549821
    11  C   -0.343130
    12  H    0.181406
    13  H    0.172941
    14  C    0.589269
    15  O   -0.491953
    16  O   -0.535462
    17  N   -0.590472
    18  H    0.374604
    19  C   -0.069033
    20  H    0.188105
    21  C    0.645993
    22  C   -0.378626
    23  H    0.138320
    24  H    0.166602
    25  O   -0.619154
    26  C    0.163508
    27  C   -0.202616
    28  H    0.137689
    29  C   -0.184854
    30  H    0.129904
    31  C   -0.185378
    32  H    0.156761
    33  C   -0.200876
    34  H    0.158172
    35  O   -0.669799
    36  H    0.452193
    37  C    0.351588
    38  N   -0.586785
    39  H    0.408041
    40  C   -0.055221
    41  H    0.190746
    42  C    0.576179
    43  C   -0.286301
    44  H    0.175781
    45  H    0.189926
    46  O   -0.432392
    47  C   -0.290701
    48  H    0.163714
    49  H    0.180169
    50  C   -0.294271
    51  H    0.171245
    52  H    0.174651
    53  C   -0.194076
    54  H    0.210769
    55  H    0.221644
    56  N   -0.751099
    57  H    0.410080
    58  H    0.401992
    59  H    0.444071
    60  O   -0.563093
    61  H    0.425038
    62  H    0.431959
 Sum of Mulliken charges =   1.00000

 Dipole moment (field-independent basis, Debye):
    X=             13.4545    Y=             11.3852    Z=             -3.7289  Tot=             18.0153
 Quadrupole moment (field-independent basis, Debye-Ang):
   XX=            -91.7000   YY=           -131.2302   ZZ=           -121.5111
   XY=             48.7101   XZ=            -43.2467   YZ=            -31.5796

 Normal termination of Gaussian 16 at Wed Jun  1 23:25:36 2022.
