 Gaussian 16, Revision C.01,
 Gaussian 16:  ES64L-G16RevC.01  3-Jul-2019

 ----------------------------------------------------------------------
 # B3LYP/6-31G* empiricaldispersion=gd3 guess=read geom=check nosymm in
 tegral(ultrafinegrid)
 ----------------------------------------------------------------------

 ------------------------------------------------------
 Candidate Structure: Conf:273 Charge calc in gas phase
 ------------------------------------------------------
 Structure from the checkpoint file:  "conf-273.chk"
 Charge =  1 Multiplicity = 1

                          Input orientation:
 ---------------------------------------------------------------------
 Center     Atomic      Atomic             Coordinates (Angstroms)
 Number     Number       Type             X           Y           Z
 ---------------------------------------------------------------------
      1          7           0        0.147961   -2.479059    3.403517
      2          1           0       -0.219626   -3.042348    4.166149
      3          1           0        0.601802   -3.105865    2.740882
      4          6           0       -0.925932   -1.761974    2.724182
      5          1           0       -1.377432   -1.072695    3.451167
      6          6           0       -0.274995   -0.970383    1.590790
      7          6           0       -2.051877   -2.624943    2.098938
      8          1           0       -1.606106   -3.298522    1.358664
      9          1           0       -2.754624   -1.970678    1.564305
     10          8           0        0.489781   -1.534379    0.797397
     11          6           0       -2.822440   -3.438503    3.152168
     12          1           0       -3.278120   -2.780782    3.897658
     13          1           0       -2.141331   -4.131436    3.659082
     14          6           0       -3.936380   -4.239634    2.512510
     15          8           0       -5.118337   -4.006413    2.611298
     16          8           0       -3.438745   -5.257829    1.765129
     17          7           0       -0.617310    0.339205    1.483500
     18          1           0       -1.185390    0.734145    2.219875
     19          6           0       -0.247867    1.235759    0.382629
     20          1           0       -0.745353    2.183580    0.592992
     21          6           0        1.243051    1.626382    0.323932
     22          6           0       -0.757009    0.689026   -0.993124
     23          1           0       -0.612427   -0.392730   -1.002391
     24          1           0       -1.837179    0.873707   -1.035500
     25          8           0        1.560262    2.812147    0.213757
     26          6           0       -0.043359    1.292049   -2.185489
     27          6           0        0.093759    2.680655   -2.329989
     28          1           0       -0.389010    3.349812   -1.626166
     29          6           0        0.580816    0.465911   -3.127276
     30          1           0        0.472019   -0.612621   -3.049641
     31          6           0        0.904758    3.224790   -3.320752
     32          1           0        1.033984    4.298756   -3.413841
     33          6           0        1.385267    0.993653   -4.139325
     34          1           0        1.895172    0.333873   -4.837994
     35          8           0        2.519648    2.963914   -5.034113
     36          1           0        2.721564    2.370532   -5.776140
     37          6           0        1.575851    2.372330   -4.195879
     38          7           0        2.156179    0.629617    0.313444
     39          1           0        1.818216   -0.334285    0.376983
     40          6           0        3.539281    0.891665   -0.059510
     41          1           0        4.166917    0.174007    0.483696
     42          6           0        3.984001    2.281544    0.417773
     43          6           0        3.748772    0.742662   -1.573232
     44          1           0        3.259453   -0.182361   -1.892028
     45          1           0        3.179893    1.540638   -2.058527
     46          8           0        4.453629    3.154718   -0.306848
     47          6           0        5.231311    0.719783   -2.008179
     48          1           0        5.582777   -0.317298   -1.997407
     49          1           0        5.855191    1.254419   -1.282497
     50          6           0        5.489316    1.313817   -3.408547
     51          1           0        6.388796    0.861502   -3.841753
     52          1           0        4.663671    1.066626   -4.089417
     53          6           0        5.739911    2.823203   -3.434558
     54          1           0        6.545042    3.099908   -2.749004
     55          1           0        6.002407    3.163858   -4.439603
     56          7           0        4.525604    3.615812   -3.010434
     57          1           0        4.712821    4.622246   -3.049042
     58          1           0        4.282955    3.388501   -2.011359
     59          1           0        3.738140    3.419400   -3.655484
     60          8           0        3.967468    2.384596    1.742716
     61          1           0       -4.205780   -5.716030    1.372234
     62          1           0        4.241430    3.291056    1.980599
 ---------------------------------------------------------------------

 SCF Done:  E(RB3LYP) =  -1526.30322357     A.U. after    2 cycles

 Alpha  occ. eigenvalues --  -19.31206 -19.30815 -19.26334 -19.25757 -19.22282
 Alpha  occ. eigenvalues --  -19.22033 -19.20030 -14.56735 -14.47335 -14.45836
 Alpha  occ. eigenvalues --  -14.39648 -10.44671 -10.39058 -10.38963 -10.38337
 Alpha  occ. eigenvalues --  -10.37953 -10.36258 -10.35325 -10.34487 -10.32490
 Alpha  occ. eigenvalues --  -10.31443 -10.30683 -10.30207 -10.30138 -10.29907
 Alpha  occ. eigenvalues --  -10.29825 -10.29663 -10.29587 -10.29479 -10.27504
 Alpha  occ. eigenvalues --  -10.27345  -1.22468  -1.18293  -1.16515  -1.14428
 Alpha  occ. eigenvalues --   -1.13618  -1.13462  -1.11707  -1.07614  -1.03329
 Alpha  occ. eigenvalues --   -1.02771  -0.97317  -0.96407  -0.93169  -0.90009
 Alpha  occ. eigenvalues --   -0.88446  -0.86850  -0.85767  -0.84553  -0.82913
 Alpha  occ. eigenvalues --   -0.79524  -0.77738  -0.76606  -0.73777  -0.73208
 Alpha  occ. eigenvalues --   -0.72313  -0.71229  -0.70666  -0.70172  -0.69389
 Alpha  occ. eigenvalues --   -0.68394  -0.67576  -0.66573  -0.65718  -0.63774
 Alpha  occ. eigenvalues --   -0.62812  -0.62475  -0.61270  -0.60112  -0.59712
 Alpha  occ. eigenvalues --   -0.58976  -0.57738  -0.57434  -0.56414  -0.56311
 Alpha  occ. eigenvalues --   -0.55762  -0.55224  -0.55102  -0.54605  -0.54179
 Alpha  occ. eigenvalues --   -0.53967  -0.53661  -0.53358  -0.52868  -0.52715
 Alpha  occ. eigenvalues --   -0.52334  -0.51907  -0.50812  -0.50567  -0.50222
 Alpha  occ. eigenvalues --   -0.49471  -0.49292  -0.48937  -0.48306  -0.47958
 Alpha  occ. eigenvalues --   -0.47225  -0.46487  -0.46267  -0.45985  -0.45668
 Alpha  occ. eigenvalues --   -0.45292  -0.44489  -0.44321  -0.43865  -0.43645
 Alpha  occ. eigenvalues --   -0.43065  -0.42855  -0.40407  -0.38162  -0.37880
 Alpha  occ. eigenvalues --   -0.36719  -0.36131  -0.35105  -0.34760  -0.33549
 Alpha  occ. eigenvalues --   -0.33279  -0.31704
 Alpha virt. eigenvalues --   -0.11441  -0.10950  -0.10496  -0.08941  -0.08326
 Alpha virt. eigenvalues --   -0.07543  -0.06071  -0.05132  -0.03201  -0.02448
 Alpha virt. eigenvalues --   -0.02070  -0.01655  -0.00660   0.00183   0.00519

 Mulliken charges:
               1
     1  N   -0.711776
     2  H    0.316407
     3  H    0.319568
     4  C   -0.070531
     5  H    0.142694
     6  C    0.659963
     7  C   -0.282912
     8  H    0.179467
     9  H    0.150193
    10  O   -0.565680
    11  C   -0.335460
    12  H    0.176513
    13  H    0.165020
    14  C    0.559660
    15  O   -0.443010
    16  O   -0.561851
    17  N   -0.607741
    18  H    0.352940
    19  C   -0.064481
    20  H    0.182452
    21  C    0.633251
    22  C   -0.368301
    23  H    0.192176
    24  H    0.179858
    25  O   -0.537564
    26  C    0.149760
    27  C   -0.148130
    28  H    0.160556
    29  C   -0.195382
    30  H    0.157645
    31  C   -0.176246
    32  H    0.154889
    33  C   -0.180530
    34  H    0.141383
    35  O   -0.679832
    36  H    0.429366
    37  C    0.308464
    38  N   -0.616737
    39  H    0.392501
    40  C   -0.032033
    41  H    0.193988
    42  C    0.650647
    43  C   -0.283885
    44  H    0.167879
    45  H    0.151195
    46  O   -0.539228
    47  C   -0.288420
    48  H    0.174463
    49  H    0.160027
    50  C   -0.288226
    51  H    0.189259
    52  H    0.151742
    53  C   -0.196918
    54  H    0.213060
    55  H    0.201661
    56  N   -0.800698
    57  H    0.401709
    58  H    0.455367
    59  H    0.443579
    60  O   -0.532891
    61  H    0.417118
    62  H    0.432046
 Sum of Mulliken charges =   1.00000

 Dipole moment (field-independent basis, Debye):
    X=             15.5508    Y=              8.1744    Z=             -9.7906  Tot=             20.1123
 Quadrupole moment (field-independent basis, Debye-Ang):
   XX=            -99.5532   YY=           -128.6840   ZZ=           -116.9917
   XY=             47.2577   XZ=            -53.2128   YZ=            -30.2738

 Normal termination of Gaussian 16 at Wed Jun  1 23:25:22 2022.
