 Gaussian 16, Revision C.01,
 Gaussian 16:  ES64L-G16RevC.01  3-Jul-2019

 ----------------------------------------------------------------------
 # B3LYP/6-31G* empiricaldispersion=gd3 guess=read geom=check nosymm in
 tegral(ultrafinegrid)
 ----------------------------------------------------------------------

 ------------------------------------------------------
 Candidate Structure: Conf:122 Charge calc in gas phase
 ------------------------------------------------------
 Structure from the checkpoint file:  "conf-122.chk"
 Charge =  1 Multiplicity = 1

                          Input orientation:
 ---------------------------------------------------------------------
 Center     Atomic      Atomic             Coordinates (Angstroms)
 Number     Number       Type             X           Y           Z
 ---------------------------------------------------------------------
      1          7           0       -0.959970   -0.880481    4.819746
      2          1           0       -0.636302    0.069972    5.003536
      3          1           0       -1.956514   -0.800303    4.622596
      4          6           0       -0.259862   -1.377271    3.638856
      5          1           0       -0.764805   -2.288352    3.300058
      6          6           0       -0.238027   -0.346666    2.498880
      7          6           0        1.190073   -1.718832    4.044174
      8          1           0        1.140333   -2.416854    4.885333
      9          1           0        1.669331   -0.802555    4.408682
     10          8           0       -0.073279    0.852607    2.721822
     11          6           0        2.076120   -2.300517    2.916192
     12          1           0        3.068357   -2.519504    3.318987
     13          1           0        2.180017   -1.580397    2.098673
     14          6           0        1.472439   -3.563979    2.357547
     15          8           0        0.601662   -3.607432    1.498426
     16          8           0        1.950530   -4.674696    2.940084
     17          7           0       -0.398500   -0.817955    1.223470
     18          1           0       -0.276866   -1.815311    1.062173
     19          6           0       -0.255918    0.140678    0.143745
     20          1           0       -0.936625    0.965457    0.381664
     21          6           0        1.175523    0.723942    0.132936
     22          6           0       -0.726439   -0.394514   -1.222049
     23          1           0       -1.778560   -0.678732   -1.087293
     24          1           0       -0.742837    0.463656   -1.907478
     25          8           0        2.179192    0.006362    0.175738
     26          6           0       -0.021969   -1.557240   -1.910942
     27          6           0        0.967830   -2.366539   -1.327295
     28          1           0        1.351231   -2.129022   -0.346591
     29          6           0       -0.462034   -1.905904   -3.203582
     30          1           0       -1.237645   -1.310974   -3.681274
     31          6           0        1.483247   -3.479016   -1.993949
     32          1           0        2.221236   -4.116215   -1.517050
     33          6           0        0.049667   -3.011563   -3.886229
     34          1           0       -0.321978   -3.259320   -4.878089
     35          8           0        1.571772   -4.910974   -3.867728
     36          1           0        1.071769   -5.151984   -4.664232
     37          6           0        1.018017   -3.820483   -3.271737
     38          7           0        1.243007    2.077005    0.032990
     39          1           0        0.393898    2.586232    0.247350
     40          6           0        2.481695    2.796500    0.346431
     41          1           0        3.066089    2.162148    1.024088
     42          6           0        2.199999    4.083403    1.125249
     43          6           0        3.375928    3.140989   -0.867924
     44          1           0        2.791203    3.709391   -1.602923
     45          1           0        4.153573    3.811254   -0.490270
     46          8           0        3.076625    4.790620    1.557000
     47          6           0        4.043209    1.921105   -1.523794
     48          1           0        4.338061    1.220907   -0.734432
     49          1           0        4.963562    2.238916   -2.027020
     50          6           0        3.148231    1.190681   -2.545737
     51          1           0        2.103057    1.232258   -2.225807
     52          1           0        3.207598    1.692726   -3.521357
     53          6           0        3.566736   -0.266571   -2.664197
     54          1           0        4.593832   -0.388012   -3.018450
     55          1           0        3.437435   -0.774777   -1.707281
     56          7           0        2.672605   -0.999710   -3.645490
     57          1           0        2.870862   -2.006660   -3.675367
     58          1           0        2.748400   -0.618886   -4.593734
     59          1           0        1.682372   -0.936235   -3.345937
     60          8           0        0.880987    4.351830    1.257083
     61          1           0        1.461673   -5.435422    2.570165
     62          1           0        0.799667    5.172351    1.779892
 ---------------------------------------------------------------------

 SCF Done:  E(RB3LYP) =  -1526.29668057     A.U. after    1 cycles

 Alpha  occ. eigenvalues --  -19.29838 -19.29721 -19.28973 -19.23733 -19.23316
 Alpha  occ. eigenvalues --  -19.23089 -19.20198 -14.60406 -14.46742 -14.44583
 Alpha  occ. eigenvalues --  -14.38456 -10.41868 -10.41615 -10.39708 -10.38407
 Alpha  occ. eigenvalues --  -10.37786 -10.36508 -10.34175 -10.34159 -10.32322
 Alpha  occ. eigenvalues --  -10.32303 -10.32157 -10.31903 -10.31645 -10.31068
 Alpha  occ. eigenvalues --  -10.30990 -10.30007 -10.29971 -10.29397 -10.28261
 Alpha  occ. eigenvalues --  -10.27352  -1.20363  -1.20036  -1.18063  -1.14993
 Alpha  occ. eigenvalues --   -1.14744  -1.11988  -1.11358  -1.10812  -1.03354
 Alpha  occ. eigenvalues --   -1.01415  -0.98054  -0.96143  -0.93441  -0.90487
 Alpha  occ. eigenvalues --   -0.88723  -0.87678  -0.87369  -0.85063  -0.82909
 Alpha  occ. eigenvalues --   -0.79209  -0.77751  -0.76734  -0.74166  -0.74055
 Alpha  occ. eigenvalues --   -0.73393  -0.72436  -0.71618  -0.70639  -0.69371
 Alpha  occ. eigenvalues --   -0.68821  -0.67664  -0.67056  -0.65763  -0.63991
 Alpha  occ. eigenvalues --   -0.63283  -0.61360  -0.60940  -0.60611  -0.59391
 Alpha  occ. eigenvalues --   -0.59122  -0.58510  -0.57400  -0.56961  -0.56791
 Alpha  occ. eigenvalues --   -0.56675  -0.55850  -0.55658  -0.55325  -0.54549
 Alpha  occ. eigenvalues --   -0.54174  -0.54119  -0.53694  -0.52875  -0.52590
 Alpha  occ. eigenvalues --   -0.52191  -0.51855  -0.51250  -0.50530  -0.50033
 Alpha  occ. eigenvalues --   -0.49788  -0.49612  -0.49441  -0.48757  -0.47563
 Alpha  occ. eigenvalues --   -0.47452  -0.46748  -0.46205  -0.45853  -0.45350
 Alpha  occ. eigenvalues --   -0.45179  -0.44890  -0.44478  -0.44215  -0.43515
 Alpha  occ. eigenvalues --   -0.41993  -0.41337  -0.41031  -0.38380  -0.38211
 Alpha  occ. eigenvalues --   -0.37531  -0.36939  -0.36012  -0.34842  -0.34487
 Alpha  occ. eigenvalues --   -0.33799  -0.30875
 Alpha virt. eigenvalues --   -0.13682  -0.12123  -0.10723  -0.09652  -0.08777
 Alpha virt. eigenvalues --   -0.08631  -0.06423  -0.05174  -0.04368  -0.03834
 Alpha virt. eigenvalues --   -0.02895  -0.02052  -0.01679  -0.00726   0.00195

 Mulliken charges:
               1
     1  N   -0.693670
     2  H    0.316977
     3  H    0.307923
     4  C   -0.088398
     5  H    0.154872
     6  C    0.596069
     7  C   -0.267777
     8  H    0.186020
     9  H    0.169943
    10  O   -0.545050
    11  C   -0.383784
    12  H    0.184143
    13  H    0.202723
    14  C    0.591165
    15  O   -0.496472
    16  O   -0.539190
    17  N   -0.626655
    18  H    0.384215
    19  C   -0.053962
    20  H    0.174761
    21  C    0.634422
    22  C   -0.372432
    23  H    0.200370
    24  H    0.159102
    25  O   -0.552924
    26  C    0.085952
    27  C   -0.165102
    28  H    0.190933
    29  C   -0.211308
    30  H    0.160732
    31  C   -0.219522
    32  H    0.173549
    33  C   -0.210993
    34  H    0.157338
    35  O   -0.627573
    36  H    0.425433
    37  C    0.336306
    38  N   -0.608711
    39  H    0.374453
    40  C   -0.048493
    41  H    0.210579
    42  C    0.599439
    43  C   -0.279662
    44  H    0.151612
    45  H    0.196644
    46  O   -0.438276
    47  C   -0.278863
    48  H    0.175508
    49  H    0.163381
    50  C   -0.285242
    51  H    0.170588
    52  H    0.154950
    53  C   -0.209474
    54  H    0.206448
    55  H    0.248903
    56  N   -0.751516
    57  H    0.419021
    58  H    0.404461
    59  H    0.410466
    60  O   -0.579747
    61  H    0.420433
    62  H    0.434964
 Sum of Mulliken charges =   1.00000

 Dipole moment (field-independent basis, Debye):
    X=              7.6074    Y=             -4.4478    Z=            -14.2517  Tot=             16.7561
 Quadrupole moment (field-independent basis, Debye-Ang):
   XX=           -149.5375   YY=           -140.3656   ZZ=           -113.5877
   XY=            -11.9001   XZ=            -31.8229   YZ=             17.3542

 Normal termination of Gaussian 16 at Wed Jun  1 23:25:13 2022.
