 Gaussian 16, Revision C.01,
 Gaussian 16:  ES64L-G16RevC.01  3-Jul-2019

 ----------------------------------------------------------------------
 # B3LYP/6-31G* empiricaldispersion=gd3 guess=read geom=check nosymm in
 tegral(ultrafinegrid)
 ----------------------------------------------------------------------

 ------------------------------------------------------
 Candidate Structure: Conf:883 Charge calc in gas phase
 ------------------------------------------------------
 Structure from the checkpoint file:  "conf-883.chk"
 Charge =  1 Multiplicity = 1

                          Input orientation:
 ---------------------------------------------------------------------
 Center     Atomic      Atomic             Coordinates (Angstroms)
 Number     Number       Type             X           Y           Z
 ---------------------------------------------------------------------
      1          7           0        2.051393   -2.635488    1.309049
      2          1           0        2.267352   -3.184979    2.142858
      3          1           0        1.932160   -3.276327    0.524294
      4          6           0        0.777200   -1.931382    1.558859
      5          1           0        0.879714   -1.456561    2.539286
      6          6           0        0.632331   -0.863781    0.471741
      7          6           0       -0.481702   -2.830701    1.553850
      8          1           0       -0.688435   -3.140369    0.522675
      9          1           0       -1.342890   -2.231581    1.870911
     10          8           0        1.034825   -1.081277   -0.675058
     11          6           0       -0.374667   -4.105795    2.419967
     12          1           0        0.346155   -4.796892    1.969751
     13          1           0       -1.344504   -4.607085    2.450315
     14          6           0        0.117326   -3.825224    3.823691
     15          8           0        1.246745   -3.446918    4.084986
     16          8           0       -0.825258   -4.015285    4.759224
     17          7           0        0.058205    0.301669    0.834469
     18          1           0       -0.190754    0.448768    1.801393
     19          6           0       -0.047370    1.426607   -0.084975
     20          1           0       -0.488356    2.244601    0.496322
     21          6           0        1.381011    1.893988   -0.458713
     22          6           0       -0.984628    1.137552   -1.292418
     23          1           0       -1.217028    2.092906   -1.779831
     24          1           0       -0.448471    0.514476   -2.011387
     25          8           0        2.341084    1.670331    0.294260
     26          6           0       -2.263588    0.459294   -0.861281
     27          6           0       -2.399227   -0.932728   -0.960374
     28          1           0       -1.592728   -1.513110   -1.401223
     29          6           0       -3.316792    1.187671   -0.298428
     30          1           0       -3.245525    2.270921   -0.221336
     31          6           0       -3.542438   -1.582073   -0.506244
     32          1           0       -3.656221   -2.657904   -0.594267
     33          6           0       -4.469758    0.552778    0.162038
     34          1           0       -5.281617    1.137349    0.589578
     35          8           0       -5.676590   -1.530661    0.492837
     36          1           0       -6.350564   -0.913463    0.818373
     37          6           0       -4.585313   -0.839139    0.061759
     38          7           0        1.515557    2.578216   -1.606813
     39          1           0        0.699840    2.820561   -2.159808
     40          6           0        2.729446    3.308506   -1.967122
     41          1           0        3.215493    3.640072   -1.043160
     42          6           0        2.264576    4.540036   -2.744436
     43          6           0        3.763816    2.516921   -2.807684
     44          1           0        3.287140    2.180562   -3.737488
     45          1           0        4.539400    3.235087   -3.091365
     46          8           0        1.135508    4.693902   -3.158745
     47          6           0        4.414168    1.325277   -2.076853
     48          1           0        4.544357    1.595665   -1.022459
     49          1           0        5.420418    1.167081   -2.483907
     50          6           0        3.613557    0.019800   -2.212988
     51          1           0        2.543917    0.192262   -2.082593
     52          1           0        3.734682   -0.373873   -3.229881
     53          6           0        4.028939   -1.090236   -1.250614
     54          1           0        3.427527   -1.981693   -1.431117
     55          1           0        5.086405   -1.349142   -1.350704
     56          7           0        3.790436   -0.708242    0.199672
     57          1           0        4.664380   -0.533188    0.698661
     58          1           0        3.240505   -1.476626    0.707524
     59          1           0        3.216939    0.161318    0.266489
     60          8           0        3.266724    5.411005   -2.930887
     61          1           0       -0.423202   -3.820386    5.628555
     62          1           0        2.918424    6.159046   -3.453902
 ---------------------------------------------------------------------

 SCF Done:  E(RB3LYP) =  -1526.33407664     A.U. after    1 cycles

 Alpha  occ. eigenvalues --  -19.30410 -19.29876 -19.25621 -19.25055 -19.24374
 Alpha  occ. eigenvalues --  -19.24018 -19.23548 -14.53042 -14.48161 -14.48099
 Alpha  occ. eigenvalues --  -14.45545 -10.43047 -10.42575 -10.41251 -10.40398
 Alpha  occ. eigenvalues --  -10.35520 -10.35172 -10.35126 -10.34527 -10.33174
 Alpha  occ. eigenvalues --  -10.30851 -10.30658 -10.29793 -10.29522 -10.29466
 Alpha  occ. eigenvalues --  -10.29252 -10.27795 -10.27702 -10.27397 -10.27242
 Alpha  occ. eigenvalues --  -10.26742  -1.21524  -1.20847  -1.16362  -1.15075
 Alpha  occ. eigenvalues --   -1.13769  -1.12727  -1.11765  -1.08280  -1.04545
 Alpha  occ. eigenvalues --   -1.04474  -1.01817  -0.93973  -0.91845  -0.90317
 Alpha  occ. eigenvalues --   -0.89405  -0.87462  -0.84009  -0.83119  -0.82566
 Alpha  occ. eigenvalues --   -0.81234  -0.76562  -0.75582  -0.74934  -0.73062
 Alpha  occ. eigenvalues --   -0.70825  -0.70321  -0.69989  -0.69694  -0.69326
 Alpha  occ. eigenvalues --   -0.67680  -0.67232  -0.66633  -0.65286  -0.63705
 Alpha  occ. eigenvalues --   -0.62599  -0.61048  -0.60498  -0.60208  -0.59515
 Alpha  occ. eigenvalues --   -0.58908  -0.58208  -0.57907  -0.57479  -0.57255
 Alpha  occ. eigenvalues --   -0.56776  -0.56405  -0.55813  -0.55062  -0.54688
 Alpha  occ. eigenvalues --   -0.54477  -0.53975  -0.53268  -0.52965  -0.52444
 Alpha  occ. eigenvalues --   -0.51831  -0.51245  -0.50875  -0.50518  -0.50362
 Alpha  occ. eigenvalues --   -0.50010  -0.49577  -0.48630  -0.48519  -0.47856
 Alpha  occ. eigenvalues --   -0.47397  -0.47155  -0.46533  -0.46200  -0.45640
 Alpha  occ. eigenvalues --   -0.44877  -0.44538  -0.44174  -0.44026  -0.42425
 Alpha  occ. eigenvalues --   -0.41965  -0.41876  -0.41072  -0.39834  -0.38999
 Alpha  occ. eigenvalues --   -0.38107  -0.37743  -0.37539  -0.37329  -0.36847
 Alpha  occ. eigenvalues --   -0.33554  -0.30011
 Alpha virt. eigenvalues --   -0.10971  -0.10249  -0.09724  -0.09548  -0.08515
 Alpha virt. eigenvalues --   -0.07313  -0.05943  -0.04145  -0.03224  -0.02174
 Alpha virt. eigenvalues --   -0.01361  -0.00643  -0.00342   0.00230   0.00358

 Mulliken charges:
               1
     1  N   -0.787529
     2  H    0.363955
     3  H    0.334899
     4  C   -0.071388
     5  H    0.173260
     6  C    0.640356
     7  C   -0.295855
     8  H    0.175842
     9  H    0.179690
    10  O   -0.564596
    11  C   -0.353318
    12  H    0.177324
    13  H    0.201293
    14  C    0.585747
    15  O   -0.473157
    16  O   -0.540082
    17  N   -0.577682
    18  H    0.348697
    19  C   -0.060614
    20  H    0.191412
    21  C    0.654697
    22  C   -0.397356
    23  H    0.164458
    24  H    0.188802
    25  O   -0.582255
    26  C    0.173481
    27  C   -0.200679
    28  H    0.144264
    29  C   -0.196786
    30  H    0.133280
    31  C   -0.167342
    32  H    0.149745
    33  C   -0.191050
    34  H    0.138637
    35  O   -0.631980
    36  H    0.417136
    37  C    0.354415
    38  N   -0.606992
    39  H    0.373676
    40  C   -0.041322
    41  H    0.204337
    42  C    0.588372
    43  C   -0.276902
    44  H    0.160990
    45  H    0.186113
    46  O   -0.456985
    47  C   -0.276845
    48  H    0.145213
    49  H    0.158830
    50  C   -0.313267
    51  H    0.198938
    52  H    0.171714
    53  C   -0.156602
    54  H    0.198479
    55  H    0.184072
    56  N   -0.826837
    57  H    0.381840
    58  H    0.440223
    59  H    0.457297
    60  O   -0.553916
    61  H    0.425211
    62  H    0.434640
 Sum of Mulliken charges =   1.00000

 Dipole moment (field-independent basis, Debye):
    X=              7.4665    Y=              0.0220    Z=              1.6493  Tot=              7.6465
 Quadrupole moment (field-independent basis, Debye-Ang):
   XX=           -115.1246   YY=           -131.0438   ZZ=           -150.0617
   XY=              0.5761   XZ=            -23.8440   YZ=            -24.7307

 Normal termination of Gaussian 16 at Wed Jun  1 23:25:10 2022.
