 Gaussian 16, Revision C.01,
 Gaussian 16:  ES64L-G16RevC.01  3-Jul-2019

 ----------------------------------------------------------------------
 # B3LYP/6-31G* empiricaldispersion=gd3 guess=read geom=check nosymm in
 tegral(ultrafinegrid)
 ----------------------------------------------------------------------

 ------------------------------------------------------
 Candidate Structure: Conf:234 Charge calc in gas phase
 ------------------------------------------------------
 Structure from the checkpoint file:  "conf-234.chk"
 Charge =  1 Multiplicity = 1

                          Input orientation:
 ---------------------------------------------------------------------
 Center     Atomic      Atomic             Coordinates (Angstroms)
 Number     Number       Type             X           Y           Z
 ---------------------------------------------------------------------
      1          7           0        1.816870   -1.632463    2.295812
      2          1           0        1.922352   -0.622410    2.199194
      3          1           0        2.022511   -1.866318    3.265588
      4          6           0        0.427773   -2.032599    1.963198
      5          1           0       -0.286437   -1.757935    2.757553
      6          6           0        0.099769   -1.233278    0.694118
      7          6           0        0.331249   -3.544963    1.696771
      8          1           0        0.696946   -3.759111    0.689352
      9          1           0       -0.724733   -3.834021    1.718091
     10          8           0        0.408181   -1.646748   -0.436146
     11          6           0        1.116595   -4.404780    2.693789
     12          1           0        0.792347   -5.449679    2.600318
     13          1           0        0.935340   -4.121263    3.735542
     14          6           0        2.608252   -4.417773    2.425798
     15          8           0        3.132821   -4.410228    1.322915
     16          8           0        3.320757   -4.501391    3.559105
     17          7           0       -0.398203    0.001571    0.877166
     18          1           0       -0.631082    0.293457    1.815928
     19          6           0       -0.250215    1.032654   -0.143999
     20          1           0       -0.584539    1.966024    0.323341
     21          6           0        1.267822    1.205736   -0.441783
     22          6           0       -1.137411    0.787354   -1.397572
     23          1           0       -1.126655    1.699201   -2.006955
     24          1           0       -0.691236   -0.014137   -1.989349
     25          8           0        2.136439    0.741896    0.305249
     26          6           0       -2.561143    0.446918   -1.026092
     27          6           0       -2.963154   -0.890236   -0.892206
     28          1           0       -2.248264   -1.682936   -1.098518
     29          6           0       -3.498851    1.450436   -0.762335
     30          1           0       -3.217796    2.496380   -0.870228
     31          6           0       -4.257710   -1.218776   -0.506840
     32          1           0       -4.576519   -2.251959   -0.413854
     33          6           0       -4.801111    1.137915   -0.373664
     34          1           0       -5.519647    1.931994   -0.181843
     35          8           0       -6.436970   -0.586194    0.130367
     36          1           0       -6.999222    0.195314    0.249465
     37          6           0       -5.185086   -0.202065   -0.243837
     38          7           0        1.562878    1.923227   -1.545966
     39          1           0        0.816359    2.366359   -2.071617
     40          6           0        2.883262    2.495793   -1.794754
     41          1           0        3.382223    2.639005   -0.829753
     42          6           0        2.641462    3.868146   -2.424602
     43          6           0        3.810683    1.654067   -2.702976
     44          1           0        3.323513    1.507524   -3.675637
     45          1           0        4.700867    2.263939   -2.884846
     46          8           0        1.562324    4.251575   -2.822727
     47          6           0        4.233300    0.298809   -2.101893
     48          1           0        4.282717    0.400371   -1.011470
     49          1           0        5.249971    0.063853   -2.440357
     50          6           0        3.318497   -0.871321   -2.499205
     51          1           0        2.263956   -0.624830   -2.331368
     52          1           0        3.424116   -1.057884   -3.574309
     53          6           0        3.648977   -2.170543   -1.760793
     54          1           0        3.196217   -3.038825   -2.245679
     55          1           0        4.727837   -2.338551   -1.693051
     56          7           0        3.094128   -2.137188   -0.367981
     57          1           0        3.307844   -2.973905    0.203299
     58          1           0        2.051240   -2.074625   -0.406252
     59          1           0        3.372765   -1.304317    0.159819
     60          8           0        3.775164    4.580200   -2.502547
     61          1           0        4.263551   -4.580104    3.314976
     62          1           0        3.564176    5.430365   -2.935157
 ---------------------------------------------------------------------

 SCF Done:  E(RB3LYP) =  -1526.33151107     A.U. after    1 cycles

 Alpha  occ. eigenvalues --  -19.31023 -19.30498 -19.25568 -19.25145 -19.25078
 Alpha  occ. eigenvalues --  -19.25026 -19.24059 -14.53199 -14.48918 -14.47775
 Alpha  occ. eigenvalues --  -14.44173 -10.43974 -10.43116 -10.41596 -10.41105
 Alpha  occ. eigenvalues --  -10.35686 -10.35522 -10.35135 -10.34726 -10.32611
 Alpha  occ. eigenvalues --  -10.31099 -10.30280 -10.29964 -10.29877 -10.29530
 Alpha  occ. eigenvalues --  -10.29434 -10.27321 -10.27230 -10.26869 -10.26695
 Alpha  occ. eigenvalues --  -10.26116  -1.22067  -1.21606  -1.17149  -1.15334
 Alpha  occ. eigenvalues --   -1.13226  -1.12907  -1.12805  -1.08922  -1.05314
 Alpha  occ. eigenvalues --   -1.04399  -1.01032  -0.93544  -0.92061  -0.90259
 Alpha  occ. eigenvalues --   -0.89592  -0.87609  -0.83862  -0.82814  -0.82565
 Alpha  occ. eigenvalues --   -0.81455  -0.76773  -0.75806  -0.75002  -0.73185
 Alpha  occ. eigenvalues --   -0.70906  -0.70624  -0.69935  -0.69755  -0.68934
 Alpha  occ. eigenvalues --   -0.67788  -0.66860  -0.66663  -0.65101  -0.63491
 Alpha  occ. eigenvalues --   -0.62055  -0.61881  -0.61052  -0.60603  -0.60107
 Alpha  occ. eigenvalues --   -0.59774  -0.58904  -0.58463  -0.57916  -0.57544
 Alpha  occ. eigenvalues --   -0.57114  -0.56550  -0.56291  -0.54885  -0.54580
 Alpha  occ. eigenvalues --   -0.54507  -0.53990  -0.53090  -0.52690  -0.52553
 Alpha  occ. eigenvalues --   -0.51964  -0.51824  -0.51229  -0.50714  -0.50320
 Alpha  occ. eigenvalues --   -0.49910  -0.49756  -0.48218  -0.48155  -0.47747
 Alpha  occ. eigenvalues --   -0.47627  -0.47041  -0.46541  -0.46029  -0.45438
 Alpha  occ. eigenvalues --   -0.45310  -0.44852  -0.44415  -0.43798  -0.43337
 Alpha  occ. eigenvalues --   -0.42533  -0.41461  -0.40618  -0.39497  -0.39373
 Alpha  occ. eigenvalues --   -0.38719  -0.38559  -0.37748  -0.37268  -0.36583
 Alpha  occ. eigenvalues --   -0.32987  -0.29496
 Alpha virt. eigenvalues --   -0.11855  -0.10823  -0.10372  -0.09722  -0.08052
 Alpha virt. eigenvalues --   -0.06842  -0.05203  -0.03667  -0.02579  -0.02340
 Alpha virt. eigenvalues --   -0.01460  -0.00863  -0.00539   0.00113   0.00605

 Mulliken charges:
               1
     1  N   -0.785727
     2  H    0.342134
     3  H    0.328625
     4  C   -0.063280
     5  H    0.146045
     6  C    0.651310
     7  C   -0.268935
     8  H    0.174251
     9  H    0.170845
    10  O   -0.574382
    11  C   -0.374841
    12  H    0.214244
    13  H    0.183011
    14  C    0.620027
    15  O   -0.509820
    16  O   -0.542104
    17  N   -0.559226
    18  H    0.353085
    19  C   -0.075451
    20  H    0.191053
    21  C    0.644306
    22  C   -0.383239
    23  H    0.159980
    24  H    0.188644
    25  O   -0.570978
    26  C    0.168527
    27  C   -0.195452
    28  H    0.141175
    29  C   -0.197365
    30  H    0.130938
    31  C   -0.161858
    32  H    0.151916
    33  C   -0.190779
    34  H    0.136775
    35  O   -0.631472
    36  H    0.416221
    37  C    0.355796
    38  N   -0.611511
    39  H    0.370049
    40  C   -0.045868
    41  H    0.201383
    42  C    0.587797
    43  C   -0.276523
    44  H    0.160740
    45  H    0.186385
    46  O   -0.457041
    47  C   -0.280410
    48  H    0.151819
    49  H    0.160490
    50  C   -0.293963
    51  H    0.178905
    52  H    0.176982
    53  C   -0.183947
    54  H    0.202908
    55  H    0.193816
    56  N   -0.805238
    57  H    0.441807
    58  H    0.446869
    59  H    0.405595
    60  O   -0.553906
    61  H    0.424368
    62  H    0.434495
 Sum of Mulliken charges =   1.00000

 Dipole moment (field-independent basis, Debye):
    X=              8.5954    Y=             -1.7996    Z=              1.6662  Tot=              8.9384
 Quadrupole moment (field-independent basis, Debye-Ang):
   XX=           -114.4729   YY=           -131.1088   ZZ=           -151.1624
   XY=            -17.2153   XZ=            -13.0434   YZ=            -21.4812

 Normal termination of Gaussian 16 at Wed Jun  1 23:25:11 2022.
