 Gaussian 16, Revision C.01,
 Gaussian 16:  ES64L-G16RevC.01  3-Jul-2019

 ----------------------------------------------------------------------
 # B3LYP/6-31G* empiricaldispersion=gd3 guess=read geom=check nosymm in
 tegral(ultrafinegrid)
 ----------------------------------------------------------------------

 ------------------------------------------------------
 Candidate Structure: Conf:302 Charge calc in gas phase
 ------------------------------------------------------
 Structure from the checkpoint file:  "conf-302.chk"
 Charge =  1 Multiplicity = 1

                          Input orientation:
 ---------------------------------------------------------------------
 Center     Atomic      Atomic             Coordinates (Angstroms)
 Number     Number       Type             X           Y           Z
 ---------------------------------------------------------------------
      1          7           0       -3.213374    0.675249    2.401409
      2          1           0       -4.025966    0.887695    1.825240
      3          1           0       -3.566719    0.459292    3.331088
      4          6           0       -2.479882   -0.471467    1.843506
      5          1           0       -3.133579   -1.240836    1.406804
      6          6           0       -1.570704   -0.003400    0.693794
      7          6           0       -1.636571   -1.132190    2.956532
      8          1           0       -2.309351   -1.353154    3.796036
      9          1           0       -0.886917   -0.419558    3.318598
     10          8           0       -1.127926   -0.782328   -0.145256
     11          6           0       -0.948591   -2.440851    2.516182
     12          1           0       -0.220135   -2.232850    1.731557
     13          1           0       -1.689808   -3.144063    2.127939
     14          6           0       -0.237640   -3.066207    3.694818
     15          8           0        0.858187   -2.737850    4.128200
     16          8           0       -0.966719   -4.024625    4.283934
     17          7           0       -1.246700    1.322143    0.733374
     18          1           0       -1.751571    1.868138    1.426791
     19          6           0       -0.453135    1.967596   -0.304466
     20          1           0       -0.120941    2.920479    0.124308
     21          6           0        0.833478    1.159038   -0.593517
     22          6           0       -1.257821    2.251644   -1.593970
     23          1           0       -1.610565    1.295459   -1.989692
     24          1           0       -2.139240    2.839325   -1.308209
     25          8           0        1.263886    0.968324   -1.729960
     26          6           0       -0.435660    2.981971   -2.635683
     27          6           0        0.227431    4.175371   -2.324561
     28          1           0        0.059157    4.658061   -1.365237
     29          6           0       -0.237393    2.425463   -3.905040
     30          1           0       -0.744573    1.502146   -4.167163
     31          6           0        1.138469    4.751349   -3.211831
     32          1           0        1.669696    5.665861   -2.966488
     33          6           0        0.659491    2.988836   -4.809025
     34          1           0        0.835831    2.521901   -5.775870
     35          8           0        2.424737    4.625584   -5.216209
     36          1           0        2.219386    4.507485   -6.158995
     37          6           0        1.365430    4.131569   -4.435394
     38          7           0        1.502560    0.764103    0.513909
     39          1           0        1.002881    0.765631    1.393915
     40          6           0        2.584597   -0.206235    0.388084
     41          1           0        2.237838   -0.998676   -0.292923
     42          6           0        2.803622   -0.943982    1.710216
     43          6           0        3.879284    0.412647   -0.197648
     44          1           0        3.754934    1.500927   -0.164083
     45          1           0        4.721144    0.167609    0.456313
     46          8           0        3.778798   -1.620706    1.933520
     47          6           0        4.195506   -0.056689   -1.635582
     48          1           0        3.282120   -0.420554   -2.115042
     49          1           0        4.895001   -0.898233   -1.598771
     50          6           0        4.802294    1.041366   -2.530004
     51          1           0        5.575890    1.594026   -1.976886
     52          1           0        5.300783    0.571657   -3.390378
     53          6           0        3.740794    2.007573   -3.053096
     54          1           0        2.986741    1.508672   -3.662285
     55          1           0        3.205837    2.546732   -2.271710
     56          7           0        4.393163    3.063873   -3.945237
     57          1           0        3.698578    3.660509   -4.460374
     58          1           0        4.995295    2.614794   -4.643793
     59          1           0        4.995016    3.684888   -3.394692
     60          8           0        1.746080   -0.809371    2.529721
     61          1           0       -0.455435   -4.356644    5.047938
     62          1           0        1.732338   -1.499758    3.245843
 ---------------------------------------------------------------------

 SCF Done:  E(RB3LYP) =  -1526.30161149     A.U. after    3 cycles

 Alpha  occ. eigenvalues --  -19.31414 -19.28510 -19.26292 -19.23524 -19.21126
 Alpha  occ. eigenvalues --  -19.20718 -19.20260 -14.59251 -14.44872 -14.44122
 Alpha  occ. eigenvalues --  -14.41818 -10.41381 -10.39627 -10.37784 -10.37125
 Alpha  occ. eigenvalues --  -10.37098 -10.35856 -10.33349 -10.32146 -10.31646
 Alpha  occ. eigenvalues --  -10.31613 -10.29887 -10.29676 -10.29577 -10.29376
 Alpha  occ. eigenvalues --  -10.29137 -10.28907 -10.28433 -10.28247 -10.28172
 Alpha  occ. eigenvalues --  -10.27677  -1.19711  -1.18275  -1.17390  -1.13510
 Alpha  occ. eigenvalues --   -1.12946  -1.11841  -1.10535  -1.08801  -1.02226
 Alpha  occ. eigenvalues --   -1.00819  -0.98319  -0.96003  -0.92005  -0.88669
 Alpha  occ. eigenvalues --   -0.88288  -0.86728  -0.85445  -0.83370  -0.81321
 Alpha  occ. eigenvalues --   -0.79811  -0.76739  -0.75709  -0.72940  -0.72654
 Alpha  occ. eigenvalues --   -0.72435  -0.71975  -0.69934  -0.69166  -0.68512
 Alpha  occ. eigenvalues --   -0.67905  -0.67166  -0.65501  -0.65472  -0.62820
 Alpha  occ. eigenvalues --   -0.62209  -0.60777  -0.58978  -0.58822  -0.58601
 Alpha  occ. eigenvalues --   -0.58347  -0.57749  -0.57292  -0.57134  -0.55893
 Alpha  occ. eigenvalues --   -0.55336  -0.55221  -0.54537  -0.54220  -0.54069
 Alpha  occ. eigenvalues --   -0.53175  -0.53043  -0.52877  -0.52269  -0.51466
 Alpha  occ. eigenvalues --   -0.51110  -0.50677  -0.50493  -0.49590  -0.49531
 Alpha  occ. eigenvalues --   -0.48735  -0.48611  -0.48134  -0.47026  -0.46590
 Alpha  occ. eigenvalues --   -0.46461  -0.45655  -0.45293  -0.45230  -0.44352
 Alpha  occ. eigenvalues --   -0.44276  -0.43825  -0.43563  -0.43240  -0.43002
 Alpha  occ. eigenvalues --   -0.42499  -0.40661  -0.39141  -0.37118  -0.36219
 Alpha  occ. eigenvalues --   -0.35609  -0.35542  -0.34974  -0.34939  -0.34106
 Alpha  occ. eigenvalues --   -0.32832  -0.32021
 Alpha virt. eigenvalues --   -0.11091  -0.10731  -0.10069  -0.08424  -0.07163
 Alpha virt. eigenvalues --   -0.06590  -0.06439  -0.05439  -0.04991  -0.02523
 Alpha virt. eigenvalues --   -0.01396  -0.00960  -0.00348   0.00296   0.00711

 Mulliken charges:
               1
     1  N   -0.762181
     2  H    0.322468
     3  H    0.324190
     4  C   -0.050643
     5  H    0.163538
     6  C    0.598222
     7  C   -0.295413
     8  H    0.162675
     9  H    0.173937
    10  O   -0.523361
    11  C   -0.341551
    12  H    0.203135
    13  H    0.185096
    14  C    0.590235
    15  O   -0.491565
    16  O   -0.536430
    17  N   -0.622668
    18  H    0.364573
    19  C   -0.053523
    20  H    0.165925
    21  C    0.642502
    22  C   -0.350976
    23  H    0.189852
    24  H    0.160434
    25  O   -0.550613
    26  C    0.203648
    27  C   -0.195668
    28  H    0.145334
    29  C   -0.161104
    30  H    0.160514
    31  C   -0.167858
    32  H    0.155410
    33  C   -0.186068
    34  H    0.140636
    35  O   -0.680867
    36  H    0.433477
    37  C    0.282336
    38  N   -0.617702
    39  H    0.366362
    40  C   -0.023479
    41  H    0.205938
    42  C    0.578508
    43  C   -0.279377
    44  H    0.138295
    45  H    0.187727
    46  O   -0.449711
    47  C   -0.270471
    48  H    0.181094
    49  H    0.170570
    50  C   -0.302627
    51  H    0.155577
    52  H    0.151917
    53  C   -0.185518
    54  H    0.231617
    55  H    0.224041
    56  N   -0.777002
    57  H    0.452555
    58  H    0.399731
    59  H    0.405260
    60  O   -0.627897
    61  H    0.426758
    62  H    0.460188
 Sum of Mulliken charges =   1.00000

 Dipole moment (field-independent basis, Debye):
    X=              8.3854    Y=             11.6206    Z=            -10.3389  Tot=             17.6705
 Quadrupole moment (field-independent basis, Debye-Ang):
   XX=           -103.7588   YY=           -129.9150   ZZ=            -84.3628
   XY=             47.1824   XZ=            -77.7356   YZ=            -56.8022

 Normal termination of Gaussian 16 at Wed Jun  1 23:25:32 2022.
