 Gaussian 16, Revision C.01,
 Gaussian 16:  ES64L-G16RevC.01  3-Jul-2019

 ----------------------------------------------------------------------
 # B3LYP/6-31G* empiricaldispersion=gd3 guess=read geom=check nosymm in
 tegral(ultrafinegrid)
 ----------------------------------------------------------------------

 ------------------------------------------------------
 Candidate Structure: Conf:315 Charge calc in gas phase
 ------------------------------------------------------
 Structure from the checkpoint file:  "conf-315.chk"
 Charge =  1 Multiplicity = 1

                          Input orientation:
 ---------------------------------------------------------------------
 Center     Atomic      Atomic             Coordinates (Angstroms)
 Number     Number       Type             X           Y           Z
 ---------------------------------------------------------------------
      1          7           0       -3.423897   -1.738049    1.895738
      2          1           0       -3.847485   -0.846789    1.637211
      3          1           0       -3.787272   -2.430197    1.242399
      4          6           0       -1.976631   -1.621332    1.766044
      5          1           0       -1.535372   -2.613108    1.937007
      6          6           0       -1.548629   -1.076825    0.396813
      7          6           0       -1.455483   -0.630208    2.829333
      8          1           0       -1.835618   -0.942807    3.804848
      9          1           0       -1.883371    0.354938    2.611904
     10          8           0       -2.059974   -0.054440   -0.064463
     11          6           0        0.072632   -0.516131    2.862620
     12          1           0        0.494128   -0.344764    1.868772
     13          1           0        0.527508   -1.445534    3.234067
     14          6           0        0.541987    0.603202    3.764096
     15          8           0       -0.046687    1.051290    4.716118
     16          8           0        1.767192    1.070890    3.371509
     17          7           0       -0.531983   -1.716936   -0.263086
     18          1           0       -0.038609   -2.470402    0.199169
     19          6           0        0.086896   -1.097260   -1.434104
     20          1           0       -0.725839   -0.567810   -1.939359
     21          6           0        1.118827   -0.051981   -0.969227
     22          6           0        0.713867   -2.139534   -2.365052
     23          1           0        1.470115   -2.704654   -1.808765
     24          1           0       -0.076802   -2.846946   -2.644465
     25          8           0        2.347469   -0.228174   -1.117508
     26          6           0        1.358203   -1.559721   -3.612939
     27          6           0        0.810750   -0.469853   -4.310069
     28          1           0       -0.105056   -0.001422   -3.960139
     29          6           0        2.525471   -2.135284   -4.130787
     30          1           0        2.977543   -2.980638   -3.618293
     31          6           0        1.400423    0.030259   -5.471701
     32          1           0        0.953601    0.854277   -6.019356
     33          6           0        3.130558   -1.653269   -5.297048
     34          1           0        4.022754   -2.138659   -5.687585
     35          8           0        3.088262   -0.037334   -7.117867
     36          1           0        3.777427   -0.619857   -7.475715
     37          6           0        2.559988   -0.569686   -5.983698
     38          7           0        0.623149    1.036240   -0.369170
     39          1           0       -0.383166    1.105210   -0.191938
     40          6           0        1.509904    2.024919    0.233173
     41          1           0        2.227399    1.497189    0.873388
     42          6           0        0.674608    2.868128    1.186010
     43          6           0        2.291735    2.840688   -0.838621
     44          1           0        1.931610    2.504371   -1.817379
     45          1           0        2.033668    3.902406   -0.777835
     46          8           0       -0.488133    2.660363    1.447275
     47          6           0        3.820854    2.680950   -0.729407
     48          1           0        4.055290    1.666579   -0.383238
     49          1           0        4.190080    3.359489    0.045915
     50          6           0        4.562698    2.951090   -2.057821
     51          1           0        3.991198    3.647425   -2.686511
     52          1           0        5.523757    3.441734   -1.868151
     53          6           0        4.895975    1.688216   -2.854937
     54          1           0        5.386003    1.928355   -3.802164
     55          1           0        5.551636    1.027099   -2.281550
     56          7           0        3.674851    0.867024   -3.182310
     57          1           0        3.894056    0.035856   -3.749873
     58          1           0        2.984381    1.389051   -3.731166
     59          1           0        3.181517    0.500829   -2.320816
     60          8           0        1.410178    3.856710    1.725877
     61          1           0        2.022237    1.752049    4.022716
     62          1           0        0.828251    4.351346    2.335279
 ---------------------------------------------------------------------

 SCF Done:  E(RB3LYP) =  -1526.31020802     A.U. after    1 cycles

 Alpha  occ. eigenvalues --  -19.30872 -19.29576 -19.28251 -19.25530 -19.25301
 Alpha  occ. eigenvalues --  -19.22224 -19.22176 -14.57135 -14.48501 -14.47774
 Alpha  occ. eigenvalues --  -14.39515 -10.43485 -10.41902 -10.40370 -10.38781
 Alpha  occ. eigenvalues --  -10.38328 -10.37523 -10.35695 -10.35472 -10.32632
 Alpha  occ. eigenvalues --  -10.31813 -10.31628 -10.31605 -10.31570 -10.31524
 Alpha  occ. eigenvalues --  -10.31446 -10.31201 -10.30961 -10.30930 -10.28871
 Alpha  occ. eigenvalues --  -10.26954  -1.21895  -1.18649  -1.17814  -1.17069
 Alpha  occ. eigenvalues --   -1.14234  -1.13095  -1.12331  -1.09838  -1.05305
 Alpha  occ. eigenvalues --   -1.03654  -0.97862  -0.97217  -0.93645  -0.91125
 Alpha  occ. eigenvalues --   -0.89717  -0.87936  -0.87249  -0.85372  -0.83868
 Alpha  occ. eigenvalues --   -0.79854  -0.78306  -0.77484  -0.74511  -0.73847
 Alpha  occ. eigenvalues --   -0.73052  -0.71610  -0.71458  -0.70857  -0.69843
 Alpha  occ. eigenvalues --   -0.69691  -0.68982  -0.66951  -0.66635  -0.64831
 Alpha  occ. eigenvalues --   -0.63296  -0.61940  -0.60988  -0.60589  -0.59941
 Alpha  occ. eigenvalues --   -0.59151  -0.59075  -0.58556  -0.57972  -0.57884
 Alpha  occ. eigenvalues --   -0.57386  -0.56500  -0.56358  -0.56057  -0.55336
 Alpha  occ. eigenvalues --   -0.55064  -0.54742  -0.54294  -0.53913  -0.53363
 Alpha  occ. eigenvalues --   -0.52542  -0.52284  -0.51632  -0.51215  -0.50956
 Alpha  occ. eigenvalues --   -0.50708  -0.50606  -0.50098  -0.48722  -0.48202
 Alpha  occ. eigenvalues --   -0.47876  -0.47540  -0.47209  -0.46715  -0.46453
 Alpha  occ. eigenvalues --   -0.45774  -0.45553  -0.44832  -0.44671  -0.43635
 Alpha  occ. eigenvalues --   -0.43091  -0.42786  -0.40345  -0.40249  -0.39002
 Alpha  occ. eigenvalues --   -0.38711  -0.38122  -0.36912  -0.36155  -0.35662
 Alpha  occ. eigenvalues --   -0.34041  -0.31777
 Alpha virt. eigenvalues --   -0.13723  -0.12017  -0.11602  -0.10156  -0.08459
 Alpha virt. eigenvalues --   -0.08255  -0.07095  -0.04132  -0.03467  -0.03411
 Alpha virt. eigenvalues --   -0.02888  -0.02383  -0.01835  -0.00773  -0.00139

 Mulliken charges:
               1
     1  N   -0.689677
     2  H    0.322978
     3  H    0.309224
     4  C   -0.069033
     5  H    0.135573
     6  C    0.597407
     7  C   -0.262262
     8  H    0.195041
     9  H    0.187286
    10  O   -0.534784
    11  C   -0.380782
    12  H    0.156147
    13  H    0.185066
    14  C    0.595969
    15  O   -0.434577
    16  O   -0.592712
    17  N   -0.604345
    18  H    0.341177
    19  C   -0.067213
    20  H    0.204741
    21  C    0.629529
    22  C   -0.351349
    23  H    0.163654
    24  H    0.192577
    25  O   -0.595568
    26  C    0.168903
    27  C   -0.210162
    28  H    0.159813
    29  C   -0.203859
    30  H    0.159899
    31  C   -0.205091
    32  H    0.175656
    33  C   -0.247510
    34  H    0.156318
    35  O   -0.623560
    36  H    0.424756
    37  C    0.352279
    38  N   -0.625013
    39  H    0.412748
    40  C   -0.021257
    41  H    0.225525
    42  C    0.586605
    43  C   -0.288310
    44  H    0.126721
    45  H    0.190919
    46  O   -0.449976
    47  C   -0.298775
    48  H    0.167244
    49  H    0.185611
    50  C   -0.290805
    51  H    0.167926
    52  H    0.193639
    53  C   -0.191217
    54  H    0.204787
    55  H    0.209728
    56  N   -0.794366
    57  H    0.401590
    58  H    0.392580
    59  H    0.472519
    60  O   -0.569792
    61  H    0.414230
    62  H    0.435633
 Sum of Mulliken charges =   1.00000

 Dipole moment (field-independent basis, Debye):
    X=             15.8570    Y=              1.8485    Z=            -12.5783  Tot=             20.3242
 Quadrupole moment (field-independent basis, Debye-Ang):
   XX=           -118.1934   YY=           -142.3297   ZZ=           -125.5203
   XY=             18.3113   XZ=            -42.5081   YZ=              5.2702

 Normal termination of Gaussian 16 at Wed Jun  1 23:25:12 2022.
