 Gaussian 16, Revision C.01,
 Gaussian 16:  ES64L-G16RevC.01  3-Jul-2019

 ----------------------------------------------------------------------
 # B3LYP/6-31G* empiricaldispersion=gd3 guess=read geom=check nosymm in
 tegral(ultrafinegrid)
 ----------------------------------------------------------------------

 ------------------------------------------------------
 Candidate Structure: Conf:304 Charge calc in gas phase
 ------------------------------------------------------
 Structure from the checkpoint file:  "conf-304.chk"
 Charge =  1 Multiplicity = 1

                          Input orientation:
 ---------------------------------------------------------------------
 Center     Atomic      Atomic             Coordinates (Angstroms)
 Number     Number       Type             X           Y           Z
 ---------------------------------------------------------------------
      1          7           0       -1.620602   -3.081416    4.134112
      2          1           0       -1.263845   -3.856040    3.574040
      3          1           0       -0.833750   -2.745495    4.688063
      4          6           0       -2.073883   -2.034576    3.222384
      5          1           0       -2.325909   -1.149493    3.822463
      6          6           0       -1.009244   -1.674965    2.172413
      7          6           0       -3.343901   -2.519347    2.495360
      8          1           0       -4.051248   -2.855676    3.257745
      9          1           0       -3.076143   -3.391243    1.884891
     10          8           0       -0.386055   -2.579829    1.597469
     11          6           0       -3.996526   -1.447156    1.605529
     12          1           0       -3.316310   -1.101260    0.823917
     13          1           0       -4.287219   -0.585078    2.220557
     14          6           0       -5.233809   -1.967102    0.903019
     15          8           0       -5.372826   -2.056856   -0.294933
     16          8           0       -6.185472   -2.340122    1.793104
     17          7           0       -0.820708   -0.355321    1.917925
     18          1           0       -1.389921    0.292151    2.446081
     19          6           0       -0.079554    0.221948    0.782300
     20          1           0       -0.231747    1.301167    0.837998
     21          6           0        1.449850    0.058988    0.865229
     22          6           0       -0.612868   -0.293055   -0.583643
     23          1           0       -0.594672   -1.385826   -0.576622
     24          1           0       -1.664088    0.011195   -0.658207
     25          8           0        2.204126    1.020781    0.791097
     26          6           0        0.187427    0.244356   -1.747072
     27          6           0        0.028008    1.569528   -2.178457
     28          1           0       -0.712178    2.204953   -1.696870
     29          6           0        1.142629   -0.548687   -2.390904
     30          1           0        1.285051   -1.579037   -2.076308
     31          6           0        0.790598    2.090429   -3.216143
     32          1           0        0.662271    3.112845   -3.555826
     33          6           0        1.917350   -0.041107   -3.434894
     34          1           0        2.647057   -0.676166   -3.934398
     35          8           0        2.459355    1.847092   -4.865470
     36          1           0        3.042618    1.181317   -5.261516
     37          6           0        1.742300    1.282723   -3.851494
     38          7           0        1.910548   -1.224267    0.936594
     39          1           0        1.225818   -1.981571    1.018120
     40          6           0        3.325677   -1.455853    0.740790
     41          1           0        3.644325   -0.814130   -0.097147
     42          6           0        3.551851   -2.890774    0.290384
     43          6           0        4.188536   -1.100782    1.962917
     44          1           0        3.778412   -0.181585    2.385336
     45          1           0        4.056544   -1.878570    2.727464
     46          8           0        4.399615   -3.655657    0.748187
     47          6           0        5.670204   -0.871576    1.592151
     48          1           0        5.774332    0.163628    1.253312
     49          1           0        5.952278   -1.493036    0.730978
     50          6           0        6.662841   -1.136682    2.741922
     51          1           0        7.540721   -0.487779    2.646012
     52          1           0        6.210187   -0.888285    3.711280
     53          6           0        7.213457   -2.561145    2.769077
     54          1           0        7.742534   -2.797734    1.842063
     55          1           0        7.889137   -2.726461    3.611933
     56          7           0        6.108122   -3.598115    2.879774
     57          1           0        6.489673   -4.549642    2.901362
     58          1           0        5.435480   -3.543981    2.063157
     59          1           0        5.565032   -3.465528    3.738886
     60          8           0        2.738511   -3.264991   -0.690917
     61          1           0       -6.942488   -2.671197    1.273526
     62          1           0        2.936408   -4.192213   -0.929574
 ---------------------------------------------------------------------

 SCF Done:  E(RB3LYP) =  -1526.28066778     A.U. after    2 cycles

 Alpha  occ. eigenvalues --  -19.34172 -19.29984 -19.25585 -19.24126 -19.21992
 Alpha  occ. eigenvalues --  -19.20728 -19.19897 -14.60557 -14.46744 -14.45011
 Alpha  occ. eigenvalues --  -14.39817 -10.47334 -10.40215 -10.38348 -10.38223
 Alpha  occ. eigenvalues --  -10.37748 -10.36050 -10.33795 -10.32899 -10.31838
 Alpha  occ. eigenvalues --  -10.31456 -10.31302 -10.31165 -10.27290 -10.27277
 Alpha  occ. eigenvalues --  -10.26901 -10.25933 -10.25878 -10.25679 -10.25635
 Alpha  occ. eigenvalues --  -10.24858  -1.25760  -1.16732  -1.16390  -1.15019
 Alpha  occ. eigenvalues --   -1.13679  -1.12633  -1.12223  -1.07472  -1.02701
 Alpha  occ. eigenvalues --   -1.02361  -0.97306  -0.94722  -0.92230  -0.90414
 Alpha  occ. eigenvalues --   -0.87431  -0.86591  -0.84984  -0.81399  -0.81043
 Alpha  occ. eigenvalues --   -0.79738  -0.78137  -0.75430  -0.74535  -0.74037
 Alpha  occ. eigenvalues --   -0.73214  -0.71324  -0.70688  -0.69006  -0.68415
 Alpha  occ. eigenvalues --   -0.67516  -0.66676  -0.66043  -0.65371  -0.64451
 Alpha  occ. eigenvalues --   -0.63425  -0.62035  -0.60924  -0.60298  -0.59601
 Alpha  occ. eigenvalues --   -0.59298  -0.57669  -0.57280  -0.56329  -0.56122
 Alpha  occ. eigenvalues --   -0.55832  -0.55304  -0.54810  -0.54492  -0.53767
 Alpha  occ. eigenvalues --   -0.53157  -0.52473  -0.52056  -0.51379  -0.51166
 Alpha  occ. eigenvalues --   -0.51076  -0.50496  -0.50226  -0.49821  -0.49363
 Alpha  occ. eigenvalues --   -0.48705  -0.48081  -0.47454  -0.47306  -0.47181
 Alpha  occ. eigenvalues --   -0.46734  -0.46153  -0.45902  -0.45512  -0.44787
 Alpha  occ. eigenvalues --   -0.43867  -0.43810  -0.43462  -0.42964  -0.42547
 Alpha  occ. eigenvalues --   -0.42008  -0.40219  -0.39444  -0.37776  -0.37115
 Alpha  occ. eigenvalues --   -0.36206  -0.35154  -0.33653  -0.33426  -0.31952
 Alpha  occ. eigenvalues --   -0.31715  -0.28248
 Alpha virt. eigenvalues --   -0.14367  -0.12072  -0.08268  -0.07290  -0.06820
 Alpha virt. eigenvalues --   -0.06652  -0.05499  -0.05349  -0.05127  -0.03994
 Alpha virt. eigenvalues --   -0.02486  -0.02276  -0.01105   0.00302   0.00635

 Mulliken charges:
               1
     1  N   -0.688406
     2  H    0.312543
     3  H    0.297669
     4  C   -0.075333
     5  H    0.140296
     6  C    0.610046
     7  C   -0.266480
     8  H    0.196819
     9  H    0.165016
    10  O   -0.565828
    11  C   -0.361440
    12  H    0.176268
    13  H    0.166488
    14  C    0.567410
    15  O   -0.446915
    16  O   -0.557629
    17  N   -0.601744
    18  H    0.347372
    19  C   -0.070925
    20  H    0.184053
    21  C    0.624981
    22  C   -0.380556
    23  H    0.180066
    24  H    0.173982
    25  O   -0.512904
    26  C    0.162858
    27  C   -0.176401
    28  H    0.131211
    29  C   -0.200922
    30  H    0.134664
    31  C   -0.152329
    32  H    0.155327
    33  C   -0.196914
    34  H    0.115644
    35  O   -0.632980
    36  H    0.410361
    37  C    0.354703
    38  N   -0.648771
    39  H    0.391627
    40  C   -0.004334
    41  H    0.218249
    42  C    0.597850
    43  C   -0.276538
    44  H    0.210866
    45  H    0.098708
    46  O   -0.527511
    47  C   -0.305289
    48  H    0.202142
    49  H    0.147479
    50  C   -0.289643
    51  H    0.201984
    52  H    0.173286
    53  C   -0.203016
    54  H    0.219071
    55  H    0.215474
    56  N   -0.772641
    57  H    0.413345
    58  H    0.467723
    59  H    0.405211
    60  O   -0.513176
    61  H    0.418682
    62  H    0.439152
 Sum of Mulliken charges =   1.00000

 Dipole moment (field-independent basis, Debye):
    X=             22.9201    Y=            -14.1674    Z=             11.7267  Tot=             29.3864
 Quadrupole moment (field-independent basis, Debye-Ang):
   XX=             -9.1938   YY=           -129.6359   ZZ=           -134.9531
   XY=            -85.3274   XZ=             49.1638   YZ=            -27.1476

 Normal termination of Gaussian 16 at Wed Jun  1 23:25:19 2022.
