 Gaussian 16, Revision C.01,
 Gaussian 16:  ES64L-G16RevC.01  3-Jul-2019

 ----------------------------------------------------------------------
 # B3LYP/6-31G* empiricaldispersion=gd3 guess=read geom=check nosymm in
 tegral(ultrafinegrid)
 ----------------------------------------------------------------------

 ------------------------------------------------------
 Candidate Structure: Conf:549 Charge calc in gas phase
 ------------------------------------------------------
 Structure from the checkpoint file:  "conf-549.chk"
 Charge =  1 Multiplicity = 1

                          Input orientation:
 ---------------------------------------------------------------------
 Center     Atomic      Atomic             Coordinates (Angstroms)
 Number     Number       Type             X           Y           Z
 ---------------------------------------------------------------------
      1          7           0       -0.005241   -0.124339    3.346159
      2          1           0       -0.354309   -0.267952    4.292178
      3          1           0        0.656963   -0.871710    3.132013
      4          6           0       -1.108493   -0.171602    2.366902
      5          1           0       -1.679256    0.758928    2.476357
      6          6           0       -0.452352   -0.213435    0.978857
      7          6           0       -2.086332   -1.356366    2.540930
      8          1           0       -2.891863   -1.254688    1.801536
      9          1           0       -2.555232   -1.276382    3.528821
     10          8           0        0.574625   -0.862701    0.796053
     11          6           0       -1.431048   -2.742496    2.396468
     12          1           0       -0.642607   -2.861142    3.148753
     13          1           0       -0.983743   -2.870589    1.409751
     14          6           0       -2.448037   -3.845531    2.594588
     15          8           0       -2.833101   -4.612726    1.744095
     16          8           0       -2.912182   -3.860157    3.872147
     17          7           0       -1.049648    0.508390   -0.007027
     18          1           0       -1.933356    0.961571    0.181322
     19          6           0       -0.526341    0.535427   -1.384011
     20          1           0       -1.019000    1.384098   -1.873047
     21          6           0        0.996154    0.833035   -1.340249
     22          6           0       -0.839211   -0.752198   -2.177898
     23          1           0       -0.121367   -1.520152   -1.880091
     24          1           0       -1.833414   -1.089607   -1.861219
     25          8           0        1.813019    0.204302   -1.987452
     26          6           0       -0.831754   -0.538159   -3.676691
     27          6           0       -1.964159   -0.012372   -4.316890
     28          1           0       -2.853572    0.215027   -3.731228
     29          6           0        0.287519   -0.836762   -4.460715
     30          1           0        1.181076   -1.222370   -3.982474
     31          6           0       -1.988676    0.212387   -5.689592
     32          1           0       -2.868647    0.610611   -6.184418
     33          6           0        0.277111   -0.623416   -5.838576
     34          1           0        1.155641   -0.866776   -6.433732
     35          8           0       -0.936305    0.137541   -7.802702
     36          1           0       -0.112429   -0.152751   -8.223810
     37          6           0       -0.861322   -0.097151   -6.458358
     38          7           0        1.341555    1.887024   -0.513178
     39          1           0        0.593887    2.211624    0.089402
     40          6           0        2.624615    1.828927    0.178570
     41          1           0        3.199421    1.021658   -0.282397
     42          6           0        2.425373    1.440995    1.652453
     43          6           0        3.420241    3.143292    0.055628
     44          1           0        3.438686    3.419005   -1.005348
     45          1           0        2.892279    3.945433    0.589368
     46          8           0        3.258124    0.832909    2.292561
     47          6           0        4.850285    2.995583    0.592467
     48          1           0        5.363092    2.203347    0.030952
     49          1           0        4.823098    2.663420    1.636307
     50          6           0        5.653908    4.300997    0.481762
     51          1           0        5.697217    4.624671   -0.567831
     52          1           0        5.150035    5.095489    1.050247
     53          6           0        7.062729    4.095470    1.019246
     54          1           0        7.069060    3.820262    2.076777
     55          1           0        7.619597    3.344521    0.453414
     56          7           0        7.879601    5.390456    0.915371
     57          1           0        8.836855    5.278624    1.271830
     58          1           0        7.433290    6.147518    1.447804
     59          1           0        7.943338    5.704420   -0.060987
     60          8           0        1.255520    1.880162    2.140473
     61          1           0       -3.568458   -4.580915    3.921625
     62          1           0        0.926839    1.257727    2.876667
 ---------------------------------------------------------------------

 SCF Done:  E(RB3LYP) =  -1526.26267731     A.U. after    3 cycles

 Alpha  occ. eigenvalues --  -19.25169 -19.24392 -19.22055 -19.20447 -19.20036
 Alpha  occ. eigenvalues --  -19.19426 -19.18611 -14.65645 -14.45046 -14.42509
 Alpha  occ. eigenvalues --  -14.42178 -10.42436 -10.38540 -10.37690 -10.37169
 Alpha  occ. eigenvalues --  -10.35713 -10.34904 -10.31721 -10.31035 -10.30992
 Alpha  occ. eigenvalues --  -10.30793 -10.29183 -10.28969 -10.27680 -10.26481
 Alpha  occ. eigenvalues --  -10.24564 -10.23565 -10.23469 -10.23154 -10.23048
 Alpha  occ. eigenvalues --  -10.22773  -1.19472  -1.15983  -1.15893  -1.12328
 Alpha  occ. eigenvalues --   -1.10373  -1.10080  -1.07539  -1.06997  -1.01212
 Alpha  occ. eigenvalues --   -0.99250  -0.98625  -0.95976  -0.89764  -0.88896
 Alpha  occ. eigenvalues --   -0.86950  -0.84847  -0.82865  -0.80087  -0.78967
 Alpha  occ. eigenvalues --   -0.78830  -0.78082  -0.77348  -0.75170  -0.72156
 Alpha  occ. eigenvalues --   -0.71311  -0.70230  -0.67969  -0.67169  -0.66594
 Alpha  occ. eigenvalues --   -0.66380  -0.66229  -0.64309  -0.63403  -0.62806
 Alpha  occ. eigenvalues --   -0.61574  -0.59852  -0.58627  -0.58190  -0.57263
 Alpha  occ. eigenvalues --   -0.56819  -0.56070  -0.55525  -0.54835  -0.54258
 Alpha  occ. eigenvalues --   -0.53449  -0.53247  -0.52822  -0.52566  -0.52262
 Alpha  occ. eigenvalues --   -0.51234  -0.50605  -0.50512  -0.49745  -0.49251
 Alpha  occ. eigenvalues --   -0.48735  -0.48227  -0.47851  -0.47560  -0.47190
 Alpha  occ. eigenvalues --   -0.46667  -0.46196  -0.46028  -0.44970  -0.44944
 Alpha  occ. eigenvalues --   -0.44531  -0.44122  -0.43943  -0.43786  -0.43372
 Alpha  occ. eigenvalues --   -0.42642  -0.42287  -0.41277  -0.40147  -0.37865
 Alpha  occ. eigenvalues --   -0.37775  -0.37361  -0.37216  -0.35781  -0.35403
 Alpha  occ. eigenvalues --   -0.34540  -0.33480  -0.32755  -0.31870  -0.31484
 Alpha  occ. eigenvalues --   -0.29383  -0.25969
 Alpha virt. eigenvalues --   -0.16023  -0.09307  -0.09291  -0.07223  -0.06849
 Alpha virt. eigenvalues --   -0.06206  -0.05157  -0.04764  -0.04370  -0.03375
 Alpha virt. eigenvalues --   -0.02944  -0.01951  -0.01396  -0.00735   0.00261

 Mulliken charges:
               1
     1  N   -0.779493
     2  H    0.332072
     3  H    0.359693
     4  C   -0.066778
     5  H    0.152246
     6  C    0.654357
     7  C   -0.290091
     8  H    0.158984
     9  H    0.174402
    10  O   -0.530824
    11  C   -0.338966
    12  H    0.163797
    13  H    0.202730
    14  C    0.559479
    15  O   -0.441606
    16  O   -0.565895
    17  N   -0.635409
    18  H    0.338264
    19  C   -0.056483
    20  H    0.174914
    21  C    0.621163
    22  C   -0.347309
    23  H    0.190483
    24  H    0.145914
    25  O   -0.494395
    26  C    0.146732
    27  C   -0.191027
    28  H    0.114840
    29  C   -0.172125
    30  H    0.156803
    31  C   -0.157043
    32  H    0.143604
    33  C   -0.197518
    34  H    0.120999
    35  O   -0.639609
    36  H    0.409308
    37  C    0.350868
    38  N   -0.599006
    39  H    0.341107
    40  C   -0.052576
    41  H    0.207044
    42  C    0.600960
    43  C   -0.276261
    44  H    0.167528
    45  H    0.149267
    46  O   -0.477470
    47  C   -0.283523
    48  H    0.166545
    49  H    0.186704
    50  C   -0.292040
    51  H    0.168787
    52  H    0.167877
    53  C   -0.207749
    54  H    0.234838
    55  H    0.233143
    56  N   -0.732196
    57  H    0.432632
    58  H    0.427760
    59  H    0.428097
    60  O   -0.631833
    61  H    0.417109
    62  H    0.456173
 Sum of Mulliken charges =   1.00000

 Dipole moment (field-independent basis, Debye):
    X=             28.1738    Y=             24.2590    Z=              6.9921  Tot=             37.8306
 Quadrupole moment (field-independent basis, Debye-Ang):
   XX=             86.7322   YY=            -59.7010   ZZ=           -152.7461
   XY=            176.3162   XZ=              7.9043   YZ=             13.9951

 Normal termination of Gaussian 16 at Wed Jun  1 23:25:30 2022.
