 Gaussian 16, Revision C.01,
 Gaussian 16:  ES64L-G16RevC.01  3-Jul-2019

 ----------------------------------------------------------------------
 # B3LYP/6-31G* empiricaldispersion=gd3 guess=read geom=check nosymm in
 tegral(ultrafinegrid)
 ----------------------------------------------------------------------

 ------------------------------------------------------
 Candidate Structure: Conf:306 Charge calc in gas phase
 ------------------------------------------------------
 Structure from the checkpoint file:  "conf-306.chk"
 Charge =  1 Multiplicity = 1

                          Input orientation:
 ---------------------------------------------------------------------
 Center     Atomic      Atomic             Coordinates (Angstroms)
 Number     Number       Type             X           Y           Z
 ---------------------------------------------------------------------
      1          7           0        0.234620   -2.132114    3.374038
      2          1           0       -0.123196   -2.752152    4.096405
      3          1           0        0.705506   -2.702173    2.673418
      4          6           0       -0.856518   -1.409067    2.739084
      5          1           0       -1.208298   -0.633261    3.434430
      6          6           0       -0.316246   -0.736317    1.473673
      7          6           0       -2.075790   -2.246989    2.276687
      8          1           0       -1.743015   -2.965986    1.519301
      9          1           0       -2.798315   -1.588642    1.781383
     10          8           0        0.657910   -1.166628    0.863468
     11          6           0       -2.818605   -3.009407    3.389715
     12          1           0       -3.111713   -2.331602    4.198013
     13          1           0       -2.204620   -3.818670    3.793823
     14          6           0       -4.042526   -3.607826    2.726224
     15          8           0       -4.050876   -4.645867    2.101532
     16          8           0       -5.099369   -2.767268    2.797487
     17          7           0       -1.023018    0.355105    1.027987
     18          1           0       -1.922454    0.527020    1.458231
     19          6           0       -0.871521    0.828200   -0.352201
     20          1           0       -1.415000    1.780003   -0.400176
     21          6           0        0.613993    1.127366   -0.639781
     22          6           0       -1.437053   -0.147211   -1.412850
     23          1           0       -1.464784    0.384652   -2.370896
     24          1           0       -0.718621   -0.961329   -1.534315
     25          8           0        1.128270    0.892290   -1.724995
     26          6           0       -2.792958   -0.709135   -1.040603
     27          6           0       -2.990866   -2.095435   -0.978945
     28          1           0       -2.171583   -2.760874   -1.238635
     29          6           0       -3.869689    0.117442   -0.691657
     30          1           0       -3.764843    1.199473   -0.744335
     31          6           0       -4.199965   -2.647988   -0.562887
     32          1           0       -4.331098   -3.721046   -0.475526
     33          6           0       -5.086174   -0.415681   -0.263061
     34          1           0       -5.903072    0.244691    0.021155
     35          8           0       -6.398457   -2.393553    0.277785
     36          1           0       -7.075219   -1.712493    0.419679
     37          6           0       -5.245111   -1.802438   -0.187835
     38          7           0        1.302472    1.700524    0.403985
     39          1           0        0.795491    1.723972    1.285842
     40          6           0        2.695579    1.316451    0.597173
     41          1           0        2.883845    0.392111    0.037464
     42          6           0        2.875293    0.989350    2.078290
     43          6           0        3.704059    2.387875    0.137532
     44          1           0        3.528972    3.311932    0.704121
     45          1           0        4.715444    2.039058    0.378357
     46          8           0        2.039540    1.186567    2.931616
     47          6           0        3.579025    2.660041   -1.364706
     48          1           0        2.570485    3.024487   -1.584972
     49          1           0        3.679136    1.718194   -1.916035
     50          6           0        4.623633    3.671135   -1.863377
     51          1           0        4.508300    4.625603   -1.330167
     52          1           0        5.636189    3.297831   -1.653220
     53          6           0        4.454287    3.888980   -3.359675
     54          1           0        4.596998    2.969322   -3.932311
     55          1           0        3.480391    4.315546   -3.611637
     56          7           0        5.499429    4.880839   -3.888922
     57          1           0        5.406830    5.044942   -4.899007
     58          1           0        6.451107    4.535425   -3.713452
     59          1           0        5.415168    5.788253   -3.414417
     60          8           0        4.090508    0.465202    2.323158
     61          1           0       -5.768123   -3.077075    2.150459
     62          1           0        4.121556    0.250472    3.275415
 ---------------------------------------------------------------------

 SCF Done:  E(RB3LYP) =  -1526.26532747     A.U. after    1 cycles

 Alpha  occ. eigenvalues --  -19.27952 -19.25033 -19.23435 -19.22396 -19.19587
 Alpha  occ. eigenvalues --  -19.19299 -19.18032 -14.65500 -14.43657 -14.42508
 Alpha  occ. eigenvalues --  -14.36975 -10.42229 -10.40362 -10.36536 -10.36408
 Alpha  occ. eigenvalues --  -10.35871 -10.34659 -10.32132 -10.31411 -10.31388
 Alpha  occ. eigenvalues --  -10.30258 -10.29108 -10.28738 -10.25914 -10.25804
 Alpha  occ. eigenvalues --  -10.25702 -10.25533 -10.25338 -10.25202 -10.25148
 Alpha  occ. eigenvalues --  -10.24577  -1.19324  -1.18933  -1.14440  -1.12595
 Alpha  occ. eigenvalues --   -1.11836  -1.10713  -1.10049  -1.05553  -1.00797
 Alpha  occ. eigenvalues --   -0.99381  -0.95746  -0.94698  -0.91834  -0.88914
 Alpha  occ. eigenvalues --   -0.85699  -0.84546  -0.83673  -0.81222  -0.80449
 Alpha  occ. eigenvalues --   -0.79032  -0.77940  -0.76752  -0.75811  -0.72862
 Alpha  occ. eigenvalues --   -0.70951  -0.69926  -0.68804  -0.67950  -0.66629
 Alpha  occ. eigenvalues --   -0.65780  -0.65338  -0.64309  -0.64075  -0.63179
 Alpha  occ. eigenvalues --   -0.60937  -0.59748  -0.59282  -0.57951  -0.57301
 Alpha  occ. eigenvalues --   -0.56314  -0.55926  -0.55817  -0.54597  -0.54038
 Alpha  occ. eigenvalues --   -0.53613  -0.53162  -0.52972  -0.52297  -0.51921
 Alpha  occ. eigenvalues --   -0.51326  -0.51216  -0.50532  -0.50305  -0.49716
 Alpha  occ. eigenvalues --   -0.49014  -0.48607  -0.48428  -0.47728  -0.47357
 Alpha  occ. eigenvalues --   -0.47083  -0.46853  -0.46457  -0.45692  -0.45555
 Alpha  occ. eigenvalues --   -0.45273  -0.44533  -0.43715  -0.43297  -0.42782
 Alpha  occ. eigenvalues --   -0.42130  -0.41522  -0.41485  -0.40699  -0.40139
 Alpha  occ. eigenvalues --   -0.39972  -0.39016  -0.36210  -0.35807  -0.34634
 Alpha  occ. eigenvalues --   -0.33897  -0.32776  -0.32208  -0.31608  -0.31430
 Alpha  occ. eigenvalues --   -0.29126  -0.28511
 Alpha virt. eigenvalues --   -0.15909  -0.09206  -0.09177  -0.07691  -0.07215
 Alpha virt. eigenvalues --   -0.06557  -0.06268  -0.05468  -0.05127  -0.03100
 Alpha virt. eigenvalues --   -0.02722  -0.01784  -0.00849   0.00017   0.00191

 Mulliken charges:
               1
     1  N   -0.714089
     2  H    0.307357
     3  H    0.316169
     4  C   -0.071014
     5  H    0.150171
     6  C    0.638049
     7  C   -0.298464
     8  H    0.168845
     9  H    0.158544
    10  O   -0.534300
    11  C   -0.325000
    12  H    0.164115
    13  H    0.166199
    14  C    0.569434
    15  O   -0.464343
    16  O   -0.582378
    17  N   -0.621669
    18  H    0.340880
    19  C   -0.068181
    20  H    0.166845
    21  C    0.626092
    22  C   -0.352465
    23  H    0.165872
    24  H    0.187029
    25  O   -0.531867
    26  C    0.175222
    27  C   -0.206779
    28  H    0.146318
    29  C   -0.214354
    30  H    0.124306
    31  C   -0.158537
    32  H    0.179171
    33  C   -0.181679
    34  H    0.132271
    35  O   -0.657082
    36  H    0.418462
    37  C    0.343047
    38  N   -0.608861
    39  H    0.363548
    40  C   -0.042597
    41  H    0.208618
    42  C    0.598243
    43  C   -0.270912
    44  H    0.151084
    45  H    0.164147
    46  O   -0.458049
    47  C   -0.265842
    48  H    0.179834
    49  H    0.177512
    50  C   -0.294822
    51  H    0.165898
    52  H    0.165659
    53  C   -0.206412
    54  H    0.234983
    55  H    0.232786
    56  N   -0.732340
    57  H    0.431998
    58  H    0.427589
    59  H    0.427073
    60  O   -0.567827
    61  H    0.427333
    62  H    0.429158
 Sum of Mulliken charges =   1.00000

 Dipole moment (field-independent basis, Debye):
    X=             19.1993    Y=             22.5589    Z=            -13.0267  Tot=             32.3606
 Quadrupole moment (field-independent basis, Debye-Ang):
   XX=            -15.2702   YY=            -86.6545   ZZ=           -112.5522
   XY=            101.8573   XZ=            -86.3648   YZ=            -80.8856

 Normal termination of Gaussian 16 at Wed Jun  1 23:25:10 2022.
