 Gaussian 16, Revision C.01,
 Gaussian 16:  ES64L-G16RevC.01  3-Jul-2019

 ----------------------------------------------------------------------
 # B3LYP/6-31G* empiricaldispersion=gd3 guess=read geom=check nosymm in
 tegral(ultrafinegrid)
 ----------------------------------------------------------------------

 ------------------------------------------------------
 Candidate Structure: Conf:472 Charge calc in gas phase
 ------------------------------------------------------
 Structure from the checkpoint file:  "conf-472.chk"
 Charge =  1 Multiplicity = 1

                          Input orientation:
 ---------------------------------------------------------------------
 Center     Atomic      Atomic             Coordinates (Angstroms)
 Number     Number       Type             X           Y           Z
 ---------------------------------------------------------------------
      1          7           0       -3.327718   -1.645405    3.086037
      2          1           0       -2.738711   -0.995646    3.598550
      3          1           0       -4.238117   -1.224881    2.924955
      4          6           0       -2.707246   -2.146796    1.872146
      5          1           0       -3.339147   -2.931132    1.440100
      6          1           0       -1.763125   -2.639409    2.132531
      7          6           0       -2.378347   -1.184687    0.721034
      8          8           0       -1.858574   -1.607241   -0.316730
      9          7           0       -2.677888    0.123572    0.913974
     10          1           0       -3.031900    0.407009    1.817470
     11          6           0       -2.410337    1.163193   -0.084006
     12          1           0       -2.553022    0.691485   -1.060901
     13          6           0       -0.929809    1.590463    0.045397
     14          6           0       -3.356198    2.350452    0.091567
     15          1           0       -3.110960    2.852220    1.035925
     16          1           0       -3.120824    3.078604   -0.695285
     17          8           0       -0.585924    2.631768    0.595354
     18          6           0       -4.856586    2.007121    0.040322
     19          1           0       -5.083047    1.320419    0.870082
     20          6           0       -5.686533    3.281736    0.249107
     21          1           0       -5.513772    3.995609   -0.566501
     22          1           0       -6.758475    3.055439    0.272600
     23          1           0       -5.425165    3.781326    1.189387
     24          6           0       -5.251691    1.303923   -1.266195
     25          1           0       -4.987709    1.921986   -2.134602
     26          1           0       -4.755693    0.333376   -1.378242
     27          1           0       -6.332620    1.127410   -1.300966
     28          7           0       -0.062000    0.672427   -0.464315
     29          1           0       -0.439574   -0.200122   -0.827511
     30          6           0        1.360829    0.752869   -0.220682
     31          1           0        1.572172    1.794027    0.044838
     32          6           0        2.109811    0.379508   -1.498280
     33          6           0        1.827391   -0.159861    0.959234
     34          1           0        2.905252    0.024708    1.085453
     35          8           0        1.636770   -0.344490   -2.369495
     36          6           0        1.117751    0.244465    2.258713
     37          1           0        0.046372    0.023088    2.195028
     38          1           0        1.527198   -0.317659    3.105137
     39          1           0        1.220873    1.314512    2.463984
     40          6           0        1.624197   -1.652797    0.659682
     41          1           0        0.566948   -1.880179    0.481984
     42          1           0        1.961428   -2.255747    1.509946
     43          1           0        2.182014   -1.975852   -0.225562
     44          7           0        3.385802    0.869332   -1.593245
     45          1           0        3.798091    1.356938   -0.810173
     46          6           0        4.253439    0.375466   -2.649311
     47          1           0        4.100601   -0.713038   -2.718957
     48          6           0        5.728309    0.578422   -2.326108
     49          6           0        3.890477    0.987361   -4.021680
     50          1           0        2.801606    1.079629   -4.041285
     51          1           0        4.320235    1.993145   -4.100754
     52          8           0        6.607098    0.590313   -3.160209
     53          6           0        4.342802    0.115429   -5.197973
     54          1           0        3.908389   -0.887135   -5.082531
     55          1           0        5.431979    0.010391   -5.180564
     56          6           0        3.891168    0.706770   -6.542878
     57          1           0        2.797740    0.819207   -6.546978
     58          1           0        4.326601    1.707801   -6.671007
     59          6           0        4.321402   -0.193087   -7.691720
     60          1           0        5.407552   -0.289686   -7.763008
     61          1           0        3.877535   -1.189774   -7.629555
     62          7           0        3.860041    0.388223   -9.034700
     63          1           0        4.135488   -0.199332   -9.831394
     64          1           0        2.837319    0.486864   -9.056553
     65          1           0        4.257157    1.324272   -9.183184
     66          8           0        5.961003    0.720021   -1.004249
     67          1           0        6.925353    0.823406   -0.888339
 ---------------------------------------------------------------------

 SCF Done:  E(RB3LYP) =  -1396.70068277     A.U. after    1 cycles

 Alpha  occ. eigenvalues --  -19.29827 -19.23954 -19.19431 -19.17384 -19.16702
 Alpha  occ. eigenvalues --  -14.65649 -14.44465 -14.42699 -14.40599 -14.38434
 Alpha  occ. eigenvalues --  -10.42488 -10.42267 -10.36265 -10.34893 -10.34431
 Alpha  occ. eigenvalues --  -10.33745 -10.33713 -10.30868 -10.29294 -10.29145
 Alpha  occ. eigenvalues --  -10.28843 -10.27702 -10.25985 -10.24344 -10.23753
 Alpha  occ. eigenvalues --  -10.23041 -10.22783 -10.22378 -10.22128  -1.20668
 Alpha  occ. eigenvalues --   -1.19479  -1.11654  -1.11513  -1.09430  -1.08298
 Alpha  occ. eigenvalues --   -1.01112  -0.98970  -0.97718  -0.96039  -0.94558
 Alpha  occ. eigenvalues --   -0.89505  -0.86584  -0.86081  -0.84128  -0.80846
 Alpha  occ. eigenvalues --   -0.79777  -0.78080  -0.77171  -0.76507  -0.75157
 Alpha  occ. eigenvalues --   -0.73990  -0.73206  -0.72356  -0.70455  -0.69263
 Alpha  occ. eigenvalues --   -0.66932  -0.66816  -0.65421  -0.64257  -0.63630
 Alpha  occ. eigenvalues --   -0.62870  -0.62189  -0.61719  -0.58341  -0.58134
 Alpha  occ. eigenvalues --   -0.57828  -0.57112  -0.57022  -0.55642  -0.55424
 Alpha  occ. eigenvalues --   -0.54778  -0.53735  -0.53566  -0.52709  -0.52355
 Alpha  occ. eigenvalues --   -0.51447  -0.51287  -0.50513  -0.49949  -0.48934
 Alpha  occ. eigenvalues --   -0.48376  -0.47929  -0.47648  -0.47482  -0.47258
 Alpha  occ. eigenvalues --   -0.46664  -0.46331  -0.46018  -0.45630  -0.45252
 Alpha  occ. eigenvalues --   -0.44084  -0.43969  -0.43812  -0.43420  -0.43177
 Alpha  occ. eigenvalues --   -0.42380  -0.41766  -0.41519  -0.41001  -0.40017
 Alpha  occ. eigenvalues --   -0.39492  -0.39239  -0.37805  -0.37642  -0.37605
 Alpha  occ. eigenvalues --   -0.37512  -0.34102  -0.34056  -0.33339  -0.32965
 Alpha  occ. eigenvalues --   -0.30387  -0.29355  -0.28588
 Alpha virt. eigenvalues --   -0.16002  -0.09336  -0.09260  -0.09115  -0.06966
 Alpha virt. eigenvalues --   -0.05488  -0.04352  -0.03388  -0.02505  -0.02175
 Alpha virt. eigenvalues --   -0.01807  -0.00715  -0.00524   0.01365   0.01900

 Mulliken charges:
               1
     1  N   -0.714196
     2  H    0.311157
     3  H    0.311868
     4  C   -0.235157
     5  H    0.193276
     6  H    0.188207
     7  C    0.598636
     8  O   -0.544546
     9  N   -0.592188
    10  H    0.316274
    11  C   -0.065547
    12  H    0.178243
    13  C    0.624533
    14  C   -0.280692
    15  H    0.157882
    16  H    0.149956
    17  O   -0.532572
    18  C   -0.069527
    19  H    0.111233
    20  C   -0.442218
    21  H    0.144341
    22  H    0.148592
    23  H    0.145800
    24  C   -0.453854
    25  H    0.139422
    26  H    0.152941
    27  H    0.150591
    28  N   -0.615823
    29  H    0.381362
    30  C   -0.075176
    31  H    0.177717
    32  C    0.637964
    33  C   -0.074362
    34  H    0.120829
    35  O   -0.539818
    36  C   -0.451203
    37  H    0.140097
    38  H    0.150019
    39  H    0.166252
    40  C   -0.479862
    41  H    0.178156
    42  H    0.149071
    43  H    0.148967
    44  N   -0.632387
    45  H    0.355230
    46  C   -0.024519
    47  H    0.200134
    48  C    0.583400
    49  C   -0.263183
    50  H    0.185653
    51  H    0.152054
    52  O   -0.459456
    53  C   -0.289893
    54  H    0.164568
    55  H    0.191678
    56  C   -0.294446
    57  H    0.173306
    58  H    0.170187
    59  C   -0.207794
    60  H    0.233183
    61  H    0.232583
    62  N   -0.732050
    63  H    0.432482
    64  H    0.428933
    65  H    0.428162
    66  O   -0.565165
    67  H    0.430693
 Sum of Mulliken charges =   1.00000

 Dipole moment (field-independent basis, Debye):
    X=             17.4218    Y=              2.7797    Z=            -34.4931  Tot=             38.7430
 Quadrupole moment (field-independent basis, Debye-Ang):
   XX=            -71.9622   YY=           -180.7966   ZZ=            165.3572
   XY=              4.6242   XZ=           -145.9340   YZ=            -16.2020

 Normal termination of Gaussian 16 at Thu Jun  2 03:30:34 2022.
