 Gaussian 16, Revision C.01,
 Gaussian 16:  ES64L-G16RevC.01  3-Jul-2019

 ----------------------------------------------------------------------
 # B3LYP/6-31G* empiricaldispersion=gd3 guess=read geom=check nosymm in
 tegral(ultrafinegrid)
 ----------------------------------------------------------------------

 ------------------------------------------------------
 Candidate Structure: Conf:123 Charge calc in gas phase
 ------------------------------------------------------
 Structure from the checkpoint file:  "conf-123.chk"
 Charge =  1 Multiplicity = 1

                          Input orientation:
 ---------------------------------------------------------------------
 Center     Atomic      Atomic             Coordinates (Angstroms)
 Number     Number       Type             X           Y           Z
 ---------------------------------------------------------------------
      1          7           0       -3.879067    1.168364    1.907929
      2          1           0       -4.872529    1.279580    2.087861
      3          1           0       -3.396054    1.385111    2.776239
      4          6           0       -3.570910   -0.194731    1.463596
      5          1           0       -4.444622   -0.628148    0.963670
      6          1           0       -3.296580   -0.892958    2.265092
      7          6           0       -2.442520   -0.224263    0.432997
      8          8           0       -1.921596   -1.286972    0.070640
      9          7           0       -2.087500    0.983404   -0.057862
     10          1           0       -2.598129    1.774199    0.330135
     11          6           0       -1.189413    1.135251   -1.196973
     12          1           0       -1.363630    0.270914   -1.849551
     13          6           0        0.286786    1.054265   -0.732640
     14          6           0       -1.477090    2.433746   -1.954250
     15          1           0       -1.191860    3.283454   -1.322225
     16          1           0       -0.807015    2.469617   -2.826213
     17          8           0        1.062448    2.026118   -0.809702
     18          6           0       -2.927129    2.597994   -2.449483
     19          1           0       -3.588374    2.632459   -1.572179
     20          6           0       -3.067655    3.934366   -3.192135
     21          1           0       -2.445908    3.945786   -4.097265
     22          1           0       -4.104174    4.103162   -3.502121
     23          1           0       -2.762456    4.778967   -2.563335
     24          6           0       -3.378295    1.427062   -3.333688
     25          1           0       -2.710280    1.308320   -4.197673
     26          1           0       -3.397996    0.477669   -2.787231
     27          1           0       -4.387344    1.602199   -3.721162
     28          7           0        0.643793   -0.155027   -0.270440
     29          1           0       -0.105936   -0.851379   -0.216586
     30          6           0        1.936332   -0.484000    0.322564
     31          1           0        1.979192   -0.075431    1.342972
     32          6           0        3.062501    0.143636   -0.501370
     33          6           0        2.103405   -2.026225    0.403559
     34          1           0        1.936992   -2.407907   -0.612533
     35          8           0        3.105140    0.042122   -1.741581
     36          6           0        3.525173   -2.408566    0.841625
     37          1           0        3.772871   -1.968660    1.816180
     38          1           0        3.602343   -3.495200    0.943168
     39          1           0        4.283382   -2.089135    0.119864
     40          6           0        1.068239   -2.643188    1.359414
     41          1           0        1.221488   -2.270905    2.380449
     42          1           0        1.189234   -3.730930    1.382278
     43          1           0        0.031534   -2.438138    1.075164
     44          7           0        4.022355    0.761622    0.200614
     45          1           0        3.987665    0.821599    1.212440
     46          6           0        5.106396    1.473187   -0.453541
     47          1           0        5.582713    0.800814   -1.175837
     48          6           0        6.133338    1.823321    0.611778
     49          6           0        4.583250    2.743257   -1.193962
     50          1           0        3.495535    2.737788   -1.082317
     51          1           0        4.926088    3.650727   -0.685151
     52          8           0        5.976563    1.651590    1.800012
     53          6           0        4.988865    2.813965   -2.676118
     54          1           0        5.018613    1.800986   -3.100755
     55          1           0        6.009726    3.200346   -2.754171
     56          6           0        4.023200    3.690260   -3.503481
     57          1           0        3.563217    4.457409   -2.867245
     58          1           0        4.564770    4.231838   -4.286929
     59          6           0        2.935119    2.896752   -4.228061
     60          1           0        2.222398    3.560012   -4.725278
     61          1           0        3.376156    2.236574   -4.980379
     62          7           0        2.141459    2.002867   -3.310730
     63          1           0        1.416898    1.499136   -3.829866
     64          1           0        2.708927    1.263034   -2.816165
     65          1           0        1.658157    2.478774   -2.522949
     66          8           0        7.224941    2.374704    0.055437
     67          1           0        7.844742    2.600509    0.775864
 ---------------------------------------------------------------------

 SCF Done:  E(RB3LYP) =  -1396.76101513     A.U. after    3 cycles

 Alpha  occ. eigenvalues --  -19.30503 -19.25111 -19.23847 -19.23812 -19.21596
 Alpha  occ. eigenvalues --  -14.55748 -14.47845 -14.46601 -14.45881 -14.42501
 Alpha  occ. eigenvalues --  -10.43149 -10.40808 -10.40186 -10.38394 -10.37357
 Alpha  occ. eigenvalues --  -10.35227 -10.34200 -10.33992 -10.31676 -10.31618
 Alpha  occ. eigenvalues --  -10.30339 -10.30241 -10.29461 -10.29163 -10.28411
 Alpha  occ. eigenvalues --  -10.26498 -10.26116 -10.25999 -10.25940  -1.21550
 Alpha  occ. eigenvalues --   -1.16034  -1.14612  -1.13220  -1.12805  -1.10959
 Alpha  occ. eigenvalues --   -1.04533  -1.03705  -1.02680  -0.98420  -0.92907
 Alpha  occ. eigenvalues --   -0.91132  -0.90530  -0.88823  -0.85372  -0.83787
 Alpha  occ. eigenvalues --   -0.81031  -0.79305  -0.77562  -0.77034  -0.76924
 Alpha  occ. eigenvalues --   -0.74999  -0.72998  -0.71881  -0.70176  -0.69470
 Alpha  occ. eigenvalues --   -0.69144  -0.68545  -0.68018  -0.66805  -0.65740
 Alpha  occ. eigenvalues --   -0.63256  -0.62717  -0.62630  -0.61060  -0.60074
 Alpha  occ. eigenvalues --   -0.59946  -0.59059  -0.58825  -0.58298  -0.57268
 Alpha  occ. eigenvalues --   -0.56838  -0.56233  -0.55773  -0.55492  -0.54856
 Alpha  occ. eigenvalues --   -0.53874  -0.53825  -0.53162  -0.52593  -0.52019
 Alpha  occ. eigenvalues --   -0.51752  -0.51529  -0.51103  -0.50524  -0.49980
 Alpha  occ. eigenvalues --   -0.49805  -0.49343  -0.48628  -0.48375  -0.47692
 Alpha  occ. eigenvalues --   -0.47632  -0.46980  -0.46825  -0.45954  -0.45713
 Alpha  occ. eigenvalues --   -0.45651  -0.45227  -0.44756  -0.43699  -0.43055
 Alpha  occ. eigenvalues --   -0.42673  -0.42480  -0.41982  -0.41851  -0.41662
 Alpha  occ. eigenvalues --   -0.38984  -0.38660  -0.37983  -0.37595  -0.37171
 Alpha  occ. eigenvalues --   -0.36542  -0.34917  -0.33985
 Alpha virt. eigenvalues --   -0.10667  -0.10230  -0.09336  -0.08438  -0.07525
 Alpha virt. eigenvalues --   -0.02710  -0.02120  -0.01796  -0.01479  -0.00799
 Alpha virt. eigenvalues --   -0.00083   0.00314   0.00972   0.01340   0.01655

 Mulliken charges:
               1
     1  N   -0.751149
     2  H    0.334078
     3  H    0.326515
     4  C   -0.237413
     5  H    0.199462
     6  H    0.183846
     7  C    0.602255
     8  O   -0.546491
     9  N   -0.591620
    10  H    0.374312
    11  C   -0.067698
    12  H    0.185523
    13  C    0.630842
    14  C   -0.277432
    15  H    0.164515
    16  H    0.096570
    17  O   -0.586834
    18  C   -0.080027
    19  H    0.138852
    20  C   -0.444231
    21  H    0.135575
    22  H    0.164558
    23  H    0.149736
    24  C   -0.454954
    25  H    0.133421
    26  H    0.156666
    27  H    0.166573
    28  N   -0.638810
    29  H    0.404292
    30  C    0.005805
    31  H    0.157256
    32  C    0.664208
    33  C   -0.110802
    34  H    0.161712
    35  O   -0.613343
    36  C   -0.467706
    37  H    0.150401
    38  H    0.174048
    39  H    0.160292
    40  C   -0.483277
    41  H    0.149285
    42  H    0.170911
    43  H    0.184447
    44  N   -0.604964
    45  H    0.366582
    46  C   -0.009562
    47  H    0.207627
    48  C    0.570082
    49  C   -0.315862
    50  H    0.178406
    51  H    0.180865
    52  O   -0.450051
    53  C   -0.296358
    54  H    0.156767
    55  H    0.186363
    56  C   -0.286508
    57  H    0.173012
    58  H    0.189095
    59  C   -0.186381
    60  H    0.200665
    61  H    0.204596
    62  N   -0.801746
    63  H    0.394635
    64  H    0.463104
    65  H    0.430035
    66  O   -0.559446
    67  H    0.434880
 Sum of Mulliken charges =   1.00000

 Dipole moment (field-independent basis, Debye):
    X=              6.6394    Y=              9.0970    Z=             -6.8697  Tot=             13.1921
 Quadrupole moment (field-independent basis, Debye-Ang):
   XX=            -87.7940   YY=           -147.1566   ZZ=           -125.5040
   XY=             19.9362   XZ=            -27.9084   YZ=            -27.6182

 Normal termination of Gaussian 16 at Thu Jun  2 03:21:32 2022.
