 Gaussian 16, Revision C.01,
 Gaussian 16:  ES64L-G16RevC.01  3-Jul-2019

 ----------------------------------------------------------------------
 # B3LYP/6-31G* empiricaldispersion=gd3 guess=read geom=check nosymm in
 tegral(ultrafinegrid)
 ----------------------------------------------------------------------

 -----------------------------------------------------
 Candidate Structure: Conf:81 Charge calc in gas phase
 -----------------------------------------------------
 Structure from the checkpoint file:  "conf-81.chk"
 Charge =  1 Multiplicity = 1

                          Input orientation:
 ---------------------------------------------------------------------
 Center     Atomic      Atomic             Coordinates (Angstroms)
 Number     Number       Type             X           Y           Z
 ---------------------------------------------------------------------
      1          7           0       -2.999001    1.519778    4.073504
      2          1           0       -3.167083    0.520904    4.180230
      3          1           0       -2.001877    1.649861    4.234385
      4          6           0       -3.339140    1.920127    2.724763
      5          1           0       -3.106567    2.984560    2.587973
      6          1           0       -4.425087    1.825595    2.584314
      7          6           0       -2.664229    1.103144    1.613992
      8          8           0       -2.112463    0.021482    1.845322
      9          7           0       -2.725599    1.617924    0.355268
     10          1           0       -3.141109    2.529179    0.211400
     11          6           0       -2.296778    0.861068   -0.823157
     12          1           0       -2.516883   -0.190532   -0.610839
     13          6           0       -0.764431    0.982666   -0.993499
     14          6           0       -3.045576    1.312985   -2.078656
     15          1           0       -2.735337    2.335151   -2.329372
     16          1           0       -2.704257    0.681964   -2.912199
     17          8           0       -0.244048    1.617910   -1.934845
     18          6           0       -4.582046    1.224470   -1.994969
     19          1           0       -4.924056    1.907524   -1.203863
     20          6           0       -5.196243    1.701536   -3.318755
     21          1           0       -4.910064    1.035919   -4.143675
     22          1           0       -6.289659    1.706706   -3.263198
     23          1           0       -4.867333    2.715721   -3.574257
     24          6           0       -5.068112   -0.187587   -1.639527
     25          1           0       -4.699702   -0.923079   -2.367016
     26          1           0       -4.739055   -0.502304   -0.642923
     27          1           0       -6.161990   -0.232742   -1.650981
     28          7           0       -0.050758    0.349015   -0.057648
     29          1           0       -0.588062   -0.086597    0.696205
     30          6           0        1.398907    0.412564    0.063341
     31          1           0        1.691326    1.437300    0.333519
     32          6           0        2.098166    0.046027   -1.253889
     33          6           0        1.840303   -0.553589    1.207029
     34          1           0        1.358137   -1.516781    0.990836
     35          8           0        1.682930   -0.843716   -2.007499
     36          6           0        3.357937   -0.783094    1.247493
     37          1           0        3.914626    0.154154    1.358290
     38          1           0        3.605484   -1.417352    2.104017
     39          1           0        3.724569   -1.292240    0.350137
     40          6           0        1.345992   -0.033389    2.568617
     41          1           0        1.814326    0.931031    2.802172
     42          1           0        1.625753   -0.738459    3.357749
     43          1           0        0.259680    0.090798    2.615280
     44          7           0        3.249892    0.725482   -1.473318
     45          1           0        3.558531    1.374190   -0.754706
     46          6           0        4.353697    0.191027   -2.267263
     47          1           0        4.202949   -0.889089   -2.374453
     48          6           0        5.627093    0.423284   -1.450267
     49          6           0        4.514080    0.802226   -3.677268
     50          1           0        4.678170    1.883788   -3.588969
     51          1           0        5.427134    0.375964   -4.103763
     52          8           0        5.684377    1.128618   -0.465519
     53          6           0        3.324992    0.509407   -4.605822
     54          1           0        2.943538   -0.493278   -4.372608
     55          1           0        3.677505    0.465555   -5.643103
     56          6           0        2.195028    1.551734   -4.525023
     57          1           0        2.006944    1.861833   -3.491094
     58          1           0        2.491248    2.455160   -5.069426
     59          6           0        0.891200    1.032130   -5.128448
     60          1           0        0.189205    1.835909   -5.361874
     61          1           0        1.067655    0.445642   -6.034451
     62          7           0        0.199247    0.141648   -4.124811
     63          1           0       -0.542029   -0.426602   -4.540937
     64          1           0        0.861643   -0.472748   -3.606312
     65          1           0       -0.196245    0.742141   -3.356299
     66          8           0        6.672354   -0.229228   -1.977527
     67          1           0        7.458547   -0.024018   -1.434894
 ---------------------------------------------------------------------

 SCF Done:  E(RB3LYP) =  -1396.75997516     A.U. after    1 cycles

 Alpha  occ. eigenvalues --  -19.30878 -19.25551 -19.24784 -19.24494 -19.22983
 Alpha  occ. eigenvalues --  -14.55800 -14.47970 -14.47616 -14.47615 -14.39732
 Alpha  occ. eigenvalues --  -10.43505 -10.41376 -10.41098 -10.39341 -10.37195
 Alpha  occ. eigenvalues --  -10.35536 -10.34974 -10.34821 -10.31241 -10.31119
 Alpha  occ. eigenvalues --  -10.30404 -10.30340 -10.30288 -10.29741 -10.28955
 Alpha  occ. eigenvalues --  -10.27158 -10.26836 -10.26416 -10.26301  -1.21998
 Alpha  occ. eigenvalues --   -1.16677  -1.15517  -1.14485  -1.13194  -1.11050
 Alpha  occ. eigenvalues --   -1.04876  -1.04642  -1.03562  -0.96899  -0.93022
 Alpha  occ. eigenvalues --   -0.91708  -0.91052  -0.89043  -0.86102  -0.83732
 Alpha  occ. eigenvalues --   -0.81695  -0.78751  -0.78272  -0.77364  -0.76753
 Alpha  occ. eigenvalues --   -0.75403  -0.73285  -0.71882  -0.70466  -0.70071
 Alpha  occ. eigenvalues --   -0.69835  -0.69613  -0.68287  -0.67444  -0.66349
 Alpha  occ. eigenvalues --   -0.64050  -0.63134  -0.62337  -0.61350  -0.60438
 Alpha  occ. eigenvalues --   -0.59875  -0.59580  -0.58704  -0.58475  -0.58232
 Alpha  occ. eigenvalues --   -0.57810  -0.55864  -0.55761  -0.55620  -0.54796
 Alpha  occ. eigenvalues --   -0.54590  -0.53877  -0.53840  -0.52464  -0.52387
 Alpha  occ. eigenvalues --   -0.52158  -0.51566  -0.51301  -0.51044  -0.50457
 Alpha  occ. eigenvalues --   -0.49939  -0.49336  -0.48897  -0.48861  -0.48277
 Alpha  occ. eigenvalues --   -0.48211  -0.47502  -0.47345  -0.46149  -0.46086
 Alpha  occ. eigenvalues --   -0.45572  -0.45278  -0.45167  -0.44397  -0.43911
 Alpha  occ. eigenvalues --   -0.43333  -0.42648  -0.42445  -0.42319  -0.42163
 Alpha  occ. eigenvalues --   -0.39886  -0.39486  -0.38696  -0.38189  -0.37444
 Alpha  occ. eigenvalues --   -0.36798  -0.36065  -0.32324
 Alpha virt. eigenvalues --   -0.11453  -0.11126  -0.10293  -0.08500  -0.07866
 Alpha virt. eigenvalues --   -0.02884  -0.02747  -0.01874  -0.01665  -0.00866
 Alpha virt. eigenvalues --   -0.00747  -0.00120  -0.00015   0.00698   0.00872

 Mulliken charges:
               1
     1  N   -0.673661
     2  H    0.320232
     3  H    0.307718
     4  C   -0.247949
     5  H    0.170305
     6  H    0.193362
     7  C    0.589129
     8  O   -0.534922
     9  N   -0.592831
    10  H    0.346599
    11  C   -0.068104
    12  H    0.195469
    13  C    0.637210
    14  C   -0.284902
    15  H    0.161574
    16  H    0.111858
    17  O   -0.591497
    18  C   -0.076530
    19  H    0.128131
    20  C   -0.444824
    21  H    0.139439
    22  H    0.167079
    23  H    0.148703
    24  C   -0.456107
    25  H    0.140501
    26  H    0.155305
    27  H    0.168880
    28  N   -0.620701
    29  H    0.402718
    30  C   -0.009265
    31  H    0.166176
    32  C    0.628144
    33  C   -0.116220
    34  H    0.164180
    35  O   -0.585486
    36  C   -0.477678
    37  H    0.168171
    38  H    0.175144
    39  H    0.149812
    40  C   -0.477846
    41  H    0.153100
    42  H    0.173741
    43  H    0.172049
    44  N   -0.584628
    45  H    0.364661
    46  C   -0.056682
    47  H    0.202798
    48  C    0.594748
    49  C   -0.276919
    50  H    0.163065
    51  H    0.188359
    52  O   -0.458474
    53  C   -0.285169
    54  H    0.147695
    55  H    0.167815
    56  C   -0.302166
    57  H    0.195104
    58  H    0.183348
    59  C   -0.185840
    60  H    0.204350
    61  H    0.200472
    62  N   -0.802727
    63  H    0.391990
    64  H    0.442595
    65  H    0.446285
    66  O   -0.552461
    67  H    0.435575
 Sum of Mulliken charges =   1.00000

 Dipole moment (field-independent basis, Debye):
    X=              3.2118    Y=              3.3470    Z=            -12.6900  Tot=             13.5113
 Quadrupole moment (field-independent basis, Debye-Ang):
   XX=           -107.3515   YY=           -168.3598   ZZ=           -111.4781
   XY=             -6.7307   XZ=             -8.1522   YZ=             -7.8131

 Normal termination of Gaussian 16 at Thu Jun  2 03:21:09 2022.
