 Gaussian 16, Revision C.01,
 Gaussian 16:  ES64L-G16RevC.01  3-Jul-2019

 ----------------------------------------------------------------------
 # B3LYP/6-31G* empiricaldispersion=gd3 guess=read geom=check nosymm in
 tegral(ultrafinegrid)
 ----------------------------------------------------------------------

 -----------------------------------------------------
 Candidate Structure: Conf:34 Charge calc in gas phase
 -----------------------------------------------------
 Structure from the checkpoint file:  "conf-34.chk"
 Charge =  1 Multiplicity = 1

                          Input orientation:
 ---------------------------------------------------------------------
 Center     Atomic      Atomic             Coordinates (Angstroms)
 Number     Number       Type             X           Y           Z
 ---------------------------------------------------------------------
      1          7           0       -3.468171    1.633438    3.595646
      2          1           0       -4.334969    1.684225    4.123025
      3          1           0       -2.735727    1.999619    4.199013
      4          6           0       -3.173014    0.252107    3.198761
      5          1           0       -4.107942   -0.309806    3.092626
      6          1           0       -2.552538   -0.311407    3.907543
      7          6           0       -2.482396    0.178711    1.837044
      8          8           0       -1.984561   -0.871221    1.416172
      9          7           0       -2.487902    1.336085    1.135192
     10          1           0       -2.922856    2.126561    1.606486
     11          6           0       -2.044080    1.405088   -0.250603
     12          1           0       -2.305997    0.448329   -0.715867
     13          6           0       -0.502983    1.513737   -0.309894
     14          6           0       -2.734015    2.543882   -1.002312
     15          1           0       -2.374332    3.502508   -0.603097
     16          1           0       -2.407293    2.480849   -2.051269
     17          8           0        0.102542    2.559959   -0.640253
     18          6           0       -4.274656    2.520846   -0.976883
     19          1           0       -4.602243    2.648651    0.064123
     20          6           0       -4.814350    3.708343   -1.786983
     21          1           0       -4.536357    3.617287   -2.846113
     22          1           0       -5.907113    3.752630   -1.739661
     23          1           0       -4.426448    4.663817   -1.411789
     24          6           0       -4.845139    1.193945   -1.495795
     25          1           0       -4.492565    0.986164   -2.514592
     26          1           0       -4.563340    0.347492   -0.860481
     27          1           0       -5.939003    1.231276   -1.525633
     28          7           0        0.138908    0.403733    0.043533
     29          1           0       -0.443527   -0.378321    0.351514
     30          6           0        1.586896    0.252465    0.012241
     31          1           0        2.039575    1.011401    0.664747
     32          6           0        2.090947    0.475034   -1.430480
     33          6           0        1.948548   -1.162884    0.548999
     34          1           0        1.391004   -1.880197   -0.070116
     35          8           0        1.402776    0.220715   -2.413349
     36          6           0        3.443892   -1.484811    0.417904
     37          1           0        4.065077   -0.754670    0.951375
     38          1           0        3.645216   -2.466306    0.857894
     39          1           0        3.780593   -1.516086   -0.621513
     40          6           0        1.502405   -1.313667    2.014409
     41          1           0        2.020334   -0.583807    2.649602
     42          1           0        1.758922   -2.313433    2.379205
     43          1           0        0.424328   -1.185498    2.148595
     44          7           0        3.359832    0.968906   -1.514475
     45          1           0        3.911718    1.033835   -0.664960
     46          6           0        4.162033    0.828031   -2.725317
     47          1           0        3.751479   -0.002247   -3.312266
     48          6           0        5.573575    0.447115   -2.281202
     49          6           0        4.207183    2.078132   -3.636696
     50          1           0        4.646564    2.917131   -3.081108
     51          1           0        4.892202    1.847226   -4.458132
     52          8           0        5.952624    0.451107   -1.129085
     53          6           0        2.833621    2.468567   -4.209430
     54          1           0        2.270336    1.554807   -4.428310
     55          1           0        2.974826    2.998012   -5.159448
     56          6           0        2.015020    3.355108   -3.256672
     57          1           0        2.073427    2.970953   -2.236204
     58          1           0        2.433900    4.372055   -3.249324
     59          6           0        0.550700    3.396888   -3.670148
     60          1           0        0.398410    3.854040   -4.651786
     61          1           0        0.127578    2.389076   -3.664563
     62          7           0       -0.244226    4.188615   -2.654038
     63          1           0       -1.216854    4.327587   -2.940021
     64          1           0       -0.235005    3.628030   -1.734595
     65          1           0        0.173114    5.109887   -2.492102
     66          8           0        6.349799    0.124495   -3.328044
     67          1           0        7.237387   -0.091382   -2.982124
 ---------------------------------------------------------------------

 SCF Done:  E(RB3LYP) =  -1396.76009074     A.U. after    1 cycles

 Alpha  occ. eigenvalues --  -19.29529 -19.24836 -19.24162 -19.21641 -19.21574
 Alpha  occ. eigenvalues --  -14.56962 -14.46615 -14.46083 -14.45647 -14.42682
 Alpha  occ. eigenvalues --  -10.42085 -10.40587 -10.38597 -10.38489 -10.36811
 Alpha  occ. eigenvalues --  -10.34432 -10.33790 -10.33368 -10.31701 -10.30407
 Alpha  occ. eigenvalues --  -10.30348 -10.29256 -10.29113 -10.28982 -10.28855
 Alpha  occ. eigenvalues --  -10.27091 -10.26440 -10.25992 -10.25680  -1.20613
 Alpha  occ. eigenvalues --   -1.15927  -1.13406  -1.13308  -1.11757  -1.11707
 Alpha  occ. eigenvalues --   -1.03906  -1.02874  -1.02439  -0.98594  -0.92000
 Alpha  occ. eigenvalues --   -0.91640  -0.90202  -0.87739  -0.85790  -0.82579
 Alpha  occ. eigenvalues --   -0.80616  -0.79588  -0.77749  -0.77072  -0.75865
 Alpha  occ. eigenvalues --   -0.75138  -0.72421  -0.71671  -0.71194  -0.69062
 Alpha  occ. eigenvalues --   -0.68535  -0.67952  -0.67665  -0.66522  -0.66333
 Alpha  occ. eigenvalues --   -0.63091  -0.62049  -0.61349  -0.60960  -0.60191
 Alpha  occ. eigenvalues --   -0.59606  -0.59043  -0.58696  -0.57521  -0.57107
 Alpha  occ. eigenvalues --   -0.56477  -0.56205  -0.55371  -0.54757  -0.54011
 Alpha  occ. eigenvalues --   -0.53054  -0.52793  -0.52600  -0.52293  -0.51816
 Alpha  occ. eigenvalues --   -0.51787  -0.51038  -0.50389  -0.50262  -0.49861
 Alpha  occ. eigenvalues --   -0.49599  -0.48939  -0.48202  -0.47977  -0.47763
 Alpha  occ. eigenvalues --   -0.47397  -0.46522  -0.46505  -0.46293  -0.45538
 Alpha  occ. eigenvalues --   -0.45058  -0.44174  -0.44109  -0.43293  -0.42762
 Alpha  occ. eigenvalues --   -0.42724  -0.42621  -0.42434  -0.41868  -0.41481
 Alpha  occ. eigenvalues --   -0.39607  -0.38038  -0.37545  -0.37050  -0.35552
 Alpha  occ. eigenvalues --   -0.35353  -0.34850  -0.34099
 Alpha virt. eigenvalues --   -0.10426  -0.09468  -0.09075  -0.07940  -0.07520
 Alpha virt. eigenvalues --   -0.04414  -0.02143  -0.01746  -0.01387  -0.01062
 Alpha virt. eigenvalues --   -0.00207  -0.00160   0.00927   0.01327   0.02038

 Mulliken charges:
               1
     1  N   -0.752213
     2  H    0.333854
     3  H    0.326292
     4  C   -0.239345
     5  H    0.199783
     6  H    0.185688
     7  C    0.606961
     8  O   -0.542417
     9  N   -0.594510
    10  H    0.370817
    11  C   -0.060749
    12  H    0.200363
    13  C    0.670464
    14  C   -0.306065
    15  H    0.136721
    16  H    0.119479
    17  O   -0.611849
    18  C   -0.075183
    19  H    0.142533
    20  C   -0.450746
    21  H    0.134956
    22  H    0.173352
    23  H    0.138572
    24  C   -0.457602
    25  H    0.146546
    26  H    0.161416
    27  H    0.167031
    28  N   -0.611656
    29  H    0.401161
    30  C   -0.022706
    31  H    0.163617
    32  C    0.619092
    33  C   -0.118624
    34  H    0.160817
    35  O   -0.537737
    36  C   -0.467546
    37  H    0.156893
    38  H    0.171161
    39  H    0.154287
    40  C   -0.469033
    41  H    0.146819
    42  H    0.168893
    43  H    0.171597
    44  N   -0.607897
    45  H    0.359450
    46  C   -0.043550
    47  H    0.203180
    48  C    0.588068
    49  C   -0.277094
    50  H    0.151850
    51  H    0.183837
    52  O   -0.461861
    53  C   -0.279649
    54  H    0.180088
    55  H    0.154763
    56  C   -0.294133
    57  H    0.202491
    58  H    0.147038
    59  C   -0.198147
    60  H    0.196780
    61  H    0.226201
    62  N   -0.773662
    63  H    0.397008
    64  H    0.462447
    65  H    0.395223
    66  O   -0.555256
    67  H    0.431644
 Sum of Mulliken charges =   1.00000

 Dipole moment (field-independent basis, Debye):
    X=             -0.5496    Y=             14.0375    Z=             -5.4114  Tot=             15.0545
 Quadrupole moment (field-independent basis, Debye-Ang):
   XX=           -110.8001   YY=           -116.7226   ZZ=           -120.3784
   XY=            -14.2964   XZ=            -28.5707   YZ=            -33.2315

 Normal termination of Gaussian 16 at Thu Jun  2 03:21:03 2022.
