 Gaussian 16, Revision C.01,
 Gaussian 16:  ES64L-G16RevC.01  3-Jul-2019

 ----------------------------------------------------------------------
 # B3LYP/6-31G* empiricaldispersion=gd3 guess=read geom=check nosymm in
 tegral(ultrafinegrid)
 ----------------------------------------------------------------------

 ------------------------------------------------------
 Candidate Structure: Conf:448 Charge calc in gas phase
 ------------------------------------------------------
 Structure from the checkpoint file:  "conf-448.chk"
 Charge =  1 Multiplicity = 1

                          Input orientation:
 ---------------------------------------------------------------------
 Center     Atomic      Atomic             Coordinates (Angstroms)
 Number     Number       Type             X           Y           Z
 ---------------------------------------------------------------------
      1          7           0       -2.355677   -1.762798   -3.537543
      2          1           0       -2.667513   -2.720533   -3.690091
      3          1           0       -2.689725   -1.208126   -4.325933
      4          6           0       -2.955443   -1.231133   -2.302821
      5          1           0       -2.667403   -1.874789   -1.464141
      6          1           0       -4.056043   -1.203189   -2.327490
      7          6           0       -2.437119    0.193449   -2.080921
      8          8           0       -1.944622    0.839386   -3.009645
      9          7           0       -2.516002    0.682232   -0.821688
     10          1           0       -3.003330    0.150202   -0.111191
     11          6           0       -2.152337    2.071028   -0.522447
     12          1           0       -2.552218    2.707771   -1.315834
     13          6           0       -0.635450    2.330481   -0.532700
     14          6           0       -2.722912    2.500500    0.839726
     15          1           0       -2.268756    1.877557    1.625225
     16          1           0       -2.373111    3.523826    1.012870
     17          8           0       -0.218603    3.479146   -0.511012
     18          6           0       -4.259082    2.453883    0.964009
     19          1           0       -4.596970    1.413312    0.827600
     20          6           0       -4.667832    2.886952    2.379756
     21          1           0       -4.374616    3.927454    2.565428
     22          1           0       -5.752610    2.816945    2.512135
     23          1           0       -4.193000    2.262698    3.145845
     24          6           0       -4.953786    3.318577   -0.096970
     25          1           0       -4.609902    4.358443   -0.035615
     26          1           0       -4.764695    2.961759   -1.115960
     27          1           0       -6.038398    3.316391    0.054140
     28          7           0        0.188952    1.238282   -0.538221
     29          1           0       -0.204647    0.319967   -0.383653
     30          6           0        1.609604    1.392756   -0.260095
     31          1           0        1.930226    2.311764   -0.761656
     32          6           0        2.332191    0.186752   -0.858427
     33          6           0        1.883011    1.565151    1.269373
     34          1           0        1.225005    2.395714    1.553356
     35          8           0        1.743920   -0.897495   -1.025204
     36          6           0        1.487115    0.321531    2.074868
     37          1           0        2.106710   -0.544032    1.812084
     38          1           0        1.613463    0.509548    3.145749
     39          1           0        0.439037    0.046116    1.911545
     40          6           0        3.325705    1.992549    1.567983
     41          1           0        4.043651    1.185970    1.386478
     42          1           0        3.417502    2.279459    2.620407
     43          1           0        3.622430    2.861737    0.967146
     44          7           0        3.629248    0.364698   -1.180896
     45          1           0        4.058980    1.257436   -0.972657
     46          6           0        4.528047   -0.741739   -1.516743
     47          1           0        4.093609   -1.647213   -1.080389
     48          6           0        5.903784   -0.572255   -0.870049
     49          6           0        4.717677   -0.984473   -3.032354
     50          1           0        5.129718   -0.080364   -3.499432
     51          1           0        5.483154   -1.761191   -3.118469
     52          8           0        6.763406   -1.414588   -0.932934
     53          6           0        3.435247   -1.433837   -3.755786
     54          1           0        2.836576   -2.035760   -3.061561
     55          1           0        3.706074   -2.101835   -4.581947
     56          6           0        2.591079   -0.283099   -4.337183
     57          1           0        2.548857    0.567987   -3.646419
     58          1           0        3.067994    0.093594   -5.248938
     59          6           0        1.166093   -0.723296   -4.679738
     60          1           0        0.674939   -0.043565   -5.379960
     61          1           0        1.156865   -1.727302   -5.113714
     62          7           0        0.310235   -0.757721   -3.443813
     63          1           0       -0.581876   -1.321922   -3.551463
     64          1           0        0.835904   -1.076066   -2.607305
     65          1           0       -0.039063    0.182874   -3.212946
     66          8           0        6.060926    0.624713   -0.254926
     67          1           0        6.968331    0.649661    0.106220
 ---------------------------------------------------------------------

 SCF Done:  E(RB3LYP) =  -1396.76742111     A.U. after    2 cycles

 Alpha  occ. eigenvalues --  -19.30903 -19.24931 -19.24830 -19.24473 -19.21324
 Alpha  occ. eigenvalues --  -14.53614 -14.49148 -14.48956 -14.47278 -14.46500
 Alpha  occ. eigenvalues --  -10.42976 -10.42014 -10.41675 -10.38792 -10.36376
 Alpha  occ. eigenvalues --  -10.35793 -10.35491 -10.34212 -10.33886 -10.31174
 Alpha  occ. eigenvalues --  -10.30027 -10.29955 -10.29570 -10.28646 -10.28364
 Alpha  occ. eigenvalues --  -10.27017 -10.26895 -10.25622 -10.25354  -1.21467
 Alpha  occ. eigenvalues --   -1.16876  -1.16498  -1.13526  -1.12517  -1.09373
 Alpha  occ. eigenvalues --   -1.05379  -1.05277  -1.02919  -1.02749  -0.92553
 Alpha  occ. eigenvalues --   -0.91179  -0.90381  -0.88527  -0.86251  -0.83479
 Alpha  occ. eigenvalues --   -0.82145  -0.80827  -0.78044  -0.76679  -0.76554
 Alpha  occ. eigenvalues --   -0.74708  -0.72600  -0.71614  -0.71395  -0.70915
 Alpha  occ. eigenvalues --   -0.69780  -0.68527  -0.67047  -0.66775  -0.66034
 Alpha  occ. eigenvalues --   -0.65224  -0.65000  -0.62415  -0.61464  -0.61144
 Alpha  occ. eigenvalues --   -0.60078  -0.59372  -0.58986  -0.58216  -0.57812
 Alpha  occ. eigenvalues --   -0.57306  -0.56666  -0.56289  -0.55659  -0.54792
 Alpha  occ. eigenvalues --   -0.54677  -0.54427  -0.54124  -0.52942  -0.52550
 Alpha  occ. eigenvalues --   -0.52400  -0.51984  -0.51423  -0.50689  -0.50464
 Alpha  occ. eigenvalues --   -0.50259  -0.49858  -0.49448  -0.48529  -0.48089
 Alpha  occ. eigenvalues --   -0.47531  -0.47430  -0.47252  -0.46285  -0.45597
 Alpha  occ. eigenvalues --   -0.45390  -0.45101  -0.45000  -0.44245  -0.43450
 Alpha  occ. eigenvalues --   -0.43291  -0.42315  -0.41681  -0.41606  -0.41185
 Alpha  occ. eigenvalues --   -0.40699  -0.39738  -0.39646  -0.38671  -0.38392
 Alpha  occ. eigenvalues --   -0.37106  -0.35655  -0.34448
 Alpha virt. eigenvalues --   -0.11387  -0.11302  -0.09807  -0.07687  -0.06189
 Alpha virt. eigenvalues --   -0.04739  -0.03888  -0.02693  -0.01567  -0.01305
 Alpha virt. eigenvalues --   -0.00181   0.00050   0.00263   0.00801   0.01208

 Mulliken charges:
               1
     1  N   -0.759402
     2  H    0.345258
     3  H    0.348961
     4  C   -0.247669
     5  H    0.185083
     6  H    0.200562
     7  C    0.612969
     8  O   -0.540917
     9  N   -0.629138
    10  H    0.349084
    11  C   -0.029063
    12  H    0.206721
    13  C    0.627494
    14  C   -0.308492
    15  H    0.136631
    16  H    0.192351
    17  O   -0.510332
    18  C   -0.080176
    19  H    0.106237
    20  C   -0.444198
    21  H    0.158754
    22  H    0.160839
    23  H    0.146122
    24  C   -0.452257
    25  H    0.162151
    26  H    0.141678
    27  H    0.163083
    28  N   -0.633569
    29  H    0.334371
    30  C   -0.061660
    31  H    0.189737
    32  C    0.632415
    33  C   -0.079490
    34  H    0.173858
    35  O   -0.590382
    36  C   -0.458162
    37  H    0.157163
    38  H    0.171648
    39  H    0.132034
    40  C   -0.481368
    41  H    0.156030
    42  H    0.174663
    43  H    0.152472
    44  N   -0.596288
    45  H    0.371084
    46  C   -0.066252
    47  H    0.215215
    48  C    0.598738
    49  C   -0.275962
    50  H    0.157882
    51  H    0.197852
    52  O   -0.430601
    53  C   -0.286869
    54  H    0.153800
    55  H    0.168361
    56  C   -0.291290
    57  H    0.158497
    58  H    0.184191
    59  C   -0.179345
    60  H    0.203385
    61  H    0.195217
    62  N   -0.821831
    63  H    0.431013
    64  H    0.430171
    65  H    0.415066
    66  O   -0.580262
    67  H    0.436134
 Sum of Mulliken charges =   1.00000

 Dipole moment (field-independent basis, Debye):
    X=              0.0127    Y=             -2.4856    Z=             -9.2542  Tot=              9.5822
 Quadrupole moment (field-independent basis, Debye-Ang):
   XX=           -110.4114   YY=           -173.4831   ZZ=           -121.7725
   XY=             16.0706   XZ=             -2.5706   YZ=             21.9461

 Normal termination of Gaussian 16 at Thu Jun  2 03:21:27 2022.
