 Gaussian 16, Revision C.01,
 Gaussian 16:  ES64L-G16RevC.01  3-Jul-2019

 ----------------------------------------------------------------------
 # B3LYP/6-31G* empiricaldispersion=gd3 guess=read geom=check nosymm in
 tegral(ultrafinegrid)
 ----------------------------------------------------------------------

 ------------------------------------------------------
 Candidate Structure: Conf:746 Charge calc in gas phase
 ------------------------------------------------------
 Structure from the checkpoint file:  "conf-746.chk"
 Charge =  1 Multiplicity = 1

                          Input orientation:
 ---------------------------------------------------------------------
 Center     Atomic      Atomic             Coordinates (Angstroms)
 Number     Number       Type             X           Y           Z
 ---------------------------------------------------------------------
      1          7           0       -4.362997    4.403828    2.230244
      2          1           0       -4.871338    4.343751    1.347964
      3          1           0       -4.755122    3.655960    2.801017
      4          6           0       -2.965472    4.111376    1.967121
      5          1           0       -2.430320    3.994144    2.918142
      6          1           0       -2.505607    4.975155    1.463839
      7          6           0       -2.724857    2.877460    1.078640
      8          8           0       -3.634509    2.327910    0.464310
      9          7           0       -1.430398    2.458812    0.989712
     10          1           0       -0.683410    2.918957    1.495175
     11          6           0       -1.053838    1.325528    0.163622
     12          1           0       -1.790889    0.532231    0.323163
     13          6           0        0.338466    0.879044    0.603877
     14          6           0       -1.039829    1.710908   -1.339733
     15          1           0       -2.017085    2.163236   -1.542514
     16          1           0       -0.280022    2.494983   -1.467714
     17          8           0        1.162473    1.700689    1.029696
     18          6           0       -0.794427    0.574540   -2.350915
     19          1           0        0.175993    0.102491   -2.141210
     20          6           0       -1.879420   -0.512132   -2.279583
     21          1           0       -2.873843   -0.078760   -2.439320
     22          1           0       -1.713676   -1.278207   -3.044463
     23          1           0       -1.907488   -1.023388   -1.309536
     24          6           0       -0.727942    1.158967   -3.770517
     25          1           0       -1.682050    1.625932   -4.044616
     26          1           0        0.054460    1.925668   -3.852616
     27          1           0       -0.511015    0.379573   -4.508956
     28          7           0        0.620670   -0.433980    0.445166
     29          1           0       -0.070869   -1.027684    0.005622
     30          6           0        1.970727   -0.990754    0.613873
     31          1           0        2.386316   -0.553846    1.528353
     32          6           0        2.786079   -0.523046   -0.610759
     33          6           0        1.931995   -2.521556    0.739648
     34          1           0        1.522029   -2.910817   -0.202585
     35          8           0        2.808486   -1.138994   -1.668437
     36          6           0        3.356938   -3.072202    0.898642
     37          1           0        3.832761   -2.671854    1.802906
     38          1           0        3.330952   -4.162401    0.992860
     39          1           0        3.982026   -2.825693    0.035812
     40          6           0        1.042128   -2.962158    1.910831
     41          1           0        1.434899   -2.582156    2.862012
     42          1           0        1.015808   -4.054755    1.973295
     43          1           0        0.009566   -2.610034    1.814587
     44          7           0        3.413294    0.683612   -0.428011
     45          1           0        3.043340    1.243704    0.338473
     46          6           0        3.892935    1.404194   -1.597326
     47          1           0        4.331572    0.652318   -2.263862
     48          6           0        5.003253    2.368329   -1.186640
     49          6           0        2.749911    2.133347   -2.319563
     50          1           0        1.948693    1.405756   -2.460842
     51          1           0        2.357196    2.896926   -1.637032
     52          8           0        4.986907    3.570285   -1.395182
     53          6           0        3.142894    2.734862   -3.686462
     54          1           0        2.814325    2.067391   -4.489137
     55          1           0        4.231483    2.815404   -3.779710
     56          6           0        2.527986    4.123513   -3.942465
     57          1           0        2.656233    4.393627   -4.999708
     58          1           0        1.446903    4.085094   -3.743953
     59          6           0        3.180080    5.188163   -3.067765
     60          1           0        3.083982    4.990241   -2.001069
     61          1           0        4.240881    5.318202   -3.287006
     62          7           0        2.517241    6.549932   -3.319743
     63          1           0        2.940454    7.293236   -2.751095
     64          1           0        2.598694    6.825417   -4.306111
     65          1           0        1.515097    6.517494   -3.096409
     66          8           0        6.014778    1.744633   -0.573413
     67          1           0        6.683938    2.416979   -0.341020
 ---------------------------------------------------------------------

 SCF Done:  E(RB3LYP) =  -1396.70752211     A.U. after    1 cycles

 Alpha  occ. eigenvalues --  -19.30481 -19.25594 -19.22052 -19.20850 -19.18341
 Alpha  occ. eigenvalues --  -14.64790 -14.46387 -14.44966 -14.43218 -14.37265
 Alpha  occ. eigenvalues --  -10.43397 -10.40968 -10.38759 -10.37585 -10.35202
 Alpha  occ. eigenvalues --  -10.34706 -10.34089 -10.32081 -10.31908 -10.31428
 Alpha  occ. eigenvalues --  -10.29929 -10.28453 -10.27663 -10.27386 -10.27170
 Alpha  occ. eigenvalues --  -10.26170 -10.25418 -10.24844 -10.24373  -1.21785
 Alpha  occ. eigenvalues --   -1.18628  -1.13911  -1.12737  -1.12575  -1.10211
 Alpha  occ. eigenvalues --   -1.02638  -1.02101  -0.99776  -0.95487  -0.94274
 Alpha  occ. eigenvalues --   -0.90159  -0.89275  -0.88378  -0.84647  -0.83571
 Alpha  occ. eigenvalues --   -0.80144  -0.78768  -0.77275  -0.76721  -0.76607
 Alpha  occ. eigenvalues --   -0.76119  -0.75690  -0.72983  -0.72113  -0.70012
 Alpha  occ. eigenvalues --   -0.68843  -0.67372  -0.66767  -0.66375  -0.65578
 Alpha  occ. eigenvalues --   -0.64329  -0.63458  -0.61953  -0.60463  -0.59496
 Alpha  occ. eigenvalues --   -0.58995  -0.58122  -0.57605  -0.56984  -0.56285
 Alpha  occ. eigenvalues --   -0.56162  -0.55253  -0.54752  -0.54102  -0.53607
 Alpha  occ. eigenvalues --   -0.52965  -0.52496  -0.52113  -0.51726  -0.51009
 Alpha  occ. eigenvalues --   -0.50389  -0.50179  -0.49750  -0.49110  -0.48957
 Alpha  occ. eigenvalues --   -0.48831  -0.47908  -0.47125  -0.46660  -0.46372
 Alpha  occ. eigenvalues --   -0.46299  -0.46055  -0.45800  -0.45537  -0.45242
 Alpha  occ. eigenvalues --   -0.45057  -0.44535  -0.42853  -0.42655  -0.41916
 Alpha  occ. eigenvalues --   -0.41512  -0.41263  -0.40967  -0.40729  -0.40676
 Alpha  occ. eigenvalues --   -0.39202  -0.37297  -0.36160  -0.35131  -0.33107
 Alpha  occ. eigenvalues --   -0.32706  -0.32382  -0.29840
 Alpha virt. eigenvalues --   -0.15358  -0.10895  -0.08805  -0.08646  -0.08348
 Alpha virt. eigenvalues --   -0.06948  -0.06061  -0.04156  -0.02841  -0.02471
 Alpha virt. eigenvalues --   -0.02255  -0.01751  -0.01096  -0.00049   0.01612

 Mulliken charges:
               1
     1  N   -0.680694
     2  H    0.312559
     3  H    0.308930
     4  C   -0.244363
     5  H    0.164902
     6  H    0.156663
     7  C    0.578148
     8  O   -0.521012
     9  N   -0.620357
    10  H    0.341187
    11  C   -0.025733
    12  H    0.180890
    13  C    0.617960
    14  C   -0.259924
    15  H    0.180332
    16  H    0.108405
    17  O   -0.571970
    18  C   -0.106798
    19  H    0.142933
    20  C   -0.456965
    21  H    0.170848
    22  H    0.162274
    23  H    0.133818
    24  C   -0.452577
    25  H    0.155401
    26  H    0.115510
    27  H    0.162790
    28  N   -0.608302
    29  H    0.355172
    30  C   -0.038525
    31  H    0.173400
    32  C    0.625937
    33  C   -0.109303
    34  H    0.154274
    35  O   -0.526937
    36  C   -0.463995
    37  H    0.147097
    38  H    0.164314
    39  H    0.173268
    40  C   -0.450015
    41  H    0.153682
    42  H    0.166871
    43  H    0.141606
    44  N   -0.602951
    45  H    0.368133
    46  C   -0.049392
    47  H    0.214964
    48  C    0.584543
    49  C   -0.293643
    50  H    0.197656
    51  H    0.141920
    52  O   -0.500170
    53  C   -0.269323
    54  H    0.184022
    55  H    0.164572
    56  C   -0.307634
    57  H    0.165360
    58  H    0.168111
    59  C   -0.196537
    60  H    0.243084
    61  H    0.235257
    62  N   -0.734462
    63  H    0.431284
    64  H    0.423713
    65  H    0.424030
    66  O   -0.530243
    67  H    0.426008
 Sum of Mulliken charges =   1.00000

 Dipole moment (field-independent basis, Debye):
    X=             13.6072    Y=             23.5874    Z=            -12.9254  Tot=             30.1428
 Quadrupole moment (field-independent basis, Debye-Ang):
   XX=           -137.1671   YY=             -9.8234   ZZ=           -121.0140
   XY=             77.1831   XZ=            -29.4256   YZ=            -94.5272

 Normal termination of Gaussian 16 at Thu Jun  2 03:30:36 2022.
