 Gaussian 16, Revision C.01,
 Gaussian 16:  ES64L-G16RevC.01  3-Jul-2019

 ----------------------------------------------------------------------
 # B3LYP/6-31G* empiricaldispersion=gd3 guess=read geom=check nosymm in
 tegral(ultrafinegrid)
 ----------------------------------------------------------------------

 ------------------------------------------------------
 Candidate Structure: Conf:684 Charge calc in gas phase
 ------------------------------------------------------
 Structure from the checkpoint file:  "conf-684.chk"
 Charge =  1 Multiplicity = 1

                          Input orientation:
 ---------------------------------------------------------------------
 Center     Atomic      Atomic             Coordinates (Angstroms)
 Number     Number       Type             X           Y           Z
 ---------------------------------------------------------------------
      1          7           0       -4.404659    4.116518    1.183365
      2          1           0       -4.994364    3.727011    0.448373
      3          1           0       -4.634572    3.570895    2.012787
      4          6           0       -3.017170    3.881160    0.832045
      5          1           0       -2.373603    4.163947    1.675288
      6          1           0       -2.738152    4.545526    0.000628
      7          6           0       -2.697506    2.438026    0.403265
      8          8           0       -3.573434    1.603193    0.202327
      9          7           0       -1.372841    2.152799    0.228828
     10          1           0       -0.651735    2.842549    0.397841
     11          6           0       -0.936992    0.829446   -0.178821
     12          1           0       -1.520946    0.095228    0.384941
     13          6           0        0.551710    0.709070    0.133503
     14          6           0       -1.173434    0.603127   -1.694623
     15          1           0       -2.230443    0.827892   -1.874861
     16          1           0       -0.580743    1.362229   -2.228350
     17          8           0        1.300653    1.692876    0.017552
     18          6           0       -0.848127   -0.798078   -2.244992
     19          1           0        0.207808   -1.027088   -2.040453
     20          6           0       -1.710620   -1.893306   -1.597631
     21          1           0       -2.776899   -1.681770   -1.739420
     22          1           0       -1.494335   -2.870969   -2.040924
     23          1           0       -1.544138   -1.984439   -0.517729
     24          6           0       -1.040739   -0.809052   -3.768378
     25          1           0       -2.084887   -0.603360   -4.032928
     26          1           0       -0.418623   -0.044096   -4.252014
     27          1           0       -0.770912   -1.780553   -4.196377
     28          7           0        0.988079   -0.523503    0.465157
     29          1           0        0.318313   -1.280581    0.474649
     30          6           0        2.399045   -0.880520    0.668151
     31          1           0        2.849065   -0.061707    1.240315
     32          6           0        3.095558   -0.928825   -0.713200
     33          6           0        2.535891   -2.189308    1.475709
     34          1           0        3.596601   -2.460605    1.406464
     35          8           0        3.280099   -1.946296   -1.363787
     36          6           0        2.186635   -1.940837    2.950600
     37          1           0        1.143963   -1.618671    3.061279
     38          1           0        2.313025   -2.859104    3.532899
     39          1           0        2.825968   -1.169295    3.394513
     40          6           0        1.720372   -3.362891    0.904045
     41          1           0        0.639259   -3.223317    1.048769
     42          1           0        1.979745   -4.281877    1.438934
     43          1           0        1.923122   -3.512818   -0.157738
     44          7           0        3.463169    0.320234   -1.159387
     45          1           0        2.989081    1.103949   -0.705169
     46          6           0        3.846406    0.493107   -2.552753
     47          1           0        4.458592   -0.364844   -2.838157
     48          6           0        4.755767    1.713131   -2.603743
     49          6           0        2.606739    0.606950   -3.458295
     50          1           0        2.077339   -0.349089   -3.408927
     51          1           0        1.943101    1.342089   -2.987188
     52          8           0        5.952445    1.728964   -2.594357
     53          6           0        2.926021    0.967264   -4.918872
     54          1           0        3.284268    0.080625   -5.451498
     55          1           0        3.764688    1.677898   -4.961811
     56          6           0        1.737887    1.558577   -5.700783
     57          1           0        2.073146    1.874676   -6.696578
     58          1           0        0.968532    0.795652   -5.864657
     59          6           0        1.035840    2.724620   -5.003822
     60          1           0        0.348772    3.246450   -5.673511
     61          1           0        0.484011    2.411089   -4.115916
     62          7           0        2.041725    3.763981   -4.515581
     63          1           0        1.566628    4.569193   -4.093325
     64          1           0        2.701784    3.376476   -3.801016
     65          1           0        2.609595    4.115390   -5.294937
     66          8           0        4.029139    2.913222   -2.608585
     67          1           0        4.698821    3.613960   -2.476108
 ---------------------------------------------------------------------

 SCF Done:  E(RB3LYP) =  -1396.71053870     A.U. after    1 cycles

 Alpha  occ. eigenvalues --  -19.34786 -19.28059 -19.23541 -19.22246 -19.19311
 Alpha  occ. eigenvalues --  -14.63049 -14.47743 -14.46246 -14.44315 -14.37907
 Alpha  occ. eigenvalues --  -10.45661 -10.41585 -10.40174 -10.39031 -10.36148
 Alpha  occ. eigenvalues --  -10.36028 -10.35019 -10.33432 -10.33431 -10.33154
 Alpha  occ. eigenvalues --  -10.32275 -10.29219 -10.29044 -10.28631 -10.28546
 Alpha  occ. eigenvalues --  -10.27538 -10.26549 -10.25592 -10.25552  -1.24292
 Alpha  occ. eigenvalues --   -1.17411  -1.15712  -1.15272  -1.13968  -1.11223
 Alpha  occ. eigenvalues --   -1.04104  -1.03570  -1.00856  -0.96232  -0.94971
 Alpha  occ. eigenvalues --   -0.91543  -0.90896  -0.89465  -0.86141  -0.84749
 Alpha  occ. eigenvalues --   -0.81111  -0.79898  -0.77923  -0.77167  -0.76636
 Alpha  occ. eigenvalues --   -0.76029  -0.75836  -0.74998  -0.73925  -0.72691
 Alpha  occ. eigenvalues --   -0.70302  -0.68772  -0.67695  -0.66742  -0.65989
 Alpha  occ. eigenvalues --   -0.65599  -0.64015  -0.63426  -0.61712  -0.61426
 Alpha  occ. eigenvalues --   -0.60374  -0.59604  -0.59033  -0.58756  -0.57150
 Alpha  occ. eigenvalues --   -0.56991  -0.56740  -0.56683  -0.55568  -0.54904
 Alpha  occ. eigenvalues --   -0.54797  -0.53948  -0.53578  -0.53096  -0.52690
 Alpha  occ. eigenvalues --   -0.51971  -0.51625  -0.51023  -0.50847  -0.50392
 Alpha  occ. eigenvalues --   -0.49894  -0.49572  -0.48813  -0.48269  -0.48108
 Alpha  occ. eigenvalues --   -0.47654  -0.47390  -0.47002  -0.46718  -0.46544
 Alpha  occ. eigenvalues --   -0.46487  -0.45852  -0.45801  -0.43713  -0.43014
 Alpha  occ. eigenvalues --   -0.42786  -0.42461  -0.42093  -0.41997  -0.41824
 Alpha  occ. eigenvalues --   -0.41264  -0.38731  -0.37593  -0.36329  -0.34249
 Alpha  occ. eigenvalues --   -0.33662  -0.33409  -0.30510
 Alpha virt. eigenvalues --   -0.14078  -0.13443  -0.09740  -0.08350  -0.08182
 Alpha virt. eigenvalues --   -0.07106  -0.06860  -0.05039  -0.04772  -0.03634
 Alpha virt. eigenvalues --   -0.03124  -0.01954  -0.01467  -0.00512   0.00466

 Mulliken charges:
               1
     1  N   -0.677671
     2  H    0.313161
     3  H    0.310700
     4  C   -0.245463
     5  H    0.167130
     6  H    0.158919
     7  C    0.577449
     8  O   -0.516730
     9  N   -0.622314
    10  H    0.339144
    11  C   -0.020746
    12  H    0.182982
    13  C    0.617411
    14  C   -0.266144
    15  H    0.187225
    16  H    0.104723
    17  O   -0.580676
    18  C   -0.103098
    19  H    0.132339
    20  C   -0.455043
    21  H    0.174118
    22  H    0.165067
    23  H    0.135251
    24  C   -0.453152
    25  H    0.164305
    26  H    0.105462
    27  H    0.165166
    28  N   -0.607765
    29  H    0.361112
    30  C   -0.059795
    31  H    0.182591
    32  C    0.621263
    33  C   -0.104602
    34  H    0.165813
    35  O   -0.505665
    36  C   -0.451759
    37  H    0.145740
    38  H    0.169473
    39  H    0.154815
    40  C   -0.482854
    41  H    0.129223
    42  H    0.172899
    43  H    0.194141
    44  N   -0.630492
    45  H    0.379732
    46  C   -0.016522
    47  H    0.223446
    48  C    0.572016
    49  C   -0.311587
    50  H    0.211088
    51  H    0.134373
    52  O   -0.390420
    53  C   -0.310243
    54  H    0.203181
    55  H    0.133592
    56  C   -0.295963
    57  H    0.179268
    58  H    0.213688
    59  C   -0.217505
    60  H    0.222982
    61  H    0.235842
    62  N   -0.776761
    63  H    0.420177
    64  H    0.461512
    65  H    0.413607
    66  O   -0.630736
    67  H    0.431581
 Sum of Mulliken charges =   1.00000

 Dipole moment (field-independent basis, Debye):
    X=              8.9044    Y=             12.7590    Z=            -17.8955  Tot=             23.7135
 Quadrupole moment (field-independent basis, Debye-Ang):
   XX=           -172.2840   YY=           -116.8026   ZZ=            -70.7941
   XY=             39.3566   XZ=            -30.1065   YZ=            -71.7921

 Normal termination of Gaussian 16 at Thu Jun  2 03:30:37 2022.
