 Gaussian 16, Revision C.01,
 Gaussian 16:  ES64L-G16RevC.01  3-Jul-2019

 ----------------------------------------------------------------------
 # B3LYP/6-31G* empiricaldispersion=gd3 guess=read geom=check nosymm in
 tegral(ultrafinegrid)
 ----------------------------------------------------------------------

 ------------------------------------------------------
 Candidate Structure: Conf:876 Charge calc in gas phase
 ------------------------------------------------------
 Structure from the checkpoint file:  "conf-876.chk"
 Charge =  1 Multiplicity = 1

                          Input orientation:
 ---------------------------------------------------------------------
 Center     Atomic      Atomic             Coordinates (Angstroms)
 Number     Number       Type             X           Y           Z
 ---------------------------------------------------------------------
      1          7           0       -1.431767   -2.144176   -4.653718
      2          1           0       -1.729051   -3.007534   -5.106575
      3          1           0       -1.829817   -1.378489   -5.197440
      4          6           0       -1.967997   -2.098001   -3.286150
      5          1           0       -1.601261   -2.974793   -2.738725
      6          1           0       -3.067462   -2.128825   -3.242337
      7          6           0       -1.458976   -0.835324   -2.582991
      8          8           0       -0.612819   -0.113708   -3.107433
      9          7           0       -1.968457   -0.584994   -1.350277
     10          1           0       -2.753036   -1.130798   -1.016715
     11          6           0       -1.615700    0.643069   -0.624228
     12          1           0       -1.734369    1.495353   -1.297835
     13          6           0       -0.130124    0.664871   -0.228573
     14          6           0       -2.498537    0.815669    0.622084
     15          1           0       -2.310444   -0.022616    1.307423
     16          1           0       -2.145927    1.719709    1.133090
     17          8           0        0.498899    1.715340   -0.199412
     18          6           0       -4.012911    0.945390    0.357614
     19          1           0       -4.374455    0.014153   -0.109804
     20          6           0       -4.751824    1.099925    1.695173
     21          1           0       -4.449230    2.026050    2.199024
     22          1           0       -5.835114    1.142413    1.540787
     23          1           0       -4.539242    0.264596    2.372462
     24          6           0       -4.341445    2.107413   -0.589692
     25          1           0       -3.956592    3.053843   -0.190200
     26          1           0       -3.912819    1.965180   -1.588429
     27          1           0       -5.424816    2.212442   -0.709868
     28          7           0        0.408356   -0.538894    0.133935
     29          1           0       -0.103636   -1.369053   -0.137061
     30          6           0        1.862493   -0.686810    0.227042
     31          1           0        2.235937    0.140698    0.837560
     32          6           0        2.368527   -0.562899   -1.214529
     33          6           0        2.258510   -2.026753    0.868608
     34          1           0        1.846011   -2.822090    0.231227
     35          8           0        2.134459   -1.475300   -2.029039
     36          6           0        3.786815   -2.174864    0.884733
     37          1           0        4.252204   -1.371275    1.468785
     38          1           0        4.071306   -3.126333    1.344747
     39          1           0        4.209593   -2.154413   -0.125470
     40          6           0        1.673926   -2.152157    2.281659
     41          1           0        2.080853   -1.375478    2.940528
     42          1           0        1.930756   -3.124736    2.713869
     43          1           0        0.583617   -2.054681    2.286911
     44          7           0        2.987453    0.585247   -1.541522
     45          1           0        2.936475    1.350653   -0.878450
     46          6           0        3.244486    0.930262   -2.933330
     47          1           0        3.391138   -0.005862   -3.470368
     48          6           0        4.537959    1.708689   -3.110711
     49          6           0        2.060099    1.739920   -3.529493
     50          1           0        1.133644    1.309687   -3.142233
     51          1           0        2.119392    2.754277   -3.118024
     52          8           0        5.205639    1.665975   -4.118106
     53          6           0        2.025496    1.795715   -5.067439
     54          1           0        3.044976    1.858980   -5.467743
     55          1           0        1.530004    2.728459   -5.359432
     56          6           0        1.260117    0.657576   -5.771647
     57          1           0        0.244119    0.589001   -5.366244
     58          1           0        1.157037    0.938866   -6.826077
     59          6           0        1.902350   -0.740048   -5.765172
     60          1           0        1.654537   -1.276828   -6.685044
     61          1           0        2.992918   -0.684773   -5.697484
     62          7           0        1.421474   -1.626974   -4.644054
     63          1           0        1.839376   -2.557627   -4.732641
     64          1           0        1.681658   -1.308218   -3.678657
     65          1           0        0.369843   -1.754608   -4.655739
     66          8           0        4.800389    2.506509   -2.055027
     67          1           0        5.610785    3.011647   -2.259984
 ---------------------------------------------------------------------

 SCF Done:  E(RB3LYP) =  -1396.77042417     A.U. after    2 cycles

 Alpha  occ. eigenvalues --  -19.29697 -19.24984 -19.23797 -19.23774 -19.21781
 Alpha  occ. eigenvalues --  -14.53494 -14.48938 -14.47607 -14.47502 -14.46338
 Alpha  occ. eigenvalues --  -10.42031 -10.41965 -10.40184 -10.38836 -10.35973
 Alpha  occ. eigenvalues --  -10.35926 -10.34445 -10.33938 -10.33331 -10.30047
 Alpha  occ. eigenvalues --  -10.29002 -10.28939 -10.28698 -10.28607 -10.28448
 Alpha  occ. eigenvalues --  -10.26196 -10.26077 -10.25986 -10.25577  -1.20481
 Alpha  occ. eigenvalues --   -1.16915  -1.15369  -1.13580  -1.11583  -1.08885
 Alpha  occ. eigenvalues --   -1.05277  -1.04179  -1.03217  -1.02640  -0.91539
 Alpha  occ. eigenvalues --   -0.91129  -0.89978  -0.87698  -0.86337  -0.82708
 Alpha  occ. eigenvalues --   -0.82020  -0.79837  -0.77219  -0.76871  -0.75951
 Alpha  occ. eigenvalues --   -0.74747  -0.72143  -0.71529  -0.70556  -0.69684
 Alpha  occ. eigenvalues --   -0.68543  -0.67516  -0.66863  -0.66241  -0.65850
 Alpha  occ. eigenvalues --   -0.65277  -0.64100  -0.62091  -0.61662  -0.60801
 Alpha  occ. eigenvalues --   -0.60333  -0.59646  -0.58070  -0.57609  -0.57074
 Alpha  occ. eigenvalues --   -0.56919  -0.56619  -0.56019  -0.55630  -0.54628
 Alpha  occ. eigenvalues --   -0.54038  -0.53295  -0.53116  -0.52299  -0.51813
 Alpha  occ. eigenvalues --   -0.51792  -0.51267  -0.51079  -0.50598  -0.50028
 Alpha  occ. eigenvalues --   -0.49717  -0.48898  -0.48452  -0.48049  -0.47723
 Alpha  occ. eigenvalues --   -0.47567  -0.47131  -0.46680  -0.46548  -0.45216
 Alpha  occ. eigenvalues --   -0.44711  -0.43867  -0.43273  -0.43251  -0.42842
 Alpha  occ. eigenvalues --   -0.42388  -0.41997  -0.41875  -0.41683  -0.41593
 Alpha  occ. eigenvalues --   -0.40606  -0.39381  -0.38821  -0.38796  -0.38321
 Alpha  occ. eigenvalues --   -0.36285  -0.35425  -0.34445
 Alpha virt. eigenvalues --   -0.11033  -0.09935  -0.08939  -0.07997  -0.06834
 Alpha virt. eigenvalues --   -0.05146  -0.04520  -0.02085  -0.01454  -0.00923
 Alpha virt. eigenvalues --   -0.00317  -0.00081   0.00806   0.01074   0.01544

 Mulliken charges:
               1
     1  N   -0.762398
     2  H    0.342091
     3  H    0.343757
     4  C   -0.246064
     5  H    0.197836
     6  H    0.182006
     7  C    0.617440
     8  O   -0.514383
     9  N   -0.637745
    10  H    0.346984
    11  C   -0.025735
    12  H    0.194927
    13  C    0.627855
    14  C   -0.305699
    15  H    0.146654
    16  H    0.183581
    17  O   -0.530811
    18  C   -0.083244
    19  H    0.107334
    20  C   -0.444341
    21  H    0.158829
    22  H    0.161123
    23  H    0.148971
    24  C   -0.450809
    25  H    0.161254
    26  H    0.139102
    27  H    0.163687
    28  N   -0.595056
    29  H    0.331026
    30  C   -0.031835
    31  H    0.174287
    32  C    0.649174
    33  C   -0.103735
    34  H    0.138254
    35  O   -0.606636
    36  C   -0.463288
    37  H    0.155380
    38  H    0.168230
    39  H    0.158546
    40  C   -0.447412
    41  H    0.158402
    42  H    0.164497
    43  H    0.146467
    44  N   -0.567642
    45  H    0.375962
    46  C   -0.072545
    47  H    0.165639
    48  C    0.602358
    49  C   -0.316048
    50  H    0.213345
    51  H    0.172387
    52  O   -0.447478
    53  C   -0.288260
    54  H    0.177926
    55  H    0.165349
    56  C   -0.291764
    57  H    0.173981
    58  H    0.173327
    59  C   -0.192597
    60  H    0.187518
    61  H    0.206769
    62  N   -0.811882
    63  H    0.378879
    64  H    0.458467
    65  H    0.452702
    66  O   -0.567035
    67  H    0.432141
 Sum of Mulliken charges =   1.00000

 Dipole moment (field-independent basis, Debye):
    X=             -1.0109    Y=             -6.0452    Z=            -14.0857  Tot=             15.3614
 Quadrupole moment (field-independent basis, Debye-Ang):
   XX=           -132.5479   YY=           -148.2058   ZZ=            -94.5051
   XY=              9.6092   XZ=              1.7700   YZ=             23.2834

 Normal termination of Gaussian 16 at Thu Jun  2 03:31:09 2022.
