 Gaussian 16, Revision C.01,
 Gaussian 16:  ES64L-G16RevC.01  3-Jul-2019

 ----------------------------------------------------------------------
 # B3LYP/6-31G* empiricaldispersion=gd3 guess=read geom=check nosymm in
 tegral(ultrafinegrid)
 ----------------------------------------------------------------------

 ------------------------------------------------------
 Candidate Structure: Conf:102 Charge calc in gas phase
 ------------------------------------------------------
 Structure from the checkpoint file:  "conf-102.chk"
 Charge =  1 Multiplicity = 1

                          Input orientation:
 ---------------------------------------------------------------------
 Center     Atomic      Atomic             Coordinates (Angstroms)
 Number     Number       Type             X           Y           Z
 ---------------------------------------------------------------------
      1          7           0       -3.428164    0.894078    4.292653
      2          1           0       -3.748474   -0.060461    4.138958
      3          1           0       -2.452006    0.809334    4.570449
      4          6           0       -3.519584    1.636147    3.053930
      5          1           0       -3.163073    2.662887    3.215656
      6          1           0       -4.575123    1.723735    2.761791
      7          6           0       -2.749528    1.028696    1.871347
      8          8           0       -2.193370   -0.068743    1.946686
      9          7           0       -2.725500    1.766916    0.721510
     10          1           0       -3.165691    2.677408    0.699697
     11          6           0       -2.119623    1.237680   -0.498957
     12          1           0       -2.325840    0.164345   -0.495813
     13          6           0       -0.588032    1.408817   -0.444385
     14          6           0       -2.728530    1.850724   -1.758181
     15          1           0       -3.816604    1.719173   -1.703332
     16          1           0       -2.546052    2.936393   -1.753763
     17          8           0        0.020160    2.349246   -1.003552
     18          6           0       -2.214295    1.231787   -3.077897
     19          1           0       -1.129476    1.393998   -3.136251
     20          6           0       -2.420676   -0.289740   -3.134133
     21          1           0       -3.461439   -0.558073   -2.914148
     22          1           0       -2.181407   -0.669131   -4.132938
     23          1           0       -1.761444   -0.808326   -2.431590
     24          6           0       -2.891373    1.922405   -4.271486
     25          1           0       -3.967537    1.713953   -4.283308
     26          1           0       -2.787003    3.017838   -4.239086
     27          1           0       -2.478123    1.567741   -5.221962
     28          7           0        0.039311    0.467904    0.261783
     29          1           0       -0.557711   -0.192153    0.756311
     30          6           0        1.476761    0.246911    0.230531
     31          1           0        1.988164    1.139085    0.616269
     32          6           0        1.875275    0.050052   -1.254444
     33          6           0        1.828181   -0.967691    1.130300
     34          1           0        1.274815   -1.828426    0.727872
     35          8           0        1.072814   -0.347801   -2.092540
     36          6           0        3.327453   -1.299193    1.091519
     37          1           0        3.926321   -0.446054    1.439669
     38          1           0        3.537154   -2.134374    1.766729
     39          1           0        3.677028   -1.581056    0.094938
     40          6           0        1.379518   -0.715281    2.581056
     41          1           0        1.906001    0.152321    2.998741
     42          1           0        1.623673   -1.583286    3.201728
     43          1           0        0.303748   -0.536479    2.675752
     44          7           0        3.155497    0.394509   -1.561917
     45          1           0        3.791100    0.670962   -0.826726
     46          6           0        3.633867    0.390305   -2.934605
     47          1           0        2.942627   -0.258124   -3.485007
     48          6           0        5.021009   -0.222660   -3.087073
     49          6           0        3.597816    1.799132   -3.575637
     50          1           0        4.431329    2.403527   -3.193552
     51          1           0        3.764222    1.685526   -4.651604
     52          8           0        5.684501   -0.110421   -4.089944
     53          6           0        2.272603    2.502947   -3.271376
     54          1           0        2.202240    2.659488   -2.190159
     55          1           0        1.443774    1.828319   -3.519901
     56          6           0        2.096187    3.848820   -3.985059
     57          1           0        3.036403    4.414288   -3.982669
     58          1           0        1.831859    3.702507   -5.040945
     59          6           0        1.058492    4.740663   -3.304849
     60          1           0        1.389016    5.048701   -2.309492
     61          1           0        0.835740    5.632879   -3.895356
     62          7           0       -0.250262    4.006126   -3.083872
     63          1           0       -1.004170    4.659159   -2.853559
     64          1           0       -0.543166    3.497351   -3.923689
     65          1           0       -0.193923    3.299947   -2.275649
     66          8           0        5.422462   -0.902519   -1.988503
     67          1           0        6.304150   -1.271004   -2.192070
 ---------------------------------------------------------------------

 SCF Done:  E(RB3LYP) =  -1396.74456685     A.U. after    1 cycles

 Alpha  occ. eigenvalues --  -19.29393 -19.25302 -19.23239 -19.22711 -19.21958
 Alpha  occ. eigenvalues --  -14.58158 -14.47488 -14.47191 -14.46694 -14.39579
 Alpha  occ. eigenvalues --  -10.41641 -10.41083 -10.39180 -10.39106 -10.38543
 Alpha  occ. eigenvalues --  -10.34834 -10.34042 -10.34026 -10.32303 -10.31143
 Alpha  occ. eigenvalues --  -10.30869 -10.30449 -10.29877 -10.29754 -10.29532
 Alpha  occ. eigenvalues --  -10.28823 -10.26791 -10.26607 -10.26351  -1.20067
 Alpha  occ. eigenvalues --   -1.16401  -1.14299  -1.13866  -1.12890  -1.11114
 Alpha  occ. eigenvalues --   -1.04496  -1.03420  -1.03277  -0.96771  -0.93201
 Alpha  occ. eigenvalues --   -0.92710  -0.90903  -0.88427  -0.86420  -0.83794
 Alpha  occ. eigenvalues --   -0.81282  -0.78987  -0.78647  -0.77726  -0.77099
 Alpha  occ. eigenvalues --   -0.75303  -0.72995  -0.71825  -0.71226  -0.70414
 Alpha  occ. eigenvalues --   -0.69799  -0.69687  -0.68487  -0.67721  -0.66506
 Alpha  occ. eigenvalues --   -0.63520  -0.63167  -0.62727  -0.61642  -0.60502
 Alpha  occ. eigenvalues --   -0.59860  -0.59410  -0.58587  -0.58259  -0.57685
 Alpha  occ. eigenvalues --   -0.56986  -0.56426  -0.55563  -0.54939  -0.54456
 Alpha  occ. eigenvalues --   -0.53830  -0.53537  -0.53287  -0.52847  -0.52371
 Alpha  occ. eigenvalues --   -0.51815  -0.51357  -0.51017  -0.50533  -0.49932
 Alpha  occ. eigenvalues --   -0.49675  -0.49635  -0.49006  -0.48641  -0.48160
 Alpha  occ. eigenvalues --   -0.47829  -0.47478  -0.47313  -0.47033  -0.45937
 Alpha  occ. eigenvalues --   -0.45442  -0.45168  -0.44647  -0.44087  -0.43792
 Alpha  occ. eigenvalues --   -0.43489  -0.43381  -0.43164  -0.42621  -0.41150
 Alpha  occ. eigenvalues --   -0.40162  -0.38152  -0.37687  -0.36740  -0.36096
 Alpha  occ. eigenvalues --   -0.35702  -0.35057  -0.32236
 Alpha virt. eigenvalues --   -0.11136  -0.10825  -0.08672  -0.08224  -0.08081
 Alpha virt. eigenvalues --   -0.05427  -0.03673  -0.02692  -0.02254  -0.01488
 Alpha virt. eigenvalues --   -0.00814  -0.00454   0.00055   0.00204   0.00626

 Mulliken charges:
               1
     1  N   -0.671762
     2  H    0.318257
     3  H    0.309820
     4  C   -0.249462
     5  H    0.171798
     6  H    0.186276
     7  C    0.589351
     8  O   -0.527045
     9  N   -0.606341
    10  H    0.336952
    11  C   -0.055574
    12  H    0.200559
    13  C    0.683620
    14  C   -0.287383
    15  H    0.169650
    16  H    0.096939
    17  O   -0.612756
    18  C   -0.105471
    19  H    0.128242
    20  C   -0.459158
    21  H    0.154508
    22  H    0.164095
    23  H    0.178858
    24  C   -0.457641
    25  H    0.177595
    26  H    0.099966
    27  H    0.167307
    28  N   -0.604764
    29  H    0.392732
    30  C   -0.020677
    31  H    0.159519
    32  C    0.633303
    33  C   -0.116585
    34  H    0.159343
    35  O   -0.533607
    36  C   -0.481157
    37  H    0.139319
    38  H    0.173663
    39  H    0.180438
    40  C   -0.467644
    41  H    0.148685
    42  H    0.170785
    43  H    0.171445
    44  N   -0.602981
    45  H    0.343663
    46  C   -0.064901
    47  H    0.225378
    48  C    0.591780
    49  C   -0.267676
    50  H    0.152274
    51  H    0.183796
    52  O   -0.442796
    53  C   -0.305588
    54  H    0.166917
    55  H    0.165818
    56  C   -0.292009
    57  H    0.188712
    58  H    0.169004
    59  C   -0.185634
    60  H    0.212378
    61  H    0.205122
    62  N   -0.794589
    63  H    0.400822
    64  H    0.405946
    65  H    0.478105
    66  O   -0.568254
    67  H    0.428717
 Sum of Mulliken charges =   1.00000

 Dipole moment (field-independent basis, Debye):
    X=              0.7330    Y=             14.1287    Z=             -8.6406  Tot=             16.5776
 Quadrupole moment (field-independent basis, Debye-Ang):
   XX=           -134.3371   YY=           -108.5257   ZZ=           -143.9405
   XY=            -10.3273   XZ=             11.1769   YZ=            -44.5445

 Normal termination of Gaussian 16 at Thu Jun  2 03:21:14 2022.
