 Gaussian 16, Revision C.01,
 Gaussian 16:  ES64L-G16RevC.01  3-Jul-2019

 ----------------------------------------------------------------------
 # B3LYP/6-31G* empiricaldispersion=gd3 guess=read geom=check nosymm in
 tegral(ultrafinegrid)
 ----------------------------------------------------------------------

 ------------------------------------------------------
 Candidate Structure: Conf:605 Charge calc in gas phase
 ------------------------------------------------------
 Structure from the checkpoint file:  "conf-605.chk"
 Charge =  1 Multiplicity = 1

                          Input orientation:
 ---------------------------------------------------------------------
 Center     Atomic      Atomic             Coordinates (Angstroms)
 Number     Number       Type             X           Y           Z
 ---------------------------------------------------------------------
      1          7           0       -2.229573    4.031522    2.666247
      2          1           0       -2.360377    5.012478    2.898253
      3          1           0       -1.668533    3.626862    3.413008
      4          6           0       -3.518978    3.344050    2.561934
      5          1           0       -4.233065    4.006893    2.058669
      6          1           0       -3.981931    3.052885    3.515231
      7          6           0       -3.434000    2.070560    1.715047
      8          8           0       -4.317300    1.217846    1.744592
      9          7           0       -2.333795    1.999988    0.916386
     10          1           0       -1.612077    2.703080    1.065962
     11          6           0       -1.989194    0.801727    0.188611
     12          1           0       -2.529877   -0.034489    0.645321
     13          6           0       -0.473871    0.578998    0.310997
     14          6           0       -2.366755    0.893621   -1.312963
     15          1           0       -1.814041    1.747216   -1.732833
     16          1           0       -2.001774   -0.010385   -1.826680
     17          8           0        0.291455    1.508109    0.572950
     18          6           0       -3.872562    1.056621   -1.586500
     19          1           0       -4.225414    1.923564   -1.015565
     20          6           0       -4.114123    1.348229   -3.077697
     21          1           0       -3.837190    0.461328   -3.671736
     22          1           0       -5.169975    1.556730   -3.278672
     23          1           0       -3.528587    2.223442   -3.406876
     24          6           0       -4.685294   -0.170938   -1.152693
     25          1           0       -4.303709   -1.084069   -1.631399
     26          1           0       -4.654125   -0.289315   -0.067846
     27          1           0       -5.737632   -0.059540   -1.437071
     28          7           0       -0.050683   -0.682683    0.051530
     29          1           0       -0.735122   -1.399069   -0.145913
     30          6           0        1.364110   -1.077524    0.070527
     31          1           0        1.830557   -0.510287    0.883639
     32          6           0        2.018485   -0.626267   -1.256500
     33          6           0        1.529312   -2.584244    0.361979
     34          1           0        2.587291   -2.800930    0.169389
     35          8           0        2.190826   -1.369674   -2.220827
     36          6           0        1.228146   -2.875730    1.839529
     37          1           0        0.189462   -2.624895    2.088051
     38          1           0        1.374188   -3.938427    2.059106
     39          1           0        1.880140   -2.300413    2.506376
     40          6           0        0.699514   -3.495015   -0.559905
     41          1           0       -0.377589   -3.423660   -0.347646
     42          1           0        0.972453   -4.540811   -0.385579
     43          1           0        0.877153   -3.259949   -1.610652
     44          7           0        2.339559    0.694492   -1.270520
     45          1           0        2.092609    1.275407   -0.472828
     46          6           0        2.875597    1.349279   -2.442333
     47          1           0        3.429806    0.607037   -3.024841
     48          6           0        3.833843    2.447021   -1.992040
     49          6           0        1.768781    1.969734   -3.330756
     50          1           0        1.211179    2.697372   -2.725076
     51          1           0        2.243537    2.519567   -4.152031
     52          8           0        3.901226    2.888328   -0.869320
     53          6           0        0.808214    0.913561   -3.886848
     54          1           0        0.373650    0.338551   -3.063211
     55          1           0        1.364123    0.196406   -4.502383
     56          6           0       -0.329222    1.549026   -4.700275
     57          1           0       -0.925909    2.197459   -4.043981
     58          1           0        0.079696    2.178954   -5.502592
     59          6           0       -1.216941    0.466657   -5.297658
     60          1           0       -0.701373   -0.124536   -6.058034
     61          1           0       -1.616190   -0.204122   -4.533136
     62          7           0       -2.435824    1.088058   -5.979452
     63          1           0       -3.013374    0.388221   -6.460291
     64          1           0       -3.029987    1.546623   -5.272884
     65          1           0       -2.155064    1.794439   -6.669866
     66          8           0        4.569587    2.899253   -3.030287
     67          1           0        5.142712    3.611710   -2.687333
 ---------------------------------------------------------------------

 SCF Done:  E(RB3LYP) =  -1396.71437244     A.U. after    1 cycles

 Alpha  occ. eigenvalues --  -19.28367 -19.22731 -19.21423 -19.19863 -19.18178
 Alpha  occ. eigenvalues --  -14.64418 -14.45987 -14.43895 -14.42613 -14.39929
 Alpha  occ. eigenvalues --  -10.41816 -10.40764 -10.38330 -10.36956 -10.35385
 Alpha  occ. eigenvalues --  -10.34621 -10.32942 -10.32356 -10.31725 -10.30951
 Alpha  occ. eigenvalues --  -10.30830 -10.29867 -10.29459 -10.29425 -10.29015
 Alpha  occ. eigenvalues --  -10.27452 -10.25694 -10.24949 -10.24686  -1.19251
 Alpha  occ. eigenvalues --   -1.18513  -1.13417  -1.11686  -1.10414  -1.10063
 Alpha  occ. eigenvalues --   -1.02215  -1.01010  -0.99995  -0.95994  -0.95669
 Alpha  occ. eigenvalues --   -0.91490  -0.89539  -0.88361  -0.84820  -0.84270
 Alpha  occ. eigenvalues --   -0.80073  -0.79176  -0.78492  -0.77366  -0.76891
 Alpha  occ. eigenvalues --   -0.75843  -0.75578  -0.74091  -0.71356  -0.70594
 Alpha  occ. eigenvalues --   -0.68334  -0.66843  -0.66724  -0.66294  -0.65549
 Alpha  occ. eigenvalues --   -0.65246  -0.63063  -0.61776  -0.59765  -0.58728
 Alpha  occ. eigenvalues --   -0.58036  -0.57796  -0.57529  -0.56666  -0.56478
 Alpha  occ. eigenvalues --   -0.56253  -0.55857  -0.55054  -0.54229  -0.53836
 Alpha  occ. eigenvalues --   -0.53682  -0.52855  -0.52292  -0.51811  -0.51678
 Alpha  occ. eigenvalues --   -0.50725  -0.50528  -0.50103  -0.49900  -0.49015
 Alpha  occ. eigenvalues --   -0.48958  -0.48173  -0.48063  -0.47878  -0.47642
 Alpha  occ. eigenvalues --   -0.46849  -0.46375  -0.46106  -0.45532  -0.45457
 Alpha  occ. eigenvalues --   -0.44842  -0.44310  -0.43471  -0.43107  -0.42709
 Alpha  occ. eigenvalues --   -0.41841  -0.41630  -0.41130  -0.41050  -0.40444
 Alpha  occ. eigenvalues --   -0.36905  -0.36232  -0.35574  -0.33818  -0.33476
 Alpha  occ. eigenvalues --   -0.32826  -0.32196  -0.31120
 Alpha virt. eigenvalues --   -0.14703  -0.08592  -0.08161  -0.07864  -0.07518
 Alpha virt. eigenvalues --   -0.07073  -0.06187  -0.04868  -0.04211  -0.03137
 Alpha virt. eigenvalues --   -0.02515  -0.01814  -0.00545  -0.00260   0.00837

 Mulliken charges:
               1
     1  N   -0.743267
     2  H    0.323234
     3  H    0.321765
     4  C   -0.233806
     5  H    0.180146
     6  H    0.175882
     7  C    0.583032
     8  O   -0.524260
     9  N   -0.597076
    10  H    0.374932
    11  C   -0.058544
    12  H    0.183369
    13  C    0.624725
    14  C   -0.266052
    15  H    0.134436
    16  H    0.113990
    17  O   -0.537258
    18  C   -0.064345
    19  H    0.171809
    20  C   -0.485644
    21  H    0.101917
    22  H    0.187446
    23  H    0.126854
    24  C   -0.470138
    25  H    0.119574
    26  H    0.216168
    27  H    0.154964
    28  N   -0.619414
    29  H    0.342240
    30  C   -0.052625
    31  H    0.183620
    32  C    0.618880
    33  C   -0.099842
    34  H    0.163031
    35  O   -0.538999
    36  C   -0.450978
    37  H    0.142130
    38  H    0.163659
    39  H    0.157172
    40  C   -0.477462
    41  H    0.120338
    42  H    0.167332
    43  H    0.184832
    44  N   -0.606650
    45  H    0.382688
    46  C   -0.047194
    47  H    0.204734
    48  C    0.584824
    49  C   -0.276867
    50  H    0.157940
    51  H    0.169151
    52  O   -0.442520
    53  C   -0.274787
    54  H    0.174870
    55  H    0.175634
    56  C   -0.297959
    57  H    0.170925
    58  H    0.167752
    59  C   -0.206825
    60  H    0.229148
    61  H    0.229975
    62  N   -0.743994
    63  H    0.427297
    64  H    0.423411
    65  H    0.422349
    66  O   -0.567717
    67  H    0.426049
 Sum of Mulliken charges =   1.00000

 Dipole moment (field-independent basis, Debye):
    X=             -8.3629    Y=              6.8202    Z=            -22.6193  Tot=             25.0616
 Quadrupole moment (field-independent basis, Debye-Ang):
   XX=           -145.7500   YY=           -144.9710   ZZ=            -19.5870
   XY=            -11.1415   XZ=             51.3527   YZ=            -26.6508

 Normal termination of Gaussian 16 at Thu Jun  2 03:30:45 2022.
