 Gaussian 16, Revision C.01,
 Gaussian 16:  ES64L-G16RevC.01  3-Jul-2019

 ----------------------------------------------------------------------
 # B3LYP/6-31G* empiricaldispersion=gd3 guess=read geom=check nosymm in
 tegral(ultrafinegrid)
 ----------------------------------------------------------------------

 ------------------------------------------------------
 Candidate Structure: Conf:302 Charge calc in gas phase
 ------------------------------------------------------
 Structure from the checkpoint file:  "conf-302.chk"
 Charge =  1 Multiplicity = 1

                          Input orientation:
 ---------------------------------------------------------------------
 Center     Atomic      Atomic             Coordinates (Angstroms)
 Number     Number       Type             X           Y           Z
 ---------------------------------------------------------------------
      1          7           0       -4.134915   -1.758624    0.590231
      2          1           0       -5.040956   -1.494303    0.212451
      3          1           0       -4.284578   -2.543352    1.216847
      4          6           0       -3.190155   -2.089528   -0.473551
      5          1           0       -3.643840   -2.466083   -1.401484
      6          1           0       -2.501414   -2.869436   -0.127653
      7          6           0       -2.326359   -0.890622   -0.859192
      8          8           0       -1.580991   -0.921760   -1.866459
      9          7           0       -2.390450    0.156992   -0.041322
     10          1           0       -3.025359    0.034363    0.748031
     11          6           0       -1.741311    1.448150   -0.280092
     12          1           0       -1.622709    1.530785   -1.366555
     13          6           0       -0.311375    1.508495    0.317074
     14          6           0       -2.613612    2.589752    0.246896
     15          1           0       -2.661011    2.518650    1.341244
     16          1           0       -2.085096    3.525830    0.037762
     17          8           0        0.078164    2.465802    0.969169
     18          6           0       -4.036282    2.645956   -0.341599
     19          1           0       -4.569361    1.727058   -0.052973
     20          6           0       -4.795120    3.835218    0.264360
     21          1           0       -4.317063    4.783102   -0.012357
     22          1           0       -5.829889    3.865595   -0.093866
     23          1           0       -4.817742    3.780043    1.358729
     24          6           0       -4.033054    2.724893   -1.875599
     25          1           0       -3.452306    3.590617   -2.219438
     26          1           0       -3.606876    1.825720   -2.337861
     27          1           0       -5.052556    2.836894   -2.260184
     28          7           0        0.476435    0.438302    0.004869
     29          1           0        0.104726   -0.313178   -0.562532
     30          6           0        1.864355    0.323459    0.443857
     31          1           0        2.160408    1.318873    0.789021
     32          6           0        2.640248   -0.098300   -0.807649
     33          6           0        2.062344   -0.694341    1.589360
     34          1           0        1.775990   -1.677717    1.191738
     35          8           0        2.384597   -1.186037   -1.345915
     36          6           0        3.541829   -0.745312    1.997846
     37          1           0        3.879712    0.231743    2.366270
     38          1           0        3.692939   -1.471974    2.802231
     39          1           0        4.189539   -1.037865    1.163236
     40          6           0        1.163208   -0.352603    2.783196
     41          1           0        1.390494    0.645246    3.175427
     42          1           0        1.312115   -1.077693    3.590239
     43          1           0        0.104315   -0.368835    2.505799
     44          7           0        3.518480    0.807494   -1.302511
     45          1           0        3.687508    1.650277   -0.768828
     46          6           0        4.320746    0.617608   -2.512991
     47          1           0        4.570829   -0.447897   -2.571982
     48          6           0        5.646720    1.369983   -2.456924
     49          6           0        3.571552    1.003962   -3.824672
     50          1           0        3.389563    2.085392   -3.851507
     51          1           0        4.228234    0.755503   -4.664390
     52          8           0        6.469866    1.299257   -3.335653
     53          6           0        2.265240    0.217782   -3.847489
     54          1           0        1.665406    0.584876   -3.005759
     55          1           0        2.544095   -0.809862   -3.603117
     56          6           0        1.341217    0.171388   -5.063276
     57          1           0        1.144716    1.166407   -5.479367
     58          1           0        1.767184   -0.435187   -5.871389
     59          6           0       -0.011185   -0.394391   -4.596646
     60          1           0       -0.541288    0.327744   -3.971773
     61          1           0       -0.665235   -0.690599   -5.419579
     62          7           0        0.137116   -1.615167   -3.695912
     63          1           0       -0.735703   -1.729112   -3.130622
     64          1           0        0.361084   -2.464996   -4.219698
     65          1           0        0.876127   -1.476865   -2.984637
     66          8           0        5.777978    2.137657   -1.351638
     67          1           0        6.640063    2.592801   -1.413227
 ---------------------------------------------------------------------

 SCF Done:  E(RB3LYP) =  -1396.74640622     A.U. after    3 cycles

 Alpha  occ. eigenvalues --  -19.30305 -19.25302 -19.23956 -19.23191 -19.20981
 Alpha  occ. eigenvalues --  -14.57459 -14.48065 -14.47961 -14.45585 -14.44271
 Alpha  occ. eigenvalues --  -10.42548 -10.41381 -10.40175 -10.38300 -10.38006
 Alpha  occ. eigenvalues --  -10.35242 -10.34244 -10.33654 -10.32730 -10.32227
 Alpha  occ. eigenvalues --  -10.30410 -10.30382 -10.28050 -10.27599 -10.27296
 Alpha  occ. eigenvalues --  -10.25865 -10.25773 -10.25252 -10.24767  -1.20946
 Alpha  occ. eigenvalues --   -1.16325  -1.14857  -1.12924  -1.12216  -1.11997
 Alpha  occ. eigenvalues --   -1.05036  -1.04154  -1.02031  -1.00305  -0.93391
 Alpha  occ. eigenvalues --   -0.90460  -0.89769  -0.88582  -0.85395  -0.83902
 Alpha  occ. eigenvalues --   -0.81228  -0.80078  -0.77610  -0.76583  -0.76389
 Alpha  occ. eigenvalues --   -0.73950  -0.73238  -0.71778  -0.71355  -0.70096
 Alpha  occ. eigenvalues --   -0.69788  -0.68587  -0.68500  -0.66381  -0.65441
 Alpha  occ. eigenvalues --   -0.64290  -0.63007  -0.62370  -0.61456  -0.60699
 Alpha  occ. eigenvalues --   -0.60073  -0.59397  -0.58486  -0.58356  -0.57422
 Alpha  occ. eigenvalues --   -0.56903  -0.56125  -0.55578  -0.55400  -0.54845
 Alpha  occ. eigenvalues --   -0.54172  -0.53685  -0.53299  -0.52986  -0.52324
 Alpha  occ. eigenvalues --   -0.51674  -0.51507  -0.50931  -0.50341  -0.49606
 Alpha  occ. eigenvalues --   -0.49253  -0.48813  -0.48185  -0.48014  -0.47440
 Alpha  occ. eigenvalues --   -0.47122  -0.46828  -0.46376  -0.46141  -0.45898
 Alpha  occ. eigenvalues --   -0.45765  -0.45189  -0.44667  -0.43084  -0.42217
 Alpha  occ. eigenvalues --   -0.41921  -0.41662  -0.41122  -0.41050  -0.40977
 Alpha  occ. eigenvalues --   -0.40233  -0.39294  -0.38580  -0.37460  -0.36464
 Alpha  occ. eigenvalues --   -0.36371  -0.34300  -0.33966
 Alpha virt. eigenvalues --   -0.10663  -0.10308  -0.09260  -0.08307  -0.06678
 Alpha virt. eigenvalues --   -0.03898  -0.03740  -0.02917  -0.02389  -0.00568
 Alpha virt. eigenvalues --    0.00034   0.00148   0.00367   0.01025   0.01546

 Mulliken charges:
               1
     1  N   -0.747191
     2  H    0.334393
     3  H    0.339745
     4  C   -0.236552
     5  H    0.177740
     6  H    0.193723
     7  C    0.617476
     8  O   -0.618277
     9  N   -0.563681
    10  H    0.383445
    11  C   -0.083625
    12  H    0.179584
    13  C    0.627951
    14  C   -0.278871
    15  H    0.158269
    16  H    0.174694
    17  O   -0.503396
    18  C   -0.075216
    19  H    0.112978
    20  C   -0.444600
    21  H    0.153612
    22  H    0.154104
    23  H    0.152732
    24  C   -0.455072
    25  H    0.150544
    26  H    0.127664
    27  H    0.160387
    28  N   -0.640925
    29  H    0.344570
    30  C   -0.031005
    31  H    0.177223
    32  C    0.631559
    33  C   -0.075097
    34  H    0.138584
    35  O   -0.576079
    36  C   -0.465113
    37  H    0.152329
    38  H    0.168496
    39  H    0.151948
    40  C   -0.450231
    41  H    0.166871
    42  H    0.158485
    43  H    0.138401
    44  N   -0.610166
    45  H    0.368410
    46  C   -0.063950
    47  H    0.212996
    48  C    0.599357
    49  C   -0.267453
    50  H    0.161621
    51  H    0.190413
    52  O   -0.436959
    53  C   -0.308810
    54  H    0.152044
    55  H    0.159954
    56  C   -0.273981
    57  H    0.187214
    58  H    0.172393
    59  C   -0.196538
    60  H    0.221085
    61  H    0.204593
    62  N   -0.771333
    63  H    0.425758
    64  H    0.397718
    65  H    0.435587
    66  O   -0.577897
    67  H    0.435369
 Sum of Mulliken charges =   1.00000

 Dipole moment (field-independent basis, Debye):
    X=             -2.2428    Y=             -3.8726    Z=            -11.0105  Tot=             11.8852
 Quadrupole moment (field-independent basis, Debye-Ang):
   XX=           -121.2574   YY=           -152.5370   ZZ=           -122.7850
   XY=             19.2926   XZ=             -0.0516   YZ=              6.4044

 Normal termination of Gaussian 16 at Thu Jun  2 03:21:36 2022.
