 Gaussian 16, Revision C.01,
 Gaussian 16:  ES64L-G16RevC.01  3-Jul-2019

 ----------------------------------------------------------------------
 # B3LYP/6-31G* empiricaldispersion=gd3 guess=read geom=check nosymm in
 tegral(ultrafinegrid)
 ----------------------------------------------------------------------

 ------------------------------------------------------
 Candidate Structure: Conf:962 Charge calc in gas phase
 ------------------------------------------------------
 Structure from the checkpoint file:  "conf-962.chk"
 Charge =  1 Multiplicity = 1

                          Input orientation:
 ---------------------------------------------------------------------
 Center     Atomic      Atomic             Coordinates (Angstroms)
 Number     Number       Type             X           Y           Z
 ---------------------------------------------------------------------
      1          7           0       -5.733049    2.690765    3.046877
      2          1           0       -6.309406    2.750175    2.208709
      3          1           0       -5.831198    1.726592    3.361814
      4          6           0       -4.348277    2.927731    2.689620
      5          1           0       -3.726723    2.871777    3.594161
      6          1           0       -4.238088    3.952618    2.310539
      7          6           0       -3.770430    1.949138    1.653619
      8          8           0       -4.403766    0.980936    1.241183
      9          7           0       -2.504848    2.232173    1.219621
     10          1           0       -1.967846    2.984691    1.636755
     11          6           0       -1.761156    1.315307    0.383625
     12          1           0       -2.164508    0.310345    0.544479
     13          6           0       -0.281538    1.375124    0.766092
     14          6           0       -1.843835    1.683846   -1.120907
     15          1           0       -1.503139    2.722357   -1.218949
     16          1           0       -1.105125    1.063894   -1.657072
     17          8           0        0.233603    2.399258    1.195993
     18          6           0       -3.224448    1.516188   -1.777949
     19          1           0       -3.950714    2.072267   -1.173837
     20          6           0       -3.215361    2.133147   -3.184329
     21          1           0       -2.509819    1.615169   -3.858935
     22          1           0       -4.200957    2.062749   -3.655680
     23          1           0       -2.919483    3.187747   -3.166017
     24          6           0       -3.680349    0.051363   -1.808725
     25          1           0       -2.934181   -0.594324   -2.303005
     26          1           0       -3.851472   -0.327028   -0.798444
     27          1           0       -4.618844   -0.054255   -2.362975
     28          7           0        0.420487    0.229248    0.498707
     29          1           0       -0.068148   -0.529088    0.041208
     30          6           0        1.858934    0.251775    0.306363
     31          1           0        2.190148    1.235657    0.652618
     32          6           0        2.139830    0.113823   -1.197986
     33          6           0        2.604831   -0.839186    1.125214
     34          1           0        3.667484   -0.751185    0.854467
     35          8           0        1.386188   -0.578235   -1.912089
     36          6           0        2.458746   -0.547745    2.624392
     37          1           0        1.407005   -0.596375    2.925812
     38          1           0        3.014449   -1.285925    3.211390
     39          1           0        2.837218    0.447742    2.881221
     40          6           0        2.134399   -2.259665    0.782039
     41          1           0        1.086666   -2.403863    1.072385
     42          1           0        2.726701   -2.994438    1.335972
     43          1           0        2.227603   -2.483977   -0.285563
     44          7           0        3.225666    0.770516   -1.638961
     45          1           0        3.756203    1.283510   -0.943967
     46          6           0        3.851258    0.739925   -2.972911
     47          1           0        4.577049   -0.087366   -2.989744
     48          6           0        4.685406    2.017255   -3.161787
     49          6           0        2.885796    0.548285   -4.150820
     50          1           0        3.489114    0.618691   -5.061395
     51          1           0        2.503519   -0.471822   -4.089238
     52          8           0        4.842935    2.574183   -4.219190
     53          6           0        1.747958    1.575946   -4.211516
     54          1           0        2.170154    2.567583   -4.400874
     55          1           0        1.245591    1.641612   -3.239021
     56          6           0        0.707834    1.283822   -5.308320
     57          1           0       -0.095236    2.029796   -5.254411
     58          1           0        1.163322    1.394364   -6.299667
     59          6           0        0.094957   -0.117670   -5.273790
     60          1           0       -0.733216   -0.207581   -5.980638
     61          1           0        0.825991   -0.896640   -5.498781
     62          7           0       -0.453885   -0.446764   -3.900863
     63          1           0       -0.917877   -1.360697   -3.888444
     64          1           0        0.302936   -0.465395   -3.163533
     65          1           0       -1.153379    0.245790   -3.606040
     66          8           0        5.258382    2.409340   -2.002503
     67          1           0        5.795551    3.205017   -2.183716
 ---------------------------------------------------------------------

 SCF Done:  E(RB3LYP) =  -1396.73144495     A.U. after    2 cycles

 Alpha  occ. eigenvalues --  -19.32478 -19.26837 -19.26599 -19.22593 -19.19601
 Alpha  occ. eigenvalues --  -14.59381 -14.50812 -14.47055 -14.44261 -14.37630
 Alpha  occ. eigenvalues --  -10.44878 -10.43340 -10.39553 -10.39529 -10.37844
 Alpha  occ. eigenvalues --  -10.36288 -10.34783 -10.33507 -10.33353 -10.31937
 Alpha  occ. eigenvalues --  -10.31846 -10.30289 -10.29978 -10.29365 -10.28808
 Alpha  occ. eigenvalues --  -10.28795 -10.27334 -10.27278 -10.26436  -1.23278
 Alpha  occ. eigenvalues --   -1.18083  -1.14591  -1.14463  -1.14244  -1.11363
 Alpha  occ. eigenvalues --   -1.07096  -1.03880  -1.00997  -0.94954  -0.94697
 Alpha  occ. eigenvalues --   -0.92309  -0.91486  -0.90229  -0.85865  -0.85465
 Alpha  occ. eigenvalues --   -0.81729  -0.80087  -0.78856  -0.78011  -0.77555
 Alpha  occ. eigenvalues --   -0.74888  -0.74734  -0.73398  -0.72531  -0.71877
 Alpha  occ. eigenvalues --   -0.70133  -0.69610  -0.67889  -0.67137  -0.66976
 Alpha  occ. eigenvalues --   -0.66897  -0.64129  -0.62878  -0.62169  -0.61447
 Alpha  occ. eigenvalues --   -0.60176  -0.59671  -0.58819  -0.58534  -0.57698
 Alpha  occ. eigenvalues --   -0.57148  -0.56729  -0.56299  -0.55565  -0.55273
 Alpha  occ. eigenvalues --   -0.55163  -0.54428  -0.53922  -0.53601  -0.53155
 Alpha  occ. eigenvalues --   -0.52658  -0.52425  -0.51603  -0.50873  -0.50687
 Alpha  occ. eigenvalues --   -0.50454  -0.49815  -0.49111  -0.48575  -0.48174
 Alpha  occ. eigenvalues --   -0.48002  -0.47778  -0.47374  -0.47274  -0.47034
 Alpha  occ. eigenvalues --   -0.46892  -0.46034  -0.44768  -0.44455  -0.43636
 Alpha  occ. eigenvalues --   -0.43532  -0.43431  -0.43371  -0.43120  -0.42108
 Alpha  occ. eigenvalues --   -0.41456  -0.40339  -0.39004  -0.36926  -0.36270
 Alpha  occ. eigenvalues --   -0.33848  -0.33591  -0.30271
 Alpha virt. eigenvalues --   -0.12890  -0.11669  -0.11237  -0.08622  -0.06301
 Alpha virt. eigenvalues --   -0.05578  -0.05107  -0.04652  -0.03195  -0.02390
 Alpha virt. eigenvalues --   -0.02070  -0.00842  -0.00724   0.00353   0.00773

 Mulliken charges:
               1
     1  N   -0.674161
     2  H    0.306350
     3  H    0.312665
     4  C   -0.250728
     5  H    0.179295
     6  H    0.171051
     7  C    0.573231
     8  O   -0.521572
     9  N   -0.602044
    10  H    0.351275
    11  C   -0.045586
    12  H    0.176772
    13  C    0.603386
    14  C   -0.260766
    15  H    0.162817
    16  H    0.070206
    17  O   -0.511401
    18  C   -0.072386
    19  H    0.177225
    20  C   -0.461844
    21  H    0.087372
    22  H    0.179302
    23  H    0.170055
    24  C   -0.457165
    25  H    0.060170
    26  H    0.210084
    27  H    0.168896
    28  N   -0.589630
    29  H    0.337551
    30  C   -0.092693
    31  H    0.193645
    32  C    0.671746
    33  C   -0.081254
    34  H    0.135935
    35  O   -0.611746
    36  C   -0.448566
    37  H    0.166469
    38  H    0.167479
    39  H    0.159332
    40  C   -0.468339
    41  H    0.151813
    42  H    0.174591
    43  H    0.151606
    44  N   -0.620538
    45  H    0.380907
    46  C   -0.037135
    47  H    0.214950
    48  C    0.601092
    49  C   -0.281080
    50  H    0.191944
    51  H    0.150199
    52  O   -0.431355
    53  C   -0.303900
    54  H    0.196374
    55  H    0.143507
    56  C   -0.296598
    57  H    0.178540
    58  H    0.198495
    59  C   -0.196313
    60  H    0.215135
    61  H    0.214771
    62  N   -0.813824
    63  H    0.410420
    64  H    0.475173
    65  H    0.426006
    66  O   -0.579286
    67  H    0.442076
 Sum of Mulliken charges =   1.00000

 Dipole moment (field-independent basis, Debye):
    X=              5.3773    Y=              0.7782    Z=            -15.0467  Tot=             15.9977
 Quadrupole moment (field-independent basis, Debye-Ang):
   XX=           -139.9039   YY=           -163.4590   ZZ=           -110.8565
   XY=              6.6250   XZ=              6.7703   YZ=             -2.8087

 Normal termination of Gaussian 16 at Thu Jun  2 03:30:49 2022.
