 Gaussian 16, Revision C.01,
 Gaussian 16:  ES64L-G16RevC.01  3-Jul-2019

 ----------------------------------------------------------------------
 # B3LYP/6-31G* empiricaldispersion=gd3 guess=read geom=check nosymm in
 tegral(ultrafinegrid)
 ----------------------------------------------------------------------

 ------------------------------------------------------
 Candidate Structure: Conf:731 Charge calc in gas phase
 ------------------------------------------------------
 Structure from the checkpoint file:  "conf-731.chk"
 Charge =  1 Multiplicity = 1

                          Input orientation:
 ---------------------------------------------------------------------
 Center     Atomic      Atomic             Coordinates (Angstroms)
 Number     Number       Type             X           Y           Z
 ---------------------------------------------------------------------
      1          7           0       -3.177490   -0.988286    4.156267
      2          1           0       -3.349713   -1.844709    3.632531
      3          1           0       -2.190981   -1.014280    4.407793
      4          6           0       -3.440987    0.153122    3.306922
      5          1           0       -3.206301    1.077513    3.851651
      6          1           0       -4.516353    0.195867    3.083720
      7          6           0       -2.695236    0.150477    1.964641
      8          8           0       -2.135809   -0.860085    1.531460
      9          7           0       -2.703449    1.320621    1.262567
     10          1           0       -3.119729    2.143075    1.679281
     11          6           0       -2.184067    1.417971   -0.102022
     12          1           0       -2.374575    0.450001   -0.576350
     13          6           0       -0.648680    1.603912   -0.086071
     14          6           0       -2.892350    2.520666   -0.888421
     15          1           0       -2.628843    3.492682   -0.444724
     16          1           0       -2.479888    2.501218   -1.907746
     17          8           0       -0.076288    2.658560   -0.449544
     18          6           0       -4.425352    2.399184   -0.982620
     19          1           0       -4.839381    2.473948    0.032731
     20          6           0       -4.977336    3.574574   -1.802226
     21          1           0       -4.612913    3.533162   -2.837951
     22          1           0       -6.070872    3.549154   -1.840941
     23          1           0       -4.684488    4.541505   -1.372405
     24          6           0       -4.866328    1.055224   -1.578117
     25          1           0       -4.424098    0.901493   -2.570993
     26          1           0       -4.579634    0.209030   -0.944731
     27          1           0       -5.954728    1.024385   -1.691699
     28          7           0        0.024773    0.552477    0.370814
     29          1           0       -0.528947   -0.260254    0.646415
     30          6           0        1.480273    0.475501    0.394419
     31          1           0        1.862551    1.250660    1.072398
     32          6           0        1.995446    0.746139   -1.035361
     33          6           0        1.918928   -0.916161    0.916110
     34          1           0        1.482996   -1.658842    0.233198
     35          8           0        1.394851    0.344586   -2.025921
     36          6           0        3.446863   -1.066897    0.882688
     37          1           0        3.933250   -0.299437    1.499101
     38          1           0        3.733489   -2.042190    1.287517
     39          1           0        3.850669   -0.995834   -0.131120
     40          6           0        1.389296   -1.166722    2.338857
     41          1           0        1.779515   -0.412179    3.033687
     42          1           0        1.722276   -2.147958    2.692010
     43          1           0        0.296162   -1.154591    2.397346
     44          7           0        3.150958    1.451211   -1.097963
     45          1           0        3.630340    1.759638   -0.260534
     46          6           0        3.771655    1.805977   -2.360447
     47          1           0        3.924554    0.904385   -2.965367
     48          6           0        5.133940    2.406715   -2.040430
     49          6           0        2.905748    2.789627   -3.185292
     50          1           0        3.449293    3.038983   -4.103419
     51          1           0        2.006201    2.235814   -3.468276
     52          8           0        5.515802    2.685128   -0.923703
     53          6           0        2.545146    4.065676   -2.413899
     54          1           0        3.460146    4.604398   -2.138457
     55          1           0        2.053688    3.793120   -1.471764
     56          6           0        1.660054    5.021055   -3.230569
     57          1           0        1.648917    6.020581   -2.771893
     58          1           0        2.090643    5.160420   -4.229846
     59          6           0        0.216527    4.562913   -3.434174
     60          1           0       -0.300873    5.205684   -4.150743
     61          1           0        0.150045    3.528366   -3.778734
     62          7           0       -0.572049    4.625750   -2.140725
     63          1           0       -1.579039    4.603273   -2.323010
     64          1           0       -0.374991    3.804867   -1.469250
     65          1           0       -0.374296    5.496463   -1.637192
     66          8           0        5.849022    2.620982   -3.157618
     67          1           0        6.703908    3.009711   -2.889493
 ---------------------------------------------------------------------

 SCF Done:  E(RB3LYP) =  -1396.74943071     A.U. after    1 cycles

 Alpha  occ. eigenvalues --  -19.29889 -19.25528 -19.24509 -19.23065 -19.20806
 Alpha  occ. eigenvalues --  -14.57970 -14.47899 -14.47112 -14.45625 -14.39773
 Alpha  occ. eigenvalues --  -10.42429 -10.41270 -10.39481 -10.38441 -10.38169
 Alpha  occ. eigenvalues --  -10.35419 -10.34056 -10.33353 -10.32509 -10.31489
 Alpha  occ. eigenvalues --  -10.31395 -10.30218 -10.30015 -10.29326 -10.29130
 Alpha  occ. eigenvalues --  -10.28033 -10.27150 -10.26106 -10.26083  -1.20961
 Alpha  occ. eigenvalues --   -1.16524  -1.14681  -1.13055  -1.12701  -1.12052
 Alpha  occ. eigenvalues --   -1.04619  -1.03600  -1.02469  -0.96979  -0.93236
 Alpha  occ. eigenvalues --   -0.92681  -0.90618  -0.88315  -0.86644  -0.83557
 Alpha  occ. eigenvalues --   -0.81020  -0.79239  -0.78545  -0.77629  -0.77183
 Alpha  occ. eigenvalues --   -0.75513  -0.72799  -0.72696  -0.71368  -0.70724
 Alpha  occ. eigenvalues --   -0.70040  -0.68706  -0.67451  -0.67232  -0.66883
 Alpha  occ. eigenvalues --   -0.63362  -0.62708  -0.62441  -0.61504  -0.60128
 Alpha  occ. eigenvalues --   -0.59994  -0.59396  -0.58734  -0.58293  -0.58188
 Alpha  occ. eigenvalues --   -0.57143  -0.56981  -0.55605  -0.55287  -0.54323
 Alpha  occ. eigenvalues --   -0.53675  -0.53441  -0.52977  -0.52670  -0.52383
 Alpha  occ. eigenvalues --   -0.52062  -0.51288  -0.51053  -0.50539  -0.50076
 Alpha  occ. eigenvalues --   -0.49903  -0.49572  -0.49435  -0.48706  -0.48591
 Alpha  occ. eigenvalues --   -0.47832  -0.47367  -0.47289  -0.46619  -0.45757
 Alpha  occ. eigenvalues --   -0.45448  -0.45279  -0.44688  -0.43901  -0.43596
 Alpha  occ. eigenvalues --   -0.43518  -0.42891  -0.42766  -0.42080  -0.42053
 Alpha  occ. eigenvalues --   -0.40445  -0.38317  -0.37851  -0.37101  -0.36433
 Alpha  occ. eigenvalues --   -0.35122  -0.34442  -0.32390
 Alpha virt. eigenvalues --   -0.11182  -0.10470  -0.09464  -0.08479  -0.07024
 Alpha virt. eigenvalues --   -0.05525  -0.03856  -0.02811  -0.02230  -0.02202
 Alpha virt. eigenvalues --   -0.01294  -0.00961  -0.00389   0.00099   0.01282

 Mulliken charges:
               1
     1  N   -0.673502
     2  H    0.321159
     3  H    0.309930
     4  C   -0.248111
     5  H    0.168649
     6  H    0.191098
     7  C    0.592169
     8  O   -0.528923
     9  N   -0.596363
    10  H    0.341010
    11  C   -0.068331
    12  H    0.210689
    13  C    0.678550
    14  C   -0.309573
    15  H    0.122210
    16  H    0.132016
    17  O   -0.614270
    18  C   -0.070085
    19  H    0.134409
    20  C   -0.453765
    21  H    0.138677
    22  H    0.178749
    23  H    0.133617
    24  C   -0.458946
    25  H    0.150618
    26  H    0.163070
    27  H    0.170710
    28  N   -0.616718
    29  H    0.402626
    30  C   -0.012316
    31  H    0.156036
    32  C    0.635927
    33  C   -0.118645
    34  H    0.164133
    35  O   -0.540844
    36  C   -0.465316
    37  H    0.147786
    38  H    0.171970
    39  H    0.163637
    40  C   -0.470226
    41  H    0.148664
    42  H    0.170959
    43  H    0.161486
    44  N   -0.625237
    45  H    0.358159
    46  C   -0.017683
    47  H    0.205597
    48  C    0.581682
    49  C   -0.294751
    50  H    0.172650
    51  H    0.182621
    52  O   -0.462138
    53  C   -0.295888
    54  H    0.168933
    55  H    0.165160
    56  C   -0.293682
    57  H    0.157379
    58  H    0.189993
    59  C   -0.188993
    60  H    0.204014
    61  H    0.219930
    62  N   -0.781950
    63  H    0.399326
    64  H    0.474966
    65  H    0.394404
    66  O   -0.559766
    67  H    0.430656
 Sum of Mulliken charges =   1.00000

 Dipole moment (field-independent basis, Debye):
    X=             -1.2706    Y=             17.8348    Z=             -6.7084  Tot=             19.0971
 Quadrupole moment (field-independent basis, Debye-Ang):
   XX=           -121.8869   YY=            -90.5414   ZZ=           -147.6960
   XY=             -9.3252   XZ=             -7.4258   YZ=            -42.7363

 Normal termination of Gaussian 16 at Thu Jun  2 03:30:36 2022.
