 Gaussian 16, Revision C.01,
 Gaussian 16:  ES64L-G16RevC.01  3-Jul-2019

 ----------------------------------------------------------------------
 # B3LYP/6-31G* empiricaldispersion=gd3 guess=read geom=check nosymm in
 tegral(ultrafinegrid)
 ----------------------------------------------------------------------

 ------------------------------------------------------
 Candidate Structure: Conf:584 Charge calc in gas phase
 ------------------------------------------------------
 Structure from the checkpoint file:  "conf-584.chk"
 Charge =  1 Multiplicity = 1

                          Input orientation:
 ---------------------------------------------------------------------
 Center     Atomic      Atomic             Coordinates (Angstroms)
 Number     Number       Type             X           Y           Z
 ---------------------------------------------------------------------
      1          7           0       -2.381050    5.089985    2.055668
      2          1           0       -2.596078    6.085289    2.124144
      3          1           0       -2.115694    4.819869    3.004711
      4          6           0       -3.622936    4.372370    1.670114
      5          1           0       -4.097845    4.925206    0.854182
      6          1           0       -4.357674    4.320646    2.482871
      7          6           0       -3.432151    2.949877    1.126629
      8          8           0       -4.398395    2.327754    0.714745
      9          7           0       -2.145058    2.498303    1.067994
     10          1           0       -1.455882    2.928371    1.664342
     11          6           0       -1.751176    1.233947    0.456626
     12          1           0       -2.258858    0.399513    0.955171
     13          6           0       -0.235911    1.113875    0.637753
     14          6           0       -2.117465    1.237119   -1.058844
     15          1           0       -3.135620    1.630413   -1.114975
     16          1           0       -1.451391    1.943483   -1.567570
     17          8           0        0.464248    2.075192    1.017975
     18          6           0       -2.087291   -0.105242   -1.814270
     19          1           0       -1.045841   -0.433060   -1.906611
     20          6           0       -2.920549   -1.195695   -1.122729
     21          1           0       -3.945118   -0.847996   -0.944307
     22          1           0       -2.973192   -2.094977   -1.745708
     23          1           0       -2.509110   -1.502690   -0.151522
     24          6           0       -2.590059    0.131705   -3.247032
     25          1           0       -3.635506    0.464311   -3.247157
     26          1           0       -1.987660    0.893881   -3.754285
     27          1           0       -2.531314   -0.789643   -3.836364
     28          7           0        0.334237   -0.060906    0.322540
     29          1           0       -0.264062   -0.767001   -0.084782
     30          6           0        1.748293   -0.108328   -0.049975
     31          1           0        2.322918    0.315499    0.778979
     32          6           0        1.937723    0.781278   -1.305248
     33          6           0        2.194334   -1.579460   -0.273409
     34          1           0        1.855695   -2.114835    0.624278
     35          8           0        1.004241    1.014920   -2.070512
     36          6           0        1.538663   -2.226737   -1.504100
     37          1           0        1.823447   -1.708456   -2.426140
     38          1           0        1.859930   -3.269324   -1.589833
     39          1           0        0.443439   -2.231664   -1.456874
     40          6           0        3.723763   -1.706808   -0.340818
     41          1           0        4.137496   -1.262155   -1.251740
     42          1           0        4.008022   -2.763566   -0.337357
     43          1           0        4.208497   -1.233697    0.521893
     44          7           0        3.183215    1.286855   -1.496781
     45          1           0        3.949969    0.965369   -0.915385
     46          6           0        3.578622    1.862765   -2.779260
     47          1           0        2.910978    1.455740   -3.547073
     48          6           0        4.995154    1.371746   -3.070349
     49          6           0        3.510630    3.408028   -2.860249
     50          1           0        4.224367    3.839712   -2.145840
     51          1           0        3.862971    3.681700   -3.859276
     52          8           0        5.676657    0.747520   -2.284422
     53          6           0        2.103102    3.998558   -2.632247
     54          1           0        1.351967    3.314824   -3.042269
     55          1           0        2.021171    4.942435   -3.185140
     56          6           0        1.804481    4.257251   -1.148991
     57          1           0        1.990594    3.346661   -0.573536
     58          1           0        2.493687    5.025112   -0.767777
     59          6           0        0.364067    4.699114   -0.894106
     60          1           0        0.139657    5.687121   -1.304615
     61          1           0       -0.351021    3.977564   -1.296242
     62          7           0        0.122637    4.733888    0.593750
     63          1           0       -0.856591    4.974464    0.912980
     64          1           0        0.298423    3.756649    0.934141
     65          1           0        0.777482    5.370188    1.056659
     66          8           0        5.398525    1.729432   -4.299184
     67          1           0        6.309933    1.399219   -4.419963
 ---------------------------------------------------------------------

 SCF Done:  E(RB3LYP) =  -1396.75973927     A.U. after    2 cycles

 Alpha  occ. eigenvalues --  -19.30101 -19.25804 -19.24737 -19.22697 -19.21451
 Alpha  occ. eigenvalues --  -14.55408 -14.48096 -14.47702 -14.46883 -14.46839
 Alpha  occ. eigenvalues --  -10.42702 -10.41890 -10.39658 -10.39308 -10.36728
 Alpha  occ. eigenvalues --  -10.34660 -10.34489 -10.34396 -10.33855 -10.30779
 Alpha  occ. eigenvalues --  -10.30189 -10.29608 -10.29315 -10.27864 -10.27440
 Alpha  occ. eigenvalues --  -10.27128 -10.26817 -10.25668 -10.24865  -1.21193
 Alpha  occ. eigenvalues --   -1.17247  -1.14571  -1.13680  -1.12329  -1.10771
 Alpha  occ. eigenvalues --   -1.04884  -1.03863  -1.03406  -1.02107  -0.92347
 Alpha  occ. eigenvalues --   -0.91374  -0.89805  -0.88190  -0.85618  -0.83042
 Alpha  occ. eigenvalues --   -0.81581  -0.80269  -0.78090  -0.76501  -0.75998
 Alpha  occ. eigenvalues --   -0.75152  -0.73304  -0.71837  -0.71072  -0.69658
 Alpha  occ. eigenvalues --   -0.69086  -0.68571  -0.68035  -0.66949  -0.65896
 Alpha  occ. eigenvalues --   -0.64334  -0.63458  -0.61521  -0.60963  -0.60318
 Alpha  occ. eigenvalues --   -0.59948  -0.59265  -0.58908  -0.58433  -0.58179
 Alpha  occ. eigenvalues --   -0.57654  -0.56959  -0.56142  -0.55720  -0.54824
 Alpha  occ. eigenvalues --   -0.53791  -0.53408  -0.53229  -0.52684  -0.52175
 Alpha  occ. eigenvalues --   -0.52055  -0.51851  -0.51112  -0.50748  -0.50176
 Alpha  occ. eigenvalues --   -0.49836  -0.49268  -0.48828  -0.48263  -0.47423
 Alpha  occ. eigenvalues --   -0.47310  -0.46825  -0.46626  -0.45755  -0.45657
 Alpha  occ. eigenvalues --   -0.44928  -0.44662  -0.44576  -0.43966  -0.43580
 Alpha  occ. eigenvalues --   -0.43348  -0.42106  -0.41769  -0.41286  -0.41041
 Alpha  occ. eigenvalues --   -0.40586  -0.39868  -0.38729  -0.38188  -0.36468
 Alpha  occ. eigenvalues --   -0.36120  -0.35851  -0.34932
 Alpha virt. eigenvalues --   -0.11314  -0.09643  -0.08780  -0.08314  -0.07595
 Alpha virt. eigenvalues --   -0.05238  -0.03393  -0.02561  -0.01973  -0.01400
 Alpha virt. eigenvalues --   -0.01308   0.00224   0.00959   0.01323   0.01618

 Mulliken charges:
               1
     1  N   -0.788996
     2  H    0.346763
     3  H    0.335598
     4  C   -0.245578
     5  H    0.207640
     6  H    0.201119
     7  C    0.606963
     8  O   -0.488000
     9  N   -0.646741
    10  H    0.324605
    11  C   -0.035252
    12  H    0.195002
    13  C    0.639528
    14  C   -0.287277
    15  H    0.195082
    16  H    0.155352
    17  O   -0.594329
    18  C   -0.104537
    19  H    0.143769
    20  C   -0.465541
    21  H    0.174530
    22  H    0.163575
    23  H    0.126341
    24  C   -0.450508
    25  H    0.154952
    26  H    0.149919
    27  H    0.155644
    28  N   -0.592003
    29  H    0.363462
    30  C   -0.056461
    31  H    0.180913
    32  C    0.629289
    33  C   -0.109453
    34  H    0.162208
    35  O   -0.534425
    36  C   -0.467102
    37  H    0.166188
    38  H    0.174885
    39  H    0.148530
    40  C   -0.476596
    41  H    0.168125
    42  H    0.175314
    43  H    0.152152
    44  N   -0.608402
    45  H    0.361923
    46  C   -0.048427
    47  H    0.208305
    48  C    0.590331
    49  C   -0.277134
    50  H    0.150405
    51  H    0.186261
    52  O   -0.460230
    53  C   -0.279971
    54  H    0.181543
    55  H    0.154830
    56  C   -0.295419
    57  H    0.188448
    58  H    0.147813
    59  C   -0.193767
    60  H    0.196843
    61  H    0.215755
    62  N   -0.799726
    63  H    0.431019
    64  H    0.434261
    65  H    0.381515
    66  O   -0.553832
    67  H    0.433005
 Sum of Mulliken charges =   1.00000

 Dipole moment (field-independent basis, Debye):
    X=              4.2833    Y=             16.2527    Z=              0.3926  Tot=             16.8123
 Quadrupole moment (field-independent basis, Debye-Ang):
   XX=           -147.5721   YY=            -70.3419   ZZ=           -146.8656
   XY=             -3.9605   XZ=            -27.1677   YZ=             16.1686

 Normal termination of Gaussian 16 at Thu Jun  2 03:30:38 2022.
