 Gaussian 16, Revision C.01,
 Gaussian 16:  ES64L-G16RevC.01  3-Jul-2019

 ----------------------------------------------------------------------
 # B3LYP/6-31G* empiricaldispersion=gd3 guess=read geom=check nosymm in
 tegral(ultrafinegrid)
 ----------------------------------------------------------------------

 ------------------------------------------------------
 Candidate Structure: Conf:950 Charge calc in gas phase
 ------------------------------------------------------
 Structure from the checkpoint file:  "conf-950.chk"
 Charge =  1 Multiplicity = 1

                          Input orientation:
 ---------------------------------------------------------------------
 Center     Atomic      Atomic             Coordinates (Angstroms)
 Number     Number       Type             X           Y           Z
 ---------------------------------------------------------------------
      1          7           0       -4.281263    1.167822    3.038849
      2          1           0       -5.220973    0.878720    2.776784
      3          1           0       -4.346448    1.567420    3.970857
      4          6           0       -3.364278    0.024038    3.019426
      5          1           0       -3.814618   -0.945945    3.269487
      6          1           0       -2.561976    0.189877    3.747742
      7          6           0       -2.687487   -0.142542    1.659417
      8          8           0       -2.069503   -1.172806    1.363495
      9          7           0       -2.793346    0.927831    0.839594
     10          1           0       -3.323872    1.710153    1.217466
     11          6           0       -2.359345    0.904193   -0.552763
     12          1           0       -2.542820   -0.112660   -0.921386
     13          6           0       -0.832028    1.139926   -0.639381
     14          6           0       -3.139924    1.919682   -1.390294
     15          1           0       -2.848493    2.931142   -1.082723
     16          1           0       -2.810233    1.816422   -2.434857
     17          8           0       -0.335379    2.162020   -1.154532
     18          6           0       -4.672928    1.768288   -1.346739
     19          1           0       -5.006197    1.947445   -0.314548
     20          6           0       -5.320296    2.838691   -2.236823
     21          1           0       -5.042706    2.692079   -3.289031
     22          1           0       -6.412496    2.791836   -2.174562
     23          1           0       -5.009231    3.848259   -1.944005
     24          6           0       -5.132991    0.361485   -1.753825
     25          1           0       -4.771964    0.106891   -2.759427
     26          1           0       -4.776210   -0.408748   -1.060987
     27          1           0       -6.226286    0.303121   -1.773819
     28          7           0       -0.096845    0.143634   -0.127416
     29          1           0       -0.616968   -0.605064    0.345725
     30          6           0        1.345881    0.199129    0.043797
     31          1           0        1.581813    1.002503    0.755771
     32          6           0        2.051604    0.522563   -1.281211
     33          6           0        1.836877   -1.150940    0.646237
     34          1           0        1.203260   -1.308139    1.530984
     35          8           0        1.640093    0.120746   -2.380532
     36          6           0        1.630188   -2.333070   -0.311789
     37          1           0        2.256486   -2.234413   -1.204483
     38          1           0        1.897874   -3.267645    0.190773
     39          1           0        0.590283   -2.417097   -0.642931
     40          6           0        3.291896   -1.063354    1.125592
     41          1           0        3.991664   -0.941613    0.292271
     42          1           0        3.563607   -1.982574    1.653503
     43          1           0        3.441666   -0.227770    1.820977
     44          7           0        3.190505    1.232500   -1.144987
     45          1           0        3.497642    1.487877   -0.215696
     46          6           0        4.068757    1.573082   -2.255340
     47          1           0        3.839555    0.874760   -3.064462
     48          6           0        5.544379    1.364398   -1.924158
     49          6           0        3.860146    3.028448   -2.742402
     50          1           0        4.111594    3.708359   -1.919081
     51          1           0        4.581233    3.217305   -3.545008
     52          8           0        6.423632    1.524377   -2.733794
     53          6           0        2.425612    3.307190   -3.211447
     54          1           0        2.297949    4.388668   -3.340205
     55          1           0        1.733633    3.013651   -2.413205
     56          6           0        2.083477    2.600939   -4.534540
     57          1           0        2.559026    3.126015   -5.370879
     58          1           0        2.482413    1.580247   -4.545270
     59          6           0        0.589484    2.516571   -4.832370
     60          1           0        0.102303    3.495309   -4.816139
     61          1           0        0.411049    2.054349   -5.806215
     62          7           0       -0.106559    1.656670   -3.800924
     63          1           0       -0.312339    2.150305   -2.901083
     64          1           0       -0.988244    1.276668   -4.152684
     65          1           0        0.505651    0.873438   -3.472328
     66          8           0        5.755627    1.017689   -0.632448
     67          1           0        6.721159    0.928128   -0.512958
 ---------------------------------------------------------------------

 SCF Done:  E(RB3LYP) =  -1396.76680657     A.U. after    3 cycles

 Alpha  occ. eigenvalues --  -19.30462 -19.24233 -19.24197 -19.24100 -19.21793
 Alpha  occ. eigenvalues --  -14.55628 -14.48414 -14.46898 -14.46082 -14.42577
 Alpha  occ. eigenvalues --  -10.42593 -10.41283 -10.40490 -10.38599 -10.37151
 Alpha  occ. eigenvalues --  -10.35088 -10.34612 -10.34252 -10.31724 -10.31142
 Alpha  occ. eigenvalues --  -10.30059 -10.29914 -10.29722 -10.29339 -10.28642
 Alpha  occ. eigenvalues --  -10.26973 -10.26325 -10.26266 -10.26076  -1.21047
 Alpha  occ. eigenvalues --   -1.16301  -1.15051  -1.13409  -1.12110  -1.10836
 Alpha  occ. eigenvalues --   -1.04961  -1.04085  -1.02933  -0.98526  -0.92781
 Alpha  occ. eigenvalues --   -0.91311  -0.90713  -0.88597  -0.85630  -0.83697
 Alpha  occ. eigenvalues --   -0.81142  -0.79427  -0.77781  -0.77230  -0.76887
 Alpha  occ. eigenvalues --   -0.74982  -0.72784  -0.71987  -0.70960  -0.70010
 Alpha  occ. eigenvalues --   -0.68739  -0.68659  -0.68169  -0.66727  -0.65879
 Alpha  occ. eigenvalues --   -0.64074  -0.62091  -0.61868  -0.61427  -0.61066
 Alpha  occ. eigenvalues --   -0.59575  -0.59283  -0.58854  -0.57998  -0.57617
 Alpha  occ. eigenvalues --   -0.56884  -0.56423  -0.55666  -0.55518  -0.54197
 Alpha  occ. eigenvalues --   -0.54178  -0.53741  -0.52893  -0.52784  -0.52227
 Alpha  occ. eigenvalues --   -0.51915  -0.51710  -0.50848  -0.50444  -0.50155
 Alpha  occ. eigenvalues --   -0.49728  -0.49485  -0.48995  -0.48776  -0.48264
 Alpha  occ. eigenvalues --   -0.47791  -0.47286  -0.47039  -0.46072  -0.45505
 Alpha  occ. eigenvalues --   -0.45332  -0.45153  -0.44529  -0.43752  -0.43477
 Alpha  occ. eigenvalues --   -0.43291  -0.42181  -0.42037  -0.42002  -0.41890
 Alpha  occ. eigenvalues --   -0.39387  -0.39127  -0.38523  -0.37382  -0.36692
 Alpha  occ. eigenvalues --   -0.36472  -0.35173  -0.34174
 Alpha virt. eigenvalues --   -0.10859  -0.10539  -0.09351  -0.08218  -0.07627
 Alpha virt. eigenvalues --   -0.03537  -0.02397  -0.02132  -0.01183  -0.00288
 Alpha virt. eigenvalues --   -0.00082   0.00188   0.01026   0.01549   0.01871

 Mulliken charges:
               1
     1  N   -0.751216
     2  H    0.326958
     3  H    0.333266
     4  C   -0.236351
     5  H    0.188362
     6  H    0.192301
     7  C    0.600465
     8  O   -0.548383
     9  N   -0.591354
    10  H    0.374922
    11  C   -0.066176
    12  H    0.185784
    13  C    0.628904
    14  C   -0.278394
    15  H    0.167291
    16  H    0.097994
    17  O   -0.586777
    18  C   -0.079897
    19  H    0.133670
    20  C   -0.444368
    21  H    0.137336
    22  H    0.164240
    23  H    0.151016
    24  C   -0.455202
    25  H    0.136302
    26  H    0.154669
    27  H    0.166090
    28  N   -0.629902
    29  H    0.408321
    30  C   -0.017980
    31  H    0.163103
    32  C    0.668798
    33  C   -0.126467
    34  H    0.165236
    35  O   -0.599833
    36  C   -0.452896
    37  H    0.161931
    38  H    0.168403
    39  H    0.159616
    40  C   -0.472244
    41  H    0.163628
    42  H    0.175678
    43  H    0.144389
    44  N   -0.585375
    45  H    0.360188
    46  C   -0.077135
    47  H    0.213434
    48  C    0.601295
    49  C   -0.270876
    50  H    0.159527
    51  H    0.189202
    52  O   -0.434692
    53  C   -0.302044
    54  H    0.166340
    55  H    0.169760
    56  C   -0.293414
    57  H    0.185970
    58  H    0.174406
    59  C   -0.180488
    60  H    0.203487
    61  H    0.201850
    62  N   -0.803919
    63  H    0.444554
    64  H    0.393729
    65  H    0.446308
    66  O   -0.576881
    67  H    0.433541
 Sum of Mulliken charges =   1.00000

 Dipole moment (field-independent basis, Debye):
    X=             -1.5800    Y=              7.5709    Z=             -6.0391  Tot=              9.8125
 Quadrupole moment (field-independent basis, Debye-Ang):
   XX=           -114.5321   YY=           -159.8413   ZZ=           -110.4384
   XY=             -2.9713   XZ=             -4.3280   YZ=            -20.2973

 Normal termination of Gaussian 16 at Thu Jun  2 03:31:03 2022.
