 Gaussian 16, Revision C.01,
 Gaussian 16:  ES64L-G16RevC.01  3-Jul-2019

 ----------------------------------------------------------------------
 # B3LYP/6-31G* empiricaldispersion=gd3 guess=read geom=check nosymm in
 tegral(ultrafinegrid)
 ----------------------------------------------------------------------

 ------------------------------------------------------
 Candidate Structure: Conf:370 Charge calc in gas phase
 ------------------------------------------------------
 Structure from the checkpoint file:  "conf-370.chk"
 Charge =  1 Multiplicity = 1

                          Input orientation:
 ---------------------------------------------------------------------
 Center     Atomic      Atomic             Coordinates (Angstroms)
 Number     Number       Type             X           Y           Z
 ---------------------------------------------------------------------
      1          7           0       -5.897121    0.980951    3.875099
      2          1           0       -6.576315    1.071510    3.120103
      3          1           0       -5.810089   -0.025614    4.014089
      4          6           0       -4.616280    1.483909    3.409412
      5          1           0       -3.887822    1.429065    4.231006
      6          1           0       -4.710795    2.548181    3.157586
      7          6           0       -4.028343    0.725891    2.205598
      8          8           0       -4.522957   -0.320976    1.797415
      9          7           0       -2.928752    1.303044    1.638396
     10          1           0       -2.469002    2.077440    2.105122
     11          6           0       -2.127137    0.631194    0.632983
     12          1           0       -2.381299   -0.432858    0.664956
     13          6           0       -0.651110    0.828383    0.991952
     14          6           0       -2.373181    1.186373   -0.791351
     15          1           0       -2.123408    2.256214   -0.773741
     16          1           0       -1.665677    0.708795   -1.486176
     17          8           0       -0.266246    1.766151    1.685754
     18          6           0       -3.804386    0.995586   -1.324043
     19          1           0       -4.495688    1.420969   -0.584493
     20          6           0       -3.971480    1.771230   -2.639055
     21          1           0       -3.294894    1.380735   -3.411491
     22          1           0       -4.994939    1.680607   -3.019929
     23          1           0       -3.753310    2.838456   -2.509577
     24          6           0       -4.159850   -0.486116   -1.510767
     25          1           0       -3.441118   -0.979142   -2.180484
     26          1           0       -4.180276   -1.013999   -0.553781
     27          1           0       -5.153883   -0.588182   -1.961043
     28          7           0        0.197158   -0.091753    0.449345
     29          1           0       -0.156887   -0.749923   -0.234539
     30          6           0        1.634055    0.096498    0.455779
     31          1           0        1.819485    1.141767    0.728697
     32          6           0        2.148845   -0.165827   -0.960784
     33          6           0        2.361923   -0.814358    1.490431
     34          1           0        3.436241   -0.584855    1.413146
     35          8           0        1.503585   -0.783272   -1.803466
     36          6           0        1.899644   -0.472795    2.912329
     37          1           0        0.837841   -0.707802    3.037831
     38          1           0        2.464731   -1.058164    3.645620
     39          1           0        2.030062    0.590475    3.136638
     40          6           0        2.162488   -2.303341    1.179074
     41          1           0        1.100278   -2.567020    1.233600
     42          1           0        2.695565   -2.920066    1.909838
     43          1           0        2.524953   -2.572600    0.180388
     44          7           0        3.403206    0.311171   -1.232264
     45          1           0        3.964138    0.677145   -0.475517
     46          6           0        4.055768   -0.075943   -2.474546
     47          1           0        3.854737   -1.147034   -2.634789
     48          6           0        5.568604    0.073660   -2.362267
     49          6           0        3.516456    0.697306   -3.692067
     50          1           0        2.434598    0.773809   -3.570495
     51          1           0        3.917669    1.717608   -3.658608
     52          8           0        6.292435    0.447271   -3.266184
     53          6           0        3.838704   -0.003308   -5.031759
     54          1           0        2.968858   -0.582847   -5.355966
     55          1           0        4.656124   -0.721731   -4.905855
     56          6           0        4.220029    0.964645   -6.166551
     57          1           0        4.199270    0.428398   -7.125278
     58          1           0        3.477521    1.773135   -6.229109
     59          6           0        5.611095    1.550590   -5.950904
     60          1           0        5.701476    2.124130   -5.029102
     61          1           0        6.390155    0.786706   -5.946925
     62          7           0        5.956896    2.513110   -7.095765
     63          1           0        6.893887    2.919725   -6.986884
     64          1           0        5.928180    2.033051   -8.003754
     65          1           0        5.283461    3.287571   -7.142227
     66          8           0        6.029197   -0.272355   -1.148730
     67          1           0        7.001561   -0.177245   -1.156780
 ---------------------------------------------------------------------

 SCF Done:  E(RB3LYP) =  -1396.69919266     A.U. after    1 cycles

 Alpha  occ. eigenvalues --  -19.32463 -19.27131 -19.21723 -19.18450 -19.15826
 Alpha  occ. eigenvalues --  -14.65360 -14.46676 -14.42877 -14.40246 -14.34834
 Alpha  occ. eigenvalues --  -10.45153 -10.41692 -10.38425 -10.35759 -10.35321
 Alpha  occ. eigenvalues --  -10.35276 -10.32572 -10.31941 -10.31100 -10.30679
 Alpha  occ. eigenvalues --  -10.28644 -10.27246 -10.25701 -10.24324 -10.24120
 Alpha  occ. eigenvalues --  -10.23523 -10.23418 -10.22021 -10.20873  -1.23524
 Alpha  occ. eigenvalues --   -1.19198  -1.14489  -1.13784  -1.10372  -1.07528
 Alpha  occ. eigenvalues --   -1.03294  -0.99725  -0.96964  -0.96100  -0.91755
 Alpha  occ. eigenvalues --   -0.90600  -0.87793  -0.85685  -0.85231  -0.81108
 Alpha  occ. eigenvalues --   -0.80621  -0.77918  -0.77834  -0.77437  -0.75060
 Alpha  occ. eigenvalues --   -0.73311  -0.73140  -0.72349  -0.70873  -0.70078
 Alpha  occ. eigenvalues --   -0.68750  -0.67403  -0.66128  -0.65040  -0.63968
 Alpha  occ. eigenvalues --   -0.62853  -0.62499  -0.61238  -0.60959  -0.59809
 Alpha  occ. eigenvalues --   -0.58828  -0.57765  -0.56343  -0.55508  -0.55332
 Alpha  occ. eigenvalues --   -0.54710  -0.54265  -0.53698  -0.53641  -0.52948
 Alpha  occ. eigenvalues --   -0.52341  -0.51668  -0.51109  -0.50900  -0.50165
 Alpha  occ. eigenvalues --   -0.50072  -0.48942  -0.48518  -0.47887  -0.47116
 Alpha  occ. eigenvalues --   -0.46635  -0.46369  -0.46009  -0.45693  -0.45275
 Alpha  occ. eigenvalues --   -0.44956  -0.44542  -0.44473  -0.44096  -0.43406
 Alpha  occ. eigenvalues --   -0.43031  -0.42498  -0.41424  -0.40852  -0.40659
 Alpha  occ. eigenvalues --   -0.40586  -0.40274  -0.39260  -0.37565  -0.37009
 Alpha  occ. eigenvalues --   -0.36825  -0.36233  -0.35327  -0.32584  -0.32304
 Alpha  occ. eigenvalues --   -0.30153  -0.29686  -0.27425
 Alpha virt. eigenvalues --   -0.15867  -0.12291  -0.09245  -0.09159  -0.07566
 Alpha virt. eigenvalues --   -0.06311  -0.04449  -0.04125  -0.03078  -0.01846
 Alpha virt. eigenvalues --   -0.01584  -0.00684  -0.00239   0.00430   0.01927

 Mulliken charges:
               1
     1  N   -0.680299
     2  H    0.303467
     3  H    0.310300
     4  C   -0.249789
     5  H    0.172053
     6  H    0.163913
     7  C    0.570089
     8  O   -0.517442
     9  N   -0.595024
    10  H    0.343822
    11  C   -0.065188
    12  H    0.181438
    13  C    0.612521
    14  C   -0.253333
    15  H    0.137112
    16  H    0.124594
    17  O   -0.534242
    18  C   -0.063617
    19  H    0.144000
    20  C   -0.443585
    21  H    0.128947
    22  H    0.150766
    23  H    0.137174
    24  C   -0.466365
    25  H    0.120545
    26  H    0.188201
    27  H    0.146608
    28  N   -0.602174
    29  H    0.353126
    30  C   -0.068047
    31  H    0.182573
    32  C    0.628798
    33  C   -0.078021
    34  H    0.115647
    35  O   -0.534462
    36  C   -0.444539
    37  H    0.166105
    38  H    0.152133
    39  H    0.161586
    40  C   -0.461281
    41  H    0.162511
    42  H    0.160817
    43  H    0.145754
    44  N   -0.628871
    45  H    0.352898
    46  C   -0.019411
    47  H    0.211357
    48  C    0.575180
    49  C   -0.266987
    50  H    0.201888
    51  H    0.131423
    52  O   -0.488548
    53  C   -0.273477
    54  H    0.189801
    55  H    0.165385
    56  C   -0.304526
    57  H    0.167566
    58  H    0.168625
    59  C   -0.195243
    60  H    0.237239
    61  H    0.236753
    62  N   -0.734307
    63  H    0.431722
    64  H    0.425141
    65  H    0.425015
    66  O   -0.548603
    67  H    0.432790
 Sum of Mulliken charges =   1.00000

 Dipole moment (field-independent basis, Debye):
    X=             30.7261    Y=              9.6994    Z=            -29.8690  Tot=             43.9355
 Quadrupole moment (field-independent basis, Debye-Ang):
   XX=            -10.2276   YY=           -147.8224   ZZ=             26.0518
   XY=             52.7955   XZ=           -159.3034   YZ=            -73.7998

 Normal termination of Gaussian 16 at Thu Jun  2 03:21:08 2022.
