 Gaussian 16, Revision C.01,
 Gaussian 16:  ES64L-G16RevC.01  3-Jul-2019

 ----------------------------------------------------------------------
 # B3LYP/6-31G* empiricaldispersion=gd3 guess=read geom=check nosymm in
 tegral(ultrafinegrid)
 ----------------------------------------------------------------------

 ------------------------------------------------------
 Candidate Structure: Conf:983 Charge calc in gas phase
 ------------------------------------------------------
 Structure from the checkpoint file:  "conf-983.chk"
 Charge =  1 Multiplicity = 1

                          Input orientation:
 ---------------------------------------------------------------------
 Center     Atomic      Atomic             Coordinates (Angstroms)
 Number     Number       Type             X           Y           Z
 ---------------------------------------------------------------------
      1          7           0       -2.557771    2.329589    2.861471
      2          1           0       -3.549548    2.111537    2.927042
      3          1           0       -2.368944    3.051985    3.550667
      4          6           0       -1.748284    1.135573    3.116274
      5          1           0       -2.163742    0.429333    3.848433
      6          1           0       -0.768606    1.441479    3.502100
      7          6           0       -1.477502    0.336151    1.841530
      8          8           0       -1.010115   -0.811816    1.896669
      9          7           0       -1.747494    0.985454    0.692858
     10          1           0       -2.109050    1.930774    0.802193
     11          6           0       -1.667800    0.370811   -0.635204
     12          1           0       -2.012172   -0.664088   -0.526944
     13          6           0       -0.192355    0.329145   -1.092487
     14          6           0       -2.549996    1.145553   -1.617408
     15          1           0       -3.528377    1.299218   -1.141669
     16          1           0       -2.097728    2.133137   -1.769389
     17          8           0        0.262079    1.008770   -2.006497
     18          6           0       -2.759373    0.469984   -2.986172
     19          1           0       -1.770228    0.259588   -3.408126
     20          6           0       -3.530180   -0.852497   -2.870708
     21          1           0       -4.518043   -0.690713   -2.420147
     22          1           0       -3.683617   -1.296773   -3.860391
     23          1           0       -2.995056   -1.595602   -2.271346
     24          6           0       -3.485360    1.439573   -3.929721
     25          1           0       -4.477691    1.699477   -3.538944
     26          1           0       -2.920581    2.370019   -4.059694
     27          1           0       -3.629449    0.991113   -4.919668
     28          7           0        0.589869   -0.549373   -0.387104
     29          1           0        0.177570   -0.941272    0.465513
     30          6           0        2.035458   -0.467229   -0.528435
     31          1           0        2.381920    0.561175   -0.360805
     32          6           0        2.436789   -0.763907   -1.976017
     33          6           0        2.733136   -1.408670    0.488797
     34          1           0        2.286822   -2.405823    0.368596
     35          8           0        3.401883   -0.185727   -2.512003
     36          6           0        4.241791   -1.523156    0.221403
     37          1           0        4.712148   -0.531635    0.203966
     38          1           0        4.720527   -2.106859    1.013542
     39          1           0        4.452089   -2.028316   -0.728439
     40          6           0        2.485789   -0.924776    1.928007
     41          1           0        2.912546    0.075887    2.072515
     42          1           0        2.969628   -1.601791    2.639832
     43          1           0        1.423185   -0.884280    2.183424
     44          7           0        1.733126   -1.727276   -2.597012
     45          1           0        0.871923   -2.003628   -2.127009
     46          6           0        1.705082   -1.913614   -4.043910
     47          1           0        2.200221   -1.057296   -4.510428
     48          6           0        0.231649   -1.890248   -4.451866
     49          6           0        2.350197   -3.247206   -4.529466
     50          1           0        2.241546   -3.983106   -3.724417
     51          1           0        1.775665   -3.623769   -5.382116
     52          8           0       -0.687966   -2.070135   -3.684180
     53          6           0        3.819776   -3.154522   -4.974611
     54          1           0        3.878640   -2.496637   -5.852066
     55          1           0        4.126197   -4.144017   -5.328193
     56          6           0        4.803070   -2.666469   -3.877682
     57          1           0        4.258677   -2.548101   -2.937456
     58          1           0        5.584874   -3.413129   -3.697536
     59          6           0        5.455889   -1.331193   -4.246622
     60          1           0        6.318698   -1.454422   -4.905670
     61          1           0        4.739758   -0.652206   -4.710434
     62          7           0        5.909476   -0.604403   -2.996964
     63          1           0        6.441028    0.244839   -3.211078
     64          1           0        5.011947   -0.332680   -2.498088
     65          1           0        6.482221   -1.196546   -2.388600
     66          8           0        0.093393   -1.686867   -5.770715
     67          1           0       -0.861143   -1.713226   -5.977201
 ---------------------------------------------------------------------

 SCF Done:  E(RB3LYP) =  -1396.74716095     A.U. after    1 cycles

 Alpha  occ. eigenvalues --  -19.30493 -19.25110 -19.24452 -19.20604 -19.19900
 Alpha  occ. eigenvalues --  -14.58641 -14.47420 -14.44079 -14.43964 -14.40972
 Alpha  occ. eigenvalues --  -10.43056 -10.40860 -10.38397 -10.37016 -10.36734
 Alpha  occ. eigenvalues --  -10.35339 -10.33115 -10.32480 -10.31238 -10.30967
 Alpha  occ. eigenvalues --  -10.30592 -10.30182 -10.30154 -10.28691 -10.26215
 Alpha  occ. eigenvalues --  -10.25558 -10.25095 -10.23264 -10.23226  -1.21582
 Alpha  occ. eigenvalues --   -1.15987  -1.13280  -1.12774  -1.12458  -1.11295
 Alpha  occ. eigenvalues --   -1.04566  -1.01196  -1.00699  -0.96867  -0.93483
 Alpha  occ. eigenvalues --   -0.90615  -0.89196  -0.87819  -0.84190  -0.82900
 Alpha  occ. eigenvalues --   -0.80283  -0.78468  -0.77569  -0.77280  -0.74227
 Alpha  occ. eigenvalues --   -0.73985  -0.73239  -0.72343  -0.71761  -0.69829
 Alpha  occ. eigenvalues --   -0.69017  -0.68542  -0.67162  -0.64957  -0.63208
 Alpha  occ. eigenvalues --   -0.62546  -0.62356  -0.61243  -0.60306  -0.60001
 Alpha  occ. eigenvalues --   -0.59419  -0.58429  -0.57968  -0.57300  -0.57100
 Alpha  occ. eigenvalues --   -0.56744  -0.56028  -0.55093  -0.54559  -0.53463
 Alpha  occ. eigenvalues --   -0.53051  -0.52555  -0.52368  -0.51948  -0.51385
 Alpha  occ. eigenvalues --   -0.51200  -0.50169  -0.49991  -0.49823  -0.49323
 Alpha  occ. eigenvalues --   -0.48930  -0.48650  -0.48200  -0.48055  -0.47063
 Alpha  occ. eigenvalues --   -0.46511  -0.45716  -0.45432  -0.45386  -0.44996
 Alpha  occ. eigenvalues --   -0.44402  -0.44170  -0.44114  -0.43173  -0.42762
 Alpha  occ. eigenvalues --   -0.42552  -0.42423  -0.39485  -0.39066  -0.38776
 Alpha  occ. eigenvalues --   -0.38676  -0.38446  -0.37610  -0.36095  -0.35184
 Alpha  occ. eigenvalues --   -0.34474  -0.32451  -0.32345
 Alpha virt. eigenvalues --   -0.10859  -0.10038  -0.09667  -0.07325  -0.05500
 Alpha virt. eigenvalues --   -0.04856  -0.03717  -0.02984  -0.02554  -0.01507
 Alpha virt. eigenvalues --   -0.00520  -0.00124   0.00753   0.01440   0.02023

 Mulliken charges:
               1
     1  N   -0.745052
     2  H    0.324464
     3  H    0.328627
     4  C   -0.233411
     5  H    0.181669
     6  H    0.184716
     7  C    0.602678
     8  O   -0.555811
     9  N   -0.596679
    10  H    0.369686
    11  C   -0.055686
    12  H    0.183573
    13  C    0.631541
    14  C   -0.280616
    15  H    0.140147
    16  H    0.157754
    17  O   -0.521465
    18  C   -0.086730
    19  H    0.144090
    20  C   -0.439749
    21  H    0.140827
    22  H    0.138067
    23  H    0.150530
    24  C   -0.445659
    25  H    0.146173
    26  H    0.149405
    27  H    0.138070
    28  N   -0.685390
    29  H    0.395131
    30  C   -0.000334
    31  H    0.175596
    32  C    0.649922
    33  C   -0.109115
    34  H    0.150041
    35  O   -0.622411
    36  C   -0.472581
    37  H    0.146436
    38  H    0.175484
    39  H    0.120261
    40  C   -0.474760
    41  H    0.148525
    42  H    0.163169
    43  H    0.190448
    44  N   -0.579827
    45  H    0.375456
    46  C   -0.040382
    47  H    0.198739
    48  C    0.591831
    49  C   -0.287402
    50  H    0.172177
    51  H    0.185473
    52  O   -0.452045
    53  C   -0.287524
    54  H    0.162718
    55  H    0.178712
    56  C   -0.306595
    57  H    0.188806
    58  H    0.172232
    59  C   -0.190227
    60  H    0.207668
    61  H    0.222561
    62  N   -0.757873
    63  H    0.408493
    64  H    0.455332
    65  H    0.402009
    66  O   -0.555451
    67  H    0.433538
 Sum of Mulliken charges =   1.00000

 Dipole moment (field-independent basis, Debye):
    X=             16.5595    Y=             -3.8858    Z=            -10.4203  Tot=             19.9474
 Quadrupole moment (field-independent basis, Debye-Ang):
   XX=            -38.6399   YY=           -157.2852   ZZ=            -99.0135
   XY=            -31.5626   XZ=            -64.6265   YZ=             36.9442

 Normal termination of Gaussian 16 at Thu Jun  2 03:30:42 2022.
