 Gaussian 16, Revision C.01,
 Gaussian 16:  ES64L-G16RevC.01  3-Jul-2019

 ----------------------------------------------------------------------
 # B3LYP/6-31G* empiricaldispersion=gd3 guess=read geom=check nosymm in
 tegral(ultrafinegrid)
 ----------------------------------------------------------------------

 ------------------------------------------------------
 Candidate Structure: Conf:879 Charge calc in gas phase
 ------------------------------------------------------
 Structure from the checkpoint file:  "conf-879.chk"
 Charge =  1 Multiplicity = 1

                          Input orientation:
 ---------------------------------------------------------------------
 Center     Atomic      Atomic             Coordinates (Angstroms)
 Number     Number       Type             X           Y           Z
 ---------------------------------------------------------------------
      1          7           0       -4.022834    2.122711    3.602375
      2          1           0       -3.316596    1.562978    4.073129
      3          1           0       -3.580075    2.961052    3.236013
      4          6           0       -4.728941    1.374339    2.572928
      5          1           0       -5.521302    2.005209    2.153484
      6          1           0       -5.244120    0.525313    3.035842
      7          6           0       -3.958079    0.797174    1.372900
      8          8           0       -4.530836    0.111150    0.530705
      9          7           0       -2.634389    1.115793    1.304017
     10          1           0       -2.183515    1.545343    2.103084
     11          6           0       -1.737100    0.504704    0.345758
     12          1           0       -2.208152   -0.415551   -0.015208
     13          6           0       -0.426414    0.178891    1.070902
     14          6           0       -1.420086    1.435670   -0.850801
     15          1           0       -0.974217    2.352424   -0.440616
     16          1           0       -0.647106    0.961187   -1.474622
     17          8           0       -0.088410    0.760832    2.098831
     18          6           0       -2.626231    1.795613   -1.736076
     19          1           0       -3.410544    2.204528   -1.086145
     20          6           0       -2.218973    2.883801   -2.740598
     21          1           0       -1.430127    2.516831   -3.412812
     22          1           0       -3.070561    3.183007   -3.362102
     23          1           0       -1.838766    3.780024   -2.234947
     24          6           0       -3.201533    0.568992   -2.457296
     25          1           0       -2.426878    0.066997   -3.054837
     26          1           0       -3.626101   -0.143394   -1.745666
     27          1           0       -4.006003    0.866713   -3.139718
     28          7           0        0.341858   -0.764788    0.458406
     29          1           0        0.074424   -1.089764   -0.463396
     30          6           0        1.741239   -0.953999    0.791947
     31          1           0        2.042642   -0.105299    1.416493
     32          6           0        2.531537   -0.933044   -0.519867
     33          6           0        2.004897   -2.264213    1.590128
     34          1           0        3.086613   -2.298302    1.789416
     35          8           0        1.995695   -1.088595   -1.619547
     36          6           0        1.269368   -2.219549    2.935112
     37          1           0        0.185598   -2.200573    2.780292
     38          1           0        1.511523   -3.106743    3.529965
     39          1           0        1.536242   -1.328605    3.512258
     40          6           0        1.620401   -3.510613    0.782297
     41          1           0        0.548510   -3.504110    0.553905
     42          1           0        1.832203   -4.417780    1.357359
     43          1           0        2.166489   -3.576414   -0.165891
     44          7           0        3.874188   -0.752868   -0.403537
     45          1           0        4.328993   -0.707074    0.500794
     46          6           0        4.725858   -0.871871   -1.569902
     47          1           0        4.433907   -1.771623   -2.128277
     48          6           0        6.156043   -1.060078   -1.085883
     49          6           0        4.572058    0.349694   -2.516859
     50          1           0        3.524000    0.652119   -2.448193
     51          1           0        5.183932    1.185078   -2.154277
     52          8           0        6.502318   -1.032455    0.072395
     53          6           0        4.893684    0.029288   -3.980737
     54          1           0        4.302066   -0.844577   -4.285182
     55          1           0        5.949747   -0.238333   -4.092376
     56          6           0        4.546141    1.213080   -4.899378
     57          1           0        3.489107    1.480349   -4.760676
     58          1           0        5.146185    2.090709   -4.620968
     59          6           0        4.796301    0.856889   -6.358156
     60          1           0        5.849698    0.655376   -6.567699
     61          1           0        4.198205    0.002807   -6.685499
     62          7           0        4.398611    2.021430   -7.273495
     63          1           0        4.555117    1.808756   -8.266727
     64          1           0        3.404185    2.254274   -7.156990
     65          1           0        4.935478    2.867862   -7.046500
     66          8           0        7.008732   -1.252419   -2.116643
     67          1           0        7.898273   -1.371203   -1.730277
 ---------------------------------------------------------------------

 SCF Done:  E(RB3LYP) =  -1396.69576889     A.U. after    1 cycles

 Alpha  occ. eigenvalues --  -19.30870 -19.25164 -19.21120 -19.18452 -19.15195
 Alpha  occ. eigenvalues --  -14.66563 -14.45644 -14.42673 -14.40299 -14.36795
 Alpha  occ. eigenvalues --  -10.43571 -10.43162 -10.37883 -10.36146 -10.35293
 Alpha  occ. eigenvalues --  -10.34891 -10.32503 -10.32456 -10.30857 -10.30656
 Alpha  occ. eigenvalues --  -10.28807 -10.26688 -10.25935 -10.24571 -10.24013
 Alpha  occ. eigenvalues --  -10.23964 -10.23091 -10.23056 -10.21466  -1.21709
 Alpha  occ. eigenvalues --   -1.20396  -1.13279  -1.12702  -1.10316  -1.07130
 Alpha  occ. eigenvalues --   -1.02445  -0.99558  -0.97234  -0.97166  -0.92959
 Alpha  occ. eigenvalues --   -0.90952  -0.87682  -0.86103  -0.85346  -0.81084
 Alpha  occ. eigenvalues --   -0.80595  -0.78980  -0.77869  -0.77276  -0.74665
 Alpha  occ. eigenvalues --   -0.73789  -0.73522  -0.73116  -0.71759  -0.69968
 Alpha  occ. eigenvalues --   -0.68580  -0.67816  -0.66105  -0.64625  -0.63659
 Alpha  occ. eigenvalues --   -0.63047  -0.62728  -0.61540  -0.59894  -0.59551
 Alpha  occ. eigenvalues --   -0.58734  -0.57422  -0.56701  -0.55722  -0.55346
 Alpha  occ. eigenvalues --   -0.55123  -0.54826  -0.53758  -0.52990  -0.52684
 Alpha  occ. eigenvalues --   -0.52015  -0.51923  -0.51536  -0.51054  -0.49994
 Alpha  occ. eigenvalues --   -0.49514  -0.49151  -0.48524  -0.48111  -0.47467
 Alpha  occ. eigenvalues --   -0.46730  -0.46521  -0.45844  -0.45562  -0.45315
 Alpha  occ. eigenvalues --   -0.44975  -0.44589  -0.44253  -0.43952  -0.43215
 Alpha  occ. eigenvalues --   -0.42904  -0.42902  -0.41636  -0.40785  -0.40167
 Alpha  occ. eigenvalues --   -0.39904  -0.39244  -0.38791  -0.38089  -0.37652
 Alpha  occ. eigenvalues --   -0.37276  -0.35481  -0.34848  -0.32768  -0.32346
 Alpha  occ. eigenvalues --   -0.31642  -0.29840  -0.26757
 Alpha virt. eigenvalues --   -0.16841  -0.10199  -0.10126  -0.10027  -0.08081
 Alpha virt. eigenvalues --   -0.06806  -0.04489  -0.04240  -0.03228  -0.02799
 Alpha virt. eigenvalues --   -0.01620  -0.01392   0.00112   0.00513   0.01775

 Mulliken charges:
               1
     1  N   -0.712329
     2  H    0.311000
     3  H    0.305929
     4  C   -0.236519
     5  H    0.185285
     6  H    0.187542
     7  C    0.577157
     8  O   -0.522014
     9  N   -0.600487
    10  H    0.324638
    11  C   -0.060151
    12  H    0.180595
    13  C    0.608390
    14  C   -0.254223
    15  H    0.136046
    16  H    0.120999
    17  O   -0.534107
    18  C   -0.062561
    19  H    0.150166
    20  C   -0.441509
    21  H    0.112859
    22  H    0.150317
    23  H    0.138096
    24  C   -0.463897
    25  H    0.112389
    26  H    0.194921
    27  H    0.144597
    28  N   -0.598288
    29  H    0.351102
    30  C   -0.069720
    31  H    0.184244
    32  C    0.631906
    33  C   -0.077180
    34  H    0.125195
    35  O   -0.558325
    36  C   -0.444880
    37  H    0.162549
    38  H    0.153040
    39  H    0.161797
    40  C   -0.461882
    41  H    0.159183
    42  H    0.161522
    43  H    0.143662
    44  N   -0.629918
    45  H    0.364235
    46  C   -0.014171
    47  H    0.196700
    48  C    0.580094
    49  C   -0.276877
    50  H    0.191070
    51  H    0.156450
    52  O   -0.443297
    53  C   -0.284343
    54  H    0.169974
    55  H    0.181289
    56  C   -0.295188
    57  H    0.176558
    58  H    0.171605
    59  C   -0.207494
    60  H    0.231909
    61  H    0.234553
    62  N   -0.731972
    63  H    0.434466
    64  H    0.430774
    65  H    0.429136
    66  O   -0.573048
    67  H    0.430441
 Sum of Mulliken charges =   1.00000

 Dipole moment (field-independent basis, Debye):
    X=             26.7330    Y=              7.3810    Z=            -31.4178  Tot=             41.9072
 Quadrupole moment (field-independent basis, Debye-Ang):
   XX=            -65.0896   YY=           -149.2603   ZZ=             48.4761
   XY=             26.7467   XZ=           -147.6558   YZ=            -63.9076

 Normal termination of Gaussian 16 at Thu Jun  2 03:30:34 2022.
