 Gaussian 16, Revision C.01,
 Gaussian 16:  ES64L-G16RevC.01  3-Jul-2019

 ----------------------------------------------------------------------
 # B3LYP/6-31G* empiricaldispersion=gd3 guess=read geom=check nosymm in
 tegral(ultrafinegrid)
 ----------------------------------------------------------------------

 ------------------------------------------------------
 Candidate Structure: Conf:234 Charge calc in gas phase
 ------------------------------------------------------
 Structure from the checkpoint file:  "conf-234.chk"
 Charge =  1 Multiplicity = 1

                          Input orientation:
 ---------------------------------------------------------------------
 Center     Atomic      Atomic             Coordinates (Angstroms)
 Number     Number       Type             X           Y           Z
 ---------------------------------------------------------------------
      1          7           0       -1.530315   -2.601646    1.114009
      2          1           0       -1.787991   -1.947341    1.847831
      3          1           0       -1.525558   -3.532551    1.520246
      4          6           0       -2.441634   -2.529041   -0.029771
      5          1           0       -3.484356   -2.271653    0.218537
      6          1           0       -2.445603   -3.491495   -0.545400
      7          6           0       -1.858293   -1.513951   -1.007527
      8          8           0       -1.040723   -1.873684   -1.881414
      9          7           0       -2.203876   -0.227672   -0.824884
     10          1           0       -2.827840    0.007939   -0.062462
     11          6           0       -1.590464    0.889558   -1.551676
     12          1           0       -1.278826    0.472520   -2.511197
     13          6           0       -0.315296    1.362250   -0.805214
     14          6           0       -2.593452    2.017925   -1.790268
     15          1           0       -3.522845    1.567684   -2.165306
     16          1           0       -2.818154    2.498490   -0.830851
     17          8           0       -0.205869    2.499878   -0.369979
     18          6           0       -2.114936    3.096369   -2.785836
     19          1           0       -1.229905    3.574379   -2.352458
     20          6           0       -1.731294    2.506370   -4.154002
     21          1           0       -2.564554    1.936158   -4.587860
     22          1           0       -1.473341    3.303010   -4.859553
     23          1           0       -0.854694    1.845653   -4.090262
     24          6           0       -3.207678    4.162186   -2.948237
     25          1           0       -4.117454    3.731616   -3.386502
     26          1           0       -3.475378    4.604820   -1.982479
     27          1           0       -2.870954    4.971826   -3.604513
     28          7           0        0.649666    0.406145   -0.698492
     29          1           0        0.482933   -0.527822   -1.053651
     30          6           0        1.944216    0.658090   -0.070010
     31          1           0        1.949838    1.725959    0.161810
     32          6           0        2.983911    0.358942   -1.158899
     33          6           0        2.145019   -0.122393    1.251850
     34          1           0        3.156921    0.138104    1.595975
     35          8           0        3.073066   -0.751350   -1.691371
     36          6           0        1.137074    0.381069    2.296775
     37          1           0        0.113650    0.128282    1.992246
     38          1           0        1.323725   -0.092691    3.266097
     39          1           0        1.188078    1.467158    2.430298
     40          6           0        2.058101   -1.648965    1.103927
     41          1           0        1.052493   -1.964295    0.799028
     42          1           0        2.261160   -2.120209    2.072191
     43          1           0        2.778681   -2.029104    0.377086
     44          7           0        3.687977    1.433164   -1.581519
     45          1           0        3.653886    2.308457   -1.070261
     46          6           0        4.721275    1.357676   -2.601618
     47          1           0        5.251674    0.403836   -2.500362
     48          6           0        5.705059    2.490308   -2.316936
     49          6           0        4.186940    1.478571   -4.052734
     50          1           0        3.531433    2.354765   -4.125354
     51          1           0        5.059238    1.678290   -4.683177
     52          8           0        5.497279    3.395327   -1.539001
     53          6           0        3.480054    0.215332   -4.577556
     54          1           0        3.967695   -0.658597   -4.131667
     55          1           0        3.633935    0.144562   -5.660930
     56          6           0        1.961049    0.133740   -4.310325
     57          1           0        1.700873    0.548000   -3.333758
     58          1           0        1.423768    0.721461   -5.068495
     59          6           0        1.539146   -1.329766   -4.369725
     60          1           0        1.852557   -1.793599   -5.309170
     61          1           0        1.966610   -1.879881   -3.528593
     62          7           0        0.032708   -1.507230   -4.283246
     63          1           0       -0.248107   -2.434845   -4.616954
     64          1           0       -0.339271   -1.456003   -3.292783
     65          1           0       -0.455295   -0.811814   -4.856813
     66          8           0        6.818781    2.370050   -3.058247
     67          1           0        7.395199    3.130339   -2.849104
 ---------------------------------------------------------------------

 SCF Done:  E(RB3LYP) =  -1396.74036092     A.U. after    1 cycles

 Alpha  occ. eigenvalues --  -19.29517 -19.26215 -19.24117 -19.21801 -19.21630
 Alpha  occ. eigenvalues --  -14.58291 -14.50018 -14.46186 -14.46026 -14.43349
 Alpha  occ. eigenvalues --  -10.42488 -10.42091 -10.39068 -10.38674 -10.37397
 Alpha  occ. eigenvalues --  -10.34980 -10.33997 -10.33862 -10.32256 -10.31508
 Alpha  occ. eigenvalues --  -10.29665 -10.29454 -10.28724 -10.28026 -10.27830
 Alpha  occ. eigenvalues --  -10.27536 -10.25343 -10.25236 -10.24175  -1.20596
 Alpha  occ. eigenvalues --   -1.17425  -1.14003  -1.13340  -1.12908  -1.11764
 Alpha  occ. eigenvalues --   -1.06080  -1.02763  -1.02373  -0.99830  -0.92686
 Alpha  occ. eigenvalues --   -0.91393  -0.89294  -0.87970  -0.86071  -0.83068
 Alpha  occ. eigenvalues --   -0.80888  -0.80112  -0.77623  -0.76590  -0.75777
 Alpha  occ. eigenvalues --   -0.74837  -0.73177  -0.72417  -0.71487  -0.71386
 Alpha  occ. eigenvalues --   -0.69170  -0.69019  -0.68277  -0.66410  -0.65192
 Alpha  occ. eigenvalues --   -0.64436  -0.63123  -0.62068  -0.61480  -0.60223
 Alpha  occ. eigenvalues --   -0.59987  -0.59389  -0.58950  -0.58255  -0.57011
 Alpha  occ. eigenvalues --   -0.56717  -0.55852  -0.55801  -0.55324  -0.54157
 Alpha  occ. eigenvalues --   -0.54111  -0.53128  -0.52980  -0.52401  -0.51655
 Alpha  occ. eigenvalues --   -0.51331  -0.51151  -0.50790  -0.50327  -0.50058
 Alpha  occ. eigenvalues --   -0.49591  -0.49156  -0.48592  -0.48320  -0.47939
 Alpha  occ. eigenvalues --   -0.47387  -0.46614  -0.45947  -0.45724  -0.45585
 Alpha  occ. eigenvalues --   -0.45217  -0.44736  -0.44201  -0.42706  -0.42474
 Alpha  occ. eigenvalues --   -0.42046  -0.41744  -0.41572  -0.41470  -0.41282
 Alpha  occ. eigenvalues --   -0.40818  -0.39926  -0.37869  -0.36479  -0.35842
 Alpha  occ. eigenvalues --   -0.34998  -0.34884  -0.33870
 Alpha virt. eigenvalues --   -0.12148  -0.10730  -0.09399  -0.08871  -0.06933
 Alpha virt. eigenvalues --   -0.05449  -0.04586  -0.02403  -0.01937  -0.01513
 Alpha virt. eigenvalues --   -0.00625  -0.00234   0.00121   0.00929   0.01621

 Mulliken charges:
               1
     1  N   -0.707683
     2  H    0.321476
     3  H    0.337315
     4  C   -0.244749
     5  H    0.156529
     6  H    0.193085
     7  C    0.644562
     8  O   -0.587677
     9  N   -0.566784
    10  H    0.354259
    11  C   -0.075585
    12  H    0.134543
    13  C    0.634288
    14  C   -0.270455
    15  H    0.141265
    16  H    0.166827
    17  O   -0.500661
    18  C   -0.082876
    19  H    0.173253
    20  C   -0.463955
    21  H    0.140477
    22  H    0.170638
    23  H    0.106984
    24  C   -0.449773
    25  H    0.144428
    26  H    0.160536
    27  H    0.158667
    28  N   -0.634070
    29  H    0.361412
    30  C   -0.066579
    31  H    0.184095
    32  C    0.629933
    33  C   -0.077242
    34  H    0.144003
    35  O   -0.557767
    36  C   -0.448777
    37  H    0.129684
    38  H    0.159654
    39  H    0.161839
    40  C   -0.487770
    41  H    0.166806
    42  H    0.150265
    43  H    0.171730
    44  N   -0.611307
    45  H    0.366548
    46  C   -0.031090
    47  H    0.202668
    48  C    0.580739
    49  C   -0.280879
    50  H    0.158663
    51  H    0.184528
    52  O   -0.452936
    53  C   -0.275087
    54  H    0.177633
    55  H    0.156626
    56  C   -0.287197
    57  H    0.181795
    58  H    0.150356
    59  C   -0.204248
    60  H    0.197210
    61  H    0.250003
    62  N   -0.783813
    63  H    0.407810
    64  H    0.463652
    65  H    0.397333
    66  O   -0.557536
    67  H    0.432379
 Sum of Mulliken charges =   1.00000

 Dipole moment (field-independent basis, Debye):
    X=             -0.1348    Y=             -3.7339    Z=            -14.2160  Tot=             14.6988
 Quadrupole moment (field-independent basis, Debye-Ang):
   XX=           -119.2283   YY=           -158.3770   ZZ=            -93.7714
   XY=             19.4263   XZ=            -18.5868   YZ=              1.4314

 Normal termination of Gaussian 16 at Thu Jun  2 03:21:10 2022.
