 Gaussian 16, Revision C.01,
 Gaussian 16:  ES64L-G16RevC.01  3-Jul-2019

 ----------------------------------------------------------------------
 # B3LYP/6-31G* empiricaldispersion=gd3 guess=read geom=check nosymm in
 tegral(ultrafinegrid)
 ----------------------------------------------------------------------

 ------------------------------------------------------
 Candidate Structure: Conf:883 Charge calc in gas phase
 ------------------------------------------------------
 Structure from the checkpoint file:  "conf-883.chk"
 Charge =  1 Multiplicity = 1

                          Input orientation:
 ---------------------------------------------------------------------
 Center     Atomic      Atomic             Coordinates (Angstroms)
 Number     Number       Type             X           Y           Z
 ---------------------------------------------------------------------
      1          7           0       -1.362011   -3.631340   -1.793916
      2          1           0       -1.175795   -4.477524   -1.256349
      3          1           0       -2.311008   -3.730608   -2.156390
      4          6           0       -1.289770   -2.466439   -0.893591
      5          1           0       -0.287672   -2.435208   -0.446452
      6          1           0       -2.020612   -2.520710   -0.074122
      7          6           0       -1.414434   -1.138593   -1.643104
      8          8           0       -0.958072   -0.963163   -2.776778
      9          7           0       -1.974293   -0.130291   -0.934911
     10          1           0       -2.415727   -0.330571   -0.046274
     11          6           0       -1.817572    1.275592   -1.335364
     12          1           0       -2.030281    1.347431   -2.402409
     13          6           0       -0.344463    1.703366   -1.171155
     14          6           0       -2.774348    2.160754   -0.521084
     15          1           0       -3.802525    1.849341   -0.751534
     16          1           0       -2.609880    1.965661    0.549433
     17          8           0        0.237777    2.367721   -2.017207
     18          6           0       -2.628529    3.674345   -0.775910
     19          1           0       -1.618062    3.972287   -0.462725
     20          6           0       -2.788747    4.031925   -2.260756
     21          1           0       -3.744977    3.661017   -2.652966
     22          1           0       -2.776494    5.118894   -2.393836
     23          1           0       -1.975470    3.617692   -2.864501
     24          6           0       -3.639385    4.436207    0.092512
     25          1           0       -4.668796    4.188563   -0.196267
     26          1           0       -3.520993    4.197602    1.156336
     27          1           0       -3.512878    5.517521   -0.024539
     28          7           0        0.243942    1.308539    0.002491
     29          1           0       -0.214555    0.558773    0.503433
     30          6           0        1.702141    1.300045    0.110195
     31          1           0        2.055831    2.308750   -0.125121
     32          6           0        2.209649    0.292992   -0.933752
     33          6           0        2.152233    0.911857    1.531483
     34          1           0        1.757298   -0.097149    1.724198
     35          8           0        1.822734   -0.883085   -0.913694
     36          6           0        3.684284    0.845064    1.610473
     37          1           0        4.130521    1.819025    1.374152
     38          1           0        4.000029    0.572463    2.622299
     39          1           0        4.100032    0.103810    0.919946
     40          6           0        1.588147    1.886291    2.574189
     41          1           0        1.978242    2.897889    2.408629
     42          1           0        1.881010    1.576199    3.582622
     43          1           0        0.495559    1.942699    2.538963
     44          7           0        3.058394    0.781087   -1.866375
     45          1           0        3.156839    1.784976   -1.949003
     46          6           0        3.401990   -0.024072   -3.028179
     47          1           0        3.618048   -1.028785   -2.662864
     48          6           0        4.659628    0.448877   -3.732257
     49          6           0        2.216554   -0.068068   -4.029212
     50          1           0        1.320739   -0.263286   -3.432645
     51          1           0        2.078301    0.933559   -4.452080
     52          8           0        5.296048   -0.256942   -4.481652
     53          6           0        2.356075   -1.096247   -5.161846
     54          1           0        3.138018   -0.783289   -5.860168
     55          1           0        1.419091   -1.092494   -5.736364
     56          6           0        2.695599   -2.527675   -4.704471
     57          1           0        2.643765   -3.205077   -5.567597
     58          1           0        3.736416   -2.559669   -4.363755
     59          6           0        1.827412   -3.079539   -3.573672
     60          1           0        2.083286   -4.119507   -3.353666
     61          1           0        1.912513   -2.494957   -2.652857
     62          7           0        0.364037   -3.052776   -3.928646
     63          1           0       -0.241871   -3.485248   -3.166184
     64          1           0       -0.005185   -2.086081   -3.918670
     65          1           0        0.177753   -3.492579   -4.833533
     66          8           0        4.940875    1.746647   -3.492952
     67          1           0        5.733140    1.978357   -4.015182
 ---------------------------------------------------------------------

 SCF Done:  E(RB3LYP) =  -1396.76673598     A.U. after    3 cycles

 Alpha  occ. eigenvalues --  -19.29848 -19.25314 -19.23797 -19.22421 -19.21806
 Alpha  occ. eigenvalues --  -14.54502 -14.49207 -14.48461 -14.46556 -14.45937
 Alpha  occ. eigenvalues --  -10.42390 -10.42105 -10.38979 -10.38600 -10.35985
 Alpha  occ. eigenvalues --  -10.35526 -10.34033 -10.33775 -10.32859 -10.30265
 Alpha  occ. eigenvalues --  -10.29127 -10.29000 -10.28965 -10.28807 -10.27220
 Alpha  occ. eigenvalues --  -10.26092 -10.25991 -10.24639 -10.24336  -1.20572
 Alpha  occ. eigenvalues --   -1.16997  -1.14329  -1.13239  -1.11612  -1.09939
 Alpha  occ. eigenvalues --   -1.05530  -1.03807  -1.03245  -1.02365  -0.91849
 Alpha  occ. eigenvalues --   -0.91024  -0.89568  -0.87153  -0.85993  -0.82823
 Alpha  occ. eigenvalues --   -0.81864  -0.79404  -0.77100  -0.76587  -0.75718
 Alpha  occ. eigenvalues --   -0.74476  -0.72196  -0.72131  -0.70087  -0.69921
 Alpha  occ. eigenvalues --   -0.68143  -0.67667  -0.67021  -0.66976  -0.65754
 Alpha  occ. eigenvalues --   -0.64299  -0.63739  -0.62180  -0.61430  -0.60658
 Alpha  occ. eigenvalues --   -0.59563  -0.59362  -0.58438  -0.58004  -0.57763
 Alpha  occ. eigenvalues --   -0.56906  -0.56580  -0.55746  -0.54690  -0.54165
 Alpha  occ. eigenvalues --   -0.54009  -0.53411  -0.52984  -0.52204  -0.52078
 Alpha  occ. eigenvalues --   -0.51488  -0.50872  -0.50512  -0.49871  -0.49779
 Alpha  occ. eigenvalues --   -0.49514  -0.49311  -0.48427  -0.47966  -0.47513
 Alpha  occ. eigenvalues --   -0.47035  -0.46696  -0.46369  -0.45615  -0.44815
 Alpha  occ. eigenvalues --   -0.44455  -0.44232  -0.43823  -0.42884  -0.42730
 Alpha  occ. eigenvalues --   -0.42197  -0.41573  -0.41334  -0.41235  -0.40554
 Alpha  occ. eigenvalues --   -0.40369  -0.39847  -0.38977  -0.37986  -0.37325
 Alpha  occ. eigenvalues --   -0.36148  -0.34881  -0.33996
 Alpha virt. eigenvalues --   -0.11778  -0.09279  -0.08833  -0.07722  -0.07133
 Alpha virt. eigenvalues --   -0.05541  -0.04585  -0.02371  -0.00938  -0.00559
 Alpha virt. eigenvalues --    0.00446   0.00544   0.00649   0.01274   0.01700

 Mulliken charges:
               1
     1  N   -0.769732
     2  H    0.350652
     3  H    0.344660
     4  C   -0.258327
     5  H    0.233535
     6  H    0.165424
     7  C    0.654107
     8  O   -0.549785
     9  N   -0.627372
    10  H    0.341718
    11  C   -0.042116
    12  H    0.204950
    13  C    0.635455
    14  C   -0.294088
    15  H    0.158496
    16  H    0.133367
    17  O   -0.522702
    18  C   -0.082577
    19  H    0.148608
    20  C   -0.463177
    21  H    0.140217
    22  H    0.160342
    23  H    0.169956
    24  C   -0.446550
    25  H    0.148555
    26  H    0.144050
    27  H    0.162046
    28  N   -0.589878
    29  H    0.318377
    30  C   -0.033957
    31  H    0.167357
    32  C    0.643423
    33  C   -0.108838
    34  H    0.135444
    35  O   -0.576551
    36  C   -0.461195
    37  H    0.153600
    38  H    0.167794
    39  H    0.159733
    40  C   -0.445541
    41  H    0.158154
    42  H    0.164183
    43  H    0.146270
    44  N   -0.589122
    45  H    0.367099
    46  C   -0.051421
    47  H    0.191156
    48  C    0.601518
    49  C   -0.309323
    50  H    0.187404
    51  H    0.176559
    52  O   -0.452268
    53  C   -0.288018
    54  H    0.190297
    55  H    0.136734
    56  C   -0.297297
    57  H    0.157435
    58  H    0.199252
    59  C   -0.221622
    60  H    0.190037
    61  H    0.238509
    62  N   -0.779439
    63  H    0.436655
    64  H    0.436361
    65  H    0.380666
    66  O   -0.571308
    67  H    0.432052
 Sum of Mulliken charges =   1.00000

 Dipole moment (field-independent basis, Debye):
    X=             -0.4924    Y=             -8.0206    Z=             -8.7768  Tot=             11.8998
 Quadrupole moment (field-independent basis, Debye-Ang):
   XX=           -140.4343   YY=           -122.9189   ZZ=           -128.1440
   XY=             14.7783   XZ=             -8.2068   YZ=             30.1612

 Normal termination of Gaussian 16 at Thu Jun  2 03:31:07 2022.
