 Gaussian 16, Revision C.01,
 Gaussian 16:  ES64L-G16RevC.01  3-Jul-2019

 ----------------------------------------------------------------------
 # B3LYP/6-31G* empiricaldispersion=gd3 guess=read geom=check nosymm in
 tegral(ultrafinegrid)
 ----------------------------------------------------------------------

 ------------------------------------------------------
 Candidate Structure: Conf:234 Charge calc in gas phase
 ------------------------------------------------------
 Structure from the checkpoint file:  "conf-234.chk"
 Charge =  1 Multiplicity = 1

                          Input orientation:
 ---------------------------------------------------------------------
 Center     Atomic      Atomic             Coordinates (Angstroms)
 Number     Number       Type             X           Y           Z
 ---------------------------------------------------------------------
      1          7           0       -7.521049   -1.449067    4.057657
      2          1           0       -8.109113   -1.215128    4.862703
      3          1           0       -7.799894   -2.367144    3.702664
      4          1           0       -7.639793   -0.691630    3.324796
      5          6           0       -6.033862   -1.352879    4.353486
      6          1           0       -5.883436   -1.497764    5.427116
      7          6           0       -5.718653    0.091453    3.893965
      8          6           0       -5.268174   -2.430081    3.543061
      9          1           0       -5.540062   -2.284303    2.487720
     10          8           0       -6.485801    0.605134    3.068680
     11          6           0       -3.747031   -2.241181    3.664676
     12          1           0       -3.428104   -2.255309    4.715634
     13          1           0       -3.241001   -3.069889    3.161535
     14          1           0       -3.419563   -1.314062    3.190873
     15          6           0       -5.673415   -3.844669    3.992893
     16          1           0       -5.406364   -4.012864    5.042902
     17          1           0       -6.744300   -4.066254    3.880381
     18          1           0       -5.144169   -4.588014    3.390244
     19          7           0       -4.635176    0.669542    4.402689
     20          1           0       -4.105452    0.228155    5.145018
     21          6           0       -4.062867    1.889627    3.849491
     22          1           0       -4.725615    2.734474    4.068140
     23          6           0       -3.836859    1.722411    2.333214
     24          6           0       -2.684812    2.101176    4.503447
     25          1           0       -2.320915    3.104804    4.257608
     26          1           0       -1.970204    1.384151    4.078516
     27          8           0       -3.666465    0.614087    1.837355
     28          8           0       -2.863905    1.903575    5.903456
     29          1           0       -1.998256    1.983719    6.332882
     30          7           0       -3.749219    2.880938    1.627841
     31          1           0       -3.698288    3.736996    2.167898
     32          6           0       -2.941069    2.873360    0.407561
     33          1           0       -3.382027    2.142049   -0.275269
     34          6           0       -1.510699    2.426249    0.798388
     35          6           0       -2.923023    4.263411   -0.230416
     36          1           0       -2.340351    4.245844   -1.155943
     37          1           0       -2.456507    4.990048    0.445153
     38          1           0       -3.938954    4.595354   -0.465173
     39          8           0       -1.065321    2.685867    1.918873
     40          7           0       -0.836209    1.756106   -0.150656
     41          1           0       -1.209458    1.641845   -1.088197
     42          6           0        0.518992    1.255383    0.016847
     43          1           0        1.017756    1.874068    0.768123
     44          6           0        1.206840    1.393736   -1.352356
     45          6           0        0.532683   -0.233066    0.442255
     46          1           0        0.065310   -0.805545   -0.370290
     47          1           0        1.579257   -0.563934    0.496427
     48          8           0        0.539304    1.424908   -2.389113
     49          6           0       -0.176923   -0.558383    1.770230
     50          1           0       -1.195269   -0.151580    1.719699
     51          6           0       -0.287342   -2.082126    1.932771
     52          1           0        0.705226   -2.549679    1.961118
     53          1           0       -0.798324   -2.339200    2.869003
     54          1           0       -0.847432   -2.534984    1.105726
     55          6           0        0.536303    0.064819    2.978534
     56          1           0        1.572195   -0.291765    3.050667
     57          1           0        0.029511   -0.217939    3.911124
     58          1           0        0.540001    1.156251    2.920706
     59          7           0        2.552336    1.412769   -1.324873
     60          1           0        3.077631    1.433828   -0.455833
     61          6           0        3.368065    1.487562   -2.524196
     62          1           0        2.950311    0.810957   -3.276906
     63          6           0        4.783847    1.058110   -2.118041
     64          6           0        3.380305    2.934850   -3.107256
     65          1           0        3.697108    3.611248   -2.305486
     66          1           0        2.341721    3.174761   -3.358602
     67          8           0        5.183354    1.233995   -0.964495
     68          6           0        4.287661    3.067321   -4.305594
     69          6           0        5.577096    3.605141   -4.177716
     70          1           0        5.892362    4.009604   -3.218602
     71          6           0        3.915749    2.539727   -5.547855
     72          1           0        2.919085    2.122483   -5.677629
     73          6           0        6.473506    3.606793   -5.240964
     74          1           0        7.478059    4.002004   -5.133848
     75          6           0        4.805011    2.527821   -6.622519
     76          1           0        4.501969    2.104527   -7.578065
     77          8           0        7.018725    3.053923   -7.469524
     78          1           0        6.663384    2.572001   -8.232163
     79          6           0        6.093238    3.050772   -6.467366
     80          7           0        5.540387    0.537125   -3.105645
     81          1           0        5.182675    0.505936   -4.054551
     82          6           0        6.985445    0.408593   -2.986160
     83          1           0        7.358772    1.197445   -2.328872
     84          6           0        7.606098    0.566106   -4.364396
     85          6           0        7.396150   -0.978374   -2.402181
     86          1           0        7.191493   -0.931699   -1.327830
     87          1           0        6.713414   -1.726567   -2.822758
     88          8           0        8.829325    1.074286   -4.293912
     89          6           0        8.859175   -1.403207   -2.668366
     90          1           0        9.188297   -2.052066   -1.848846
     91          1           0        9.504712   -0.520140   -2.634975
     92          6           0        9.053453   -2.165892   -4.011250
     93          1           0        9.053749   -3.241891   -3.800881
     94          1           0        8.193105   -1.999594   -4.670273
     95          6           0       10.333200   -1.838281   -4.806083
     96          1           0       10.656031   -2.730163   -5.362222
     97          1           0       11.149355   -1.574059   -4.123990
     98          7           0       10.138374   -0.692135   -5.732620
     99          1           0       11.003367   -0.488912   -6.231630
    100          1           0        9.439606   -0.934794   -6.435662
    101          1           0        9.403209    0.604433   -5.005989
    102          8           0        7.071036    0.142599   -5.378465
 ---------------------------------------------------------------------

 SCF Done:  E(RB3LYP) =  -2312.22523054     A.U. after    1 cycles

 Alpha  occ. eigenvalues --  -19.26344 -19.25330 -19.21663 -19.21625 -19.20282
 Alpha  occ. eigenvalues --  -19.18828 -19.17752 -19.17223 -19.16712 -14.59893
 Alpha  occ. eigenvalues --  -14.49378 -14.45198 -14.43049 -14.41852 -14.40605
 Alpha  occ. eigenvalues --  -14.39604 -10.43098 -10.40346 -10.38660 -10.35969
 Alpha  occ. eigenvalues --  -10.35072 -10.34870 -10.34559 -10.33942 -10.33740
 Alpha  occ. eigenvalues --  -10.33699 -10.31650 -10.30891 -10.29816 -10.28870
 Alpha  occ. eigenvalues --  -10.28793 -10.28680 -10.27418 -10.26888 -10.26592
 Alpha  occ. eigenvalues --  -10.25061 -10.24935 -10.24031 -10.23728 -10.23386
 Alpha  occ. eigenvalues --  -10.23262 -10.23220 -10.23161 -10.23119 -10.23084
 Alpha  occ. eigenvalues --  -10.23068 -10.22710 -10.22369  -1.19022  -1.14151
 Alpha  occ. eigenvalues --   -1.13369  -1.12573  -1.12516  -1.10758  -1.09721
 Alpha  occ. eigenvalues --   -1.09647  -1.08417  -1.05887  -1.04041  -1.01802
 Alpha  occ. eigenvalues --   -0.99612  -0.98411  -0.97317  -0.95091  -0.94839
 Alpha  occ. eigenvalues --   -0.89605  -0.89076  -0.87466  -0.85720  -0.84874
 Alpha  occ. eigenvalues --   -0.84171  -0.83479  -0.81000  -0.80798  -0.79709
 Alpha  occ. eigenvalues --   -0.78857  -0.77026  -0.75433  -0.74804  -0.74320
 Alpha  occ. eigenvalues --   -0.74033  -0.73890  -0.73612  -0.72852  -0.71394
 Alpha  occ. eigenvalues --   -0.69942  -0.69585  -0.67997  -0.67287  -0.66308
 Alpha  occ. eigenvalues --   -0.66098  -0.65026  -0.64766  -0.64366  -0.63644
 Alpha  occ. eigenvalues --   -0.63535  -0.63109  -0.62772  -0.62338  -0.61488
 Alpha  occ. eigenvalues --   -0.60899  -0.60207  -0.58494  -0.58334  -0.57962
 Alpha  occ. eigenvalues --   -0.57470  -0.56668  -0.56032  -0.55675  -0.54843
 Alpha  occ. eigenvalues --   -0.54602  -0.54466  -0.54272  -0.53594  -0.53129
 Alpha  occ. eigenvalues --   -0.52776  -0.52741  -0.52089  -0.51577  -0.51320
 Alpha  occ. eigenvalues --   -0.51175  -0.50953  -0.50853  -0.50527  -0.50501
 Alpha  occ. eigenvalues --   -0.49889  -0.49631  -0.49270  -0.49147  -0.48982
 Alpha  occ. eigenvalues --   -0.48619  -0.48187  -0.47859  -0.47661  -0.47458
 Alpha  occ. eigenvalues --   -0.47079  -0.46692  -0.46379  -0.46339  -0.46178
 Alpha  occ. eigenvalues --   -0.46126  -0.45966  -0.45552  -0.45362  -0.45231
 Alpha  occ. eigenvalues --   -0.44948  -0.44529  -0.44416  -0.44182  -0.44034
 Alpha  occ. eigenvalues --   -0.43189  -0.42918  -0.42776  -0.42011  -0.41458
 Alpha  occ. eigenvalues --   -0.40830  -0.40789  -0.40496  -0.40106  -0.39728
 Alpha  occ. eigenvalues --   -0.39153  -0.38907  -0.38578  -0.38454  -0.38115
 Alpha  occ. eigenvalues --   -0.37797  -0.37724  -0.37637  -0.37419  -0.36785
 Alpha  occ. eigenvalues --   -0.36058  -0.34952  -0.33810  -0.33219  -0.32509
 Alpha  occ. eigenvalues --   -0.32094  -0.31871  -0.31320  -0.31098  -0.30262
 Alpha  occ. eigenvalues --   -0.29568  -0.29266  -0.25539
 Alpha virt. eigenvalues --   -0.12269  -0.10775  -0.08314  -0.06356  -0.05095
 Alpha virt. eigenvalues --   -0.04752  -0.04594  -0.04172  -0.03458  -0.02556
 Alpha virt. eigenvalues --   -0.02297  -0.01860  -0.01607  -0.01383  -0.00483

 Mulliken charges:
               1
     1  N   -0.755853
     2  H    0.415433
     3  H    0.410460
     4  H    0.432238
     5  C   -0.117982
     6  H    0.199924
     7  C    0.680523
     8  C   -0.102059
     9  H    0.176969
    10  O   -0.541036
    11  C   -0.498761
    12  H    0.143414
    13  H    0.184597
    14  H    0.226193
    15  C   -0.470324
    16  H    0.174129
    17  H    0.133108
    18  H    0.200831
    19  N   -0.595180
    20  H    0.364995
    21  C   -0.059216
    22  H    0.189391
    23  C    0.650897
    24  C   -0.080189
    25  H    0.177839
    26  H    0.188110
    27  O   -0.524099
    28  O   -0.633900
    29  H    0.420378
    30  N   -0.575364
    31  H    0.338421
    32  C   -0.059709
    33  H    0.183328
    34  C    0.639113
    35  C   -0.476639
    36  H    0.182998
    37  H    0.168072
    38  H    0.177828
    39  O   -0.558855
    40  N   -0.595834
    41  H    0.352918
    42  C   -0.074931
    43  H    0.178921
    44  C    0.630747
    45  C   -0.251586
    46  H    0.145654
    47  H    0.145891
    48  O   -0.551604
    49  C   -0.091001
    50  H    0.157531
    51  C   -0.448371
    52  H    0.149311
    53  H    0.129771
    54  H    0.141364
    55  C   -0.463997
    56  H    0.141922
    57  H    0.117574
    58  H    0.180247
    59  N   -0.618855
    60  H    0.353391
    61  C   -0.033769
    62  H    0.172196
    63  C    0.608048
    64  C   -0.353329
    65  H    0.154399
    66  H    0.178065
    67  O   -0.551468
    68  C    0.146329
    69  C   -0.189507
    70  H    0.137011
    71  C   -0.212651
    72  H    0.136167
    73  C   -0.165518
    74  H    0.152276
    75  C   -0.180718
    76  H    0.125276
    77  O   -0.640231
    78  H    0.409929
    79  C    0.371631
    80  N   -0.606770
    81  H    0.357756
    82  C   -0.001467
    83  H    0.183621
    84  C    0.589515
    85  C   -0.279326
    86  H    0.167429
    87  H    0.148291
    88  O   -0.604433
    89  C   -0.287613
    90  H    0.143072
    91  H    0.169331
    92  C   -0.290943
    93  H    0.147009
    94  H    0.164517
    95  C   -0.140116
    96  H    0.143477
    97  H    0.161824
    98  N   -0.776174
    99  H    0.330088
   100  H    0.338772
   101  H    0.455466
   102  O   -0.516542
 Sum of Mulliken charges =   1.00000

 Dipole moment (field-independent basis, Debye):
    X=            -17.5912    Y=             -5.9896    Z=             12.4119  Tot=             22.3468
 Quadrupole moment (field-independent basis, Debye-Ang):
   XX=            -27.0130   YY=           -252.1966   ZZ=           -152.8298
   XY=             11.7947   XZ=           -163.4123   YZ=            -10.1251

 Normal termination of Gaussian 16 at Mon Jun 27 02:25:47 2022.
