 Gaussian 16, Revision C.01,
 Gaussian 16:  ES64L-G16RevC.01  3-Jul-2019

 ----------------------------------------------------------------------
 # B3LYP/6-31G* empiricaldispersion=gd3 guess=read geom=check nosymm in
 tegral(ultrafinegrid)
 ----------------------------------------------------------------------

 ------------------------------------------------------
 Candidate Structure: Conf:123 Charge calc in gas phase
 ------------------------------------------------------
 Structure from the checkpoint file:  "conf-123.chk"
 Charge =  1 Multiplicity = 1

                          Input orientation:
 ---------------------------------------------------------------------
 Center     Atomic      Atomic             Coordinates (Angstroms)
 Number     Number       Type             X           Y           Z
 ---------------------------------------------------------------------
      1          7           0       -1.426790    4.545411    1.476237
      2          1           0       -1.508549    5.460384    1.924058
      3          1           0       -0.638902    4.570722    0.789590
      4          1           0       -1.167819    3.825114    2.195678
      5          6           0       -2.744956    4.032491    0.928639
      6          1           0       -3.484019    4.834894    1.019179
      7          6           0       -3.076488    2.862568    1.888917
      8          6           0       -2.599524    3.616534   -0.558350
      9          1           0       -1.795693    2.872491   -0.607892
     10          8           0       -2.150637    2.389304    2.568202
     11          6           0       -3.883480    2.968414   -1.099497
     12          1           0       -4.751601    3.630519   -0.979511
     13          1           0       -3.766734    2.780850   -2.170696
     14          1           0       -4.100675    2.010724   -0.620919
     15          6           0       -2.209651    4.829418   -1.420072
     16          1           0       -2.990998    5.598921   -1.395928
     17          1           0       -1.263335    5.286658   -1.111980
     18          1           0       -2.081079    4.514444   -2.459559
     19          7           0       -4.331109    2.419266    1.921718
     20          1           0       -5.060592    2.939089    1.450707
     21          6           0       -4.759663    1.299944    2.779272
     22          1           0       -4.203808    1.386946    3.718147
     23          6           0       -4.435844   -0.045814    2.076686
     24          6           0       -6.259138    1.419450    3.032091
     25          1           0       -6.536067    0.689606    3.803820
     26          1           0       -6.802189    1.150969    2.115992
     27          8           0       -5.324625   -0.733683    1.584343
     28          8           0       -6.508202    2.764322    3.430207
     29          1           0       -7.453224    2.848248    3.628666
     30          7           0       -3.120828   -0.349516    2.025688
     31          1           0       -2.416409    0.272761    2.416164
     32          6           0       -2.616032   -1.472535    1.252120
     33          1           0       -3.134873   -2.386323    1.564065
     34          6           0       -1.113412   -1.577815    1.538977
     35          6           0       -2.823586   -1.262743   -0.264064
     36          1           0       -2.380325   -2.077930   -0.844816
     37          1           0       -2.346198   -0.326185   -0.574477
     38          1           0       -3.893676   -1.209771   -0.476037
     39          8           0       -0.480255   -0.612597    1.971119
     40          7           0       -0.547297   -2.770258    1.218027
     41          1           0       -1.116423   -3.418701    0.683933
     42          6           0        0.881283   -2.869314    0.917893
     43          1           0        1.367162   -2.047414    1.446033
     44          6           0        1.025261   -2.679311   -0.604512
     45          6           0        1.463060   -4.217787    1.366077
     46          1           0        1.010409   -5.012458    0.757334
     47          1           0        2.535644   -4.215720    1.126348
     48          8           0        0.178017   -3.135208   -1.375148
     49          6           0        1.268719   -4.530883    2.861634
     50          1           0        0.187827   -4.593835    3.049138
     51          6           0        1.893030   -5.894161    3.190482
     52          1           0        2.979577   -5.873940    3.036072
     53          1           0        1.710807   -6.166903    4.235876
     54          1           0        1.479949   -6.688893    2.558041
     55          6           0        1.841157   -3.429226    3.765621
     56          1           0        2.906911   -3.265830    3.556160
     57          1           0        1.751851   -3.711951    4.820406
     58          1           0        1.317943   -2.475194    3.635977
     59          7           0        2.096311   -1.962930   -1.008232
     60          1           0        2.757158   -1.568887   -0.345069
     61          6           0        2.304630   -1.544696   -2.381133
     62          1           0        2.333775   -2.425453   -3.033883
     63          6           0        3.661052   -0.817963   -2.410317
     64          6           0        1.161732   -0.609440   -2.888235
     65          1           0        0.231533   -1.173756   -2.782318
     66          1           0        1.300698   -0.425565   -3.959127
     67          8           0        4.294945   -0.597324   -1.379414
     68          6           0        1.091898    0.700202   -2.138724
     69          6           0        0.519582    0.755301   -0.860477
     70          1           0        0.095105   -0.134021   -0.416299
     71          6           0        1.641066    1.873643   -2.672877
     72          1           0        2.113654    1.858440   -3.651935
     73          6           0        0.495774    1.934641   -0.118543
     74          1           0        0.075171    1.931207    0.883264
     75          6           0        1.596533    3.072464   -1.958020
     76          1           0        2.006591    3.981857   -2.393403
     77          8           0        0.931650    4.276672    0.051550
     78          1           0        1.472359    4.963334   -0.371237
     79          6           0        1.026446    3.091120   -0.687719
     80          7           0        4.078217   -0.409325   -3.633055
     81          1           0        3.417608   -0.414321   -4.400217
     82          6           0        5.155833    0.571090   -3.747493
     83          1           0        5.037869    1.279565   -2.913249
     84          6           0        4.871936    1.389532   -5.028556
     85          6           0        6.551589   -0.058555   -3.626718
     86          1           0        6.477140   -0.899356   -2.932049
     87          1           0        6.850350   -0.480318   -4.592427
     88          8           0        5.877974    1.906639   -5.711572
     89          6           0        7.593898    0.945537   -3.088234
     90          1           0        7.519267    0.949891   -1.994936
     91          1           0        7.336319    1.964888   -3.407658
     92          6           0        9.039459    0.646796   -3.525922
     93          1           0        9.748707    0.963681   -2.752254
     94          1           0        9.181223   -0.437220   -3.640990
     95          6           0        9.423484    1.366827   -4.822347
     96          1           0       10.448211    1.098394   -5.116961
     97          1           0        9.408509    2.449264   -4.648750
     98          7           0        8.446932    1.097086   -5.903120
     99          1           0        8.679342    1.649508   -6.728733
    100          1           0        8.513306    0.121068   -6.193955
    101          1           0        6.811927    1.524284   -5.580726
    102          8           0        3.714980    1.592961   -5.361389
 ---------------------------------------------------------------------

 SCF Done:  E(RB3LYP) =  -2312.24949135     A.U. after    1 cycles

 Alpha  occ. eigenvalues --  -19.30599 -19.26097 -19.24226 -19.23499 -19.20333
 Alpha  occ. eigenvalues --  -19.19883 -19.19761 -19.19433 -19.18836 -14.56748
 Alpha  occ. eigenvalues --  -14.49550 -14.43808 -14.43697 -14.43413 -14.43231
 Alpha  occ. eigenvalues --  -14.42202 -10.42772 -10.39235 -10.38207 -10.37314
 Alpha  occ. eigenvalues --  -10.37115 -10.36523 -10.35801 -10.34696 -10.33639
 Alpha  occ. eigenvalues --  -10.32804 -10.32753 -10.31518 -10.31383 -10.30777
 Alpha  occ. eigenvalues --  -10.30238 -10.29574 -10.29092 -10.29080 -10.28209
 Alpha  occ. eigenvalues --  -10.27840 -10.27639 -10.27357 -10.27246 -10.26941
 Alpha  occ. eigenvalues --  -10.25753 -10.25695 -10.25655 -10.25471 -10.25261
 Alpha  occ. eigenvalues --  -10.24770 -10.22753 -10.22591  -1.18351  -1.17392
 Alpha  occ. eigenvalues --   -1.15133  -1.12489  -1.11986  -1.11748  -1.11358
 Alpha  occ. eigenvalues --   -1.11265  -1.10479  -1.06890  -1.05584  -1.00552
 Alpha  occ. eigenvalues --   -1.00416  -1.00145  -0.99855  -0.97808  -0.94315
 Alpha  occ. eigenvalues --   -0.93809  -0.88407  -0.87928  -0.87348  -0.86495
 Alpha  occ. eigenvalues --   -0.84808  -0.83709  -0.83598  -0.83132  -0.81737
 Alpha  occ. eigenvalues --   -0.80347  -0.79874  -0.76459  -0.75232  -0.74532
 Alpha  occ. eigenvalues --   -0.73725  -0.73427  -0.72807  -0.72497  -0.71723
 Alpha  occ. eigenvalues --   -0.71116  -0.70493  -0.69726  -0.68594  -0.68013
 Alpha  occ. eigenvalues --   -0.67742  -0.66875  -0.65851  -0.65595  -0.65425
 Alpha  occ. eigenvalues --   -0.64875  -0.64581  -0.64008  -0.63360  -0.62712
 Alpha  occ. eigenvalues --   -0.62134  -0.61887  -0.59941  -0.59596  -0.58370
 Alpha  occ. eigenvalues --   -0.58253  -0.57556  -0.57206  -0.56753  -0.56304
 Alpha  occ. eigenvalues --   -0.56219  -0.55898  -0.55125  -0.54753  -0.54186
 Alpha  occ. eigenvalues --   -0.54068  -0.54012  -0.53438  -0.53209  -0.52797
 Alpha  occ. eigenvalues --   -0.52376  -0.52305  -0.51918  -0.51708  -0.51341
 Alpha  occ. eigenvalues --   -0.51240  -0.50823  -0.50731  -0.50500  -0.50266
 Alpha  occ. eigenvalues --   -0.50010  -0.49919  -0.49750  -0.49369  -0.49247
 Alpha  occ. eigenvalues --   -0.49041  -0.48929  -0.48127  -0.48017  -0.47203
 Alpha  occ. eigenvalues --   -0.46870  -0.46587  -0.46457  -0.46205  -0.45959
 Alpha  occ. eigenvalues --   -0.45798  -0.45558  -0.45444  -0.45160  -0.44781
 Alpha  occ. eigenvalues --   -0.44379  -0.44288  -0.43625  -0.43529  -0.43445
 Alpha  occ. eigenvalues --   -0.43271  -0.42754  -0.42552  -0.42209  -0.41870
 Alpha  occ. eigenvalues --   -0.41571  -0.40935  -0.40600  -0.40476  -0.40287
 Alpha  occ. eigenvalues --   -0.39403  -0.38541  -0.38269  -0.38228  -0.36736
 Alpha  occ. eigenvalues --   -0.36612  -0.34991  -0.34839  -0.34513  -0.34192
 Alpha  occ. eigenvalues --   -0.33633  -0.33413  -0.33202  -0.33154  -0.33005
 Alpha  occ. eigenvalues --   -0.32621  -0.31976  -0.31267
 Alpha virt. eigenvalues --   -0.11923  -0.09462  -0.08662  -0.08293  -0.07184
 Alpha virt. eigenvalues --   -0.06367  -0.05867  -0.05489  -0.04889  -0.04618
 Alpha virt. eigenvalues --   -0.03649  -0.01902  -0.01327  -0.00970  -0.00049

 Mulliken charges:
               1
     1  N   -0.810474
     2  H    0.401208
     3  H    0.460503
     4  H    0.431060
     5  C   -0.084042
     6  H    0.194561
     7  C    0.645243
     8  C   -0.117684
     9  H    0.190704
    10  O   -0.547594
    11  C   -0.481699
    12  H    0.150384
    13  H    0.187460
    14  H    0.184851
    15  C   -0.463171
    16  H    0.162275
    17  H    0.134097
    18  H    0.192598
    19  N   -0.576858
    20  H    0.361958
    21  C   -0.080341
    22  H    0.203382
    23  C    0.634274
    24  C   -0.068888
    25  H    0.172549
    26  H    0.169852
    27  O   -0.519403
    28  O   -0.635454
    29  H    0.415712
    30  N   -0.644148
    31  H    0.390425
    32  C   -0.027797
    33  H    0.184299
    34  C    0.616810
    35  C   -0.481237
    36  H    0.183912
    37  H    0.144589
    38  H    0.195859
    39  O   -0.545077
    40  N   -0.576759
    41  H    0.346638
    42  C   -0.097064
    43  H    0.186243
    44  C    0.628264
    45  C   -0.271565
    46  H    0.151755
    47  H    0.146996
    48  O   -0.547006
    49  C   -0.064154
    50  H    0.133963
    51  C   -0.445011
    52  H    0.144664
    53  H    0.151664
    54  H    0.146213
    55  C   -0.463604
    56  H    0.140056
    57  H    0.152380
    58  H    0.159374
    59  N   -0.618399
    60  H    0.362383
    61  C   -0.028453
    62  H    0.190518
    63  C    0.616112
    64  C   -0.398825
    65  H    0.202626
    66  H    0.161351
    67  O   -0.536327
    68  C    0.161601
    69  C   -0.188634
    70  H    0.163704
    71  C   -0.212481
    72  H    0.198109
    73  C   -0.213247
    74  H    0.163566
    75  C   -0.190535
    76  H    0.140606
    77  O   -0.706307
    78  H    0.431646
    79  C    0.349543
    80  N   -0.616606
    81  H    0.350782
    82  C   -0.038988
    83  H    0.189563
    84  C    0.566415
    85  C   -0.282514
    86  H    0.180082
    87  H    0.135614
    88  O   -0.612579
    89  C   -0.282983
    90  H    0.163496
    91  H    0.139654
    92  C   -0.272497
    93  H    0.157316
    94  H    0.146292
    95  C   -0.144394
    96  H    0.151568
    97  H    0.162729
    98  N   -0.774843
    99  H    0.340613
   100  H    0.328710
   101  H    0.491496
   102  O   -0.475227
 Sum of Mulliken charges =   1.00000

 Dipole moment (field-independent basis, Debye):
    X=              1.6711    Y=             14.9324    Z=             -1.0303  Tot=             15.0609
 Quadrupole moment (field-independent basis, Debye-Ang):
   XX=           -127.7323   YY=           -189.3922   ZZ=           -247.4796
   XY=            -35.3515   XZ=            -79.5957   YZ=             12.5970

 Normal termination of Gaussian 16 at Mon Jun 27 02:25:55 2022.
