 Gaussian 16, Revision C.01,
 Gaussian 16:  ES64L-G16RevC.01  3-Jul-2019

 ----------------------------------------------------------------------
 # B3LYP/6-31G* empiricaldispersion=gd3 guess=read geom=check nosymm in
 tegral(ultrafinegrid)
 ----------------------------------------------------------------------

 ------------------------------------------------------
 Candidate Structure: Conf:669 Charge calc in gas phase
 ------------------------------------------------------
 Structure from the checkpoint file:  "conf-669.chk"
 Charge =  1 Multiplicity = 1

                          Input orientation:
 ---------------------------------------------------------------------
 Center     Atomic      Atomic             Coordinates (Angstroms)
 Number     Number       Type             X           Y           Z
 ---------------------------------------------------------------------
      1          7           0       -9.017052    1.776010    4.958346
      2          1           0       -9.317519    1.515283    5.901670
      3          1           0       -9.831348    2.109407    4.434958
      4          1           0       -8.273799    2.531985    5.034120
      5          6           0       -8.262047    0.667463    4.243267
      6          1           0       -8.478423   -0.274232    4.753457
      7          6           0       -6.784771    1.106831    4.437206
      8          6           0       -8.708884    0.594985    2.759099
      9          1           0       -9.806225    0.507674    2.791646
     10          8           0       -6.581840    2.282107    4.769029
     11          6           0       -8.331409    1.861008    1.973881
     12          1           0       -7.244587    1.960066    1.885450
     13          1           0       -8.744951    1.802630    0.963327
     14          1           0       -8.711534    2.784975    2.427107
     15          6           0       -8.176690   -0.671731    2.070281
     16          1           0       -7.096618   -0.632894    1.898513
     17          1           0       -8.406876   -1.576188    2.645904
     18          1           0       -8.657525   -0.775624    1.093178
     19          7           0       -5.848527    0.184886    4.210938
     20          1           0       -6.099042   -0.699476    3.767519
     21          6           0       -4.428530    0.496253    4.033739
     22          1           0       -4.325241    1.578401    3.918904
     23          6           0       -3.992749   -0.266409    2.765801
     24          6           0       -3.604001    0.046991    5.261424
     25          1           0       -2.555159    0.309576    5.095264
     26          1           0       -3.663845   -1.048622    5.353545
     27          8           0       -4.716878   -1.159141    2.305784
     28          8           0       -4.008317    0.710922    6.437295
     29          1           0       -4.843418    0.319187    6.733493
     30          7           0       -2.799620    0.074779    2.270698
     31          1           0       -2.214224    0.799211    2.685749
     32          6           0       -2.168409   -0.599038    1.142684
     33          1           0       -2.236327   -1.681956    1.299108
     34          6           0       -0.691615   -0.153621    1.176356
     35          6           0       -2.838516   -0.233363   -0.192370
     36          1           0       -2.357357   -0.752210   -1.027322
     37          1           0       -2.767689    0.844766   -0.369002
     38          1           0       -3.891105   -0.525844   -0.161127
     39          8           0       -0.338771    0.779181    1.903107
     40          7           0        0.126553   -0.839785    0.360680
     41          1           0       -0.247237   -1.516690   -0.299226
     42          6           0        1.499857   -0.454377    0.070424
     43          1           0        1.618309    0.605704    0.311995
     44          6           0        1.720531   -0.712745   -1.428158
     45          6           0        2.530736   -1.310332    0.846147
     46          1           0        2.354704   -2.358652    0.568467
     47          1           0        3.536951   -1.061176    0.482635
     48          8           0        1.011775   -1.511010   -2.036737
     49          6           0        2.500454   -1.168127    2.377174
     50          1           0        1.480081   -1.388978    2.721595
     51          6           0        3.452333   -2.203694    2.995814
     52          1           0        4.485120   -2.024480    2.668816
     53          1           0        3.435780   -2.150025    4.090244
     54          1           0        3.182936   -3.225546    2.702376
     55          6           0        2.863199    0.251875    2.833702
     56          1           0        3.849362    0.543861    2.448601
     57          1           0        2.906976    0.305164    3.927658
     58          1           0        2.121421    0.983093    2.500287
     59          7           0        2.782391   -0.056258   -1.974419
     60          1           0        3.392345    0.422632   -1.318452
     61          6           0        3.532506   -0.647908   -3.081559
     62          1           0        2.847494   -1.298059   -3.629024
     63          6           0        4.680357   -1.464055   -2.450598
     64          6           0        4.108138    0.435423   -4.028579
     65          1           0        4.602770    1.202098   -3.421088
     66          1           0        3.271781    0.913021   -4.551568
     67          8           0        5.305301   -0.985729   -1.496723
     68          6           0        5.096135   -0.214512   -4.968167
     69          6           0        6.469407   -0.157028   -4.704375
     70          1           0        6.836691    0.514840   -3.932434
     71          6           0        4.644776   -1.091785   -5.965207
     72          1           0        3.583300   -1.134376   -6.203310
     73          6           0        7.362712   -1.011002   -5.350760
     74          1           0        8.421683   -1.009492   -5.112410
     75          6           0        5.525819   -1.951318   -6.612744
     76          1           0        5.168864   -2.663600   -7.350600
     77          8           0        7.754582   -2.876467   -6.772900
     78          1           0        7.340642   -3.750954   -6.659356
     79          6           0        6.882905   -1.951365   -6.264141
     80          7           0        4.922715   -2.687895   -2.970624
     81          1           0        4.509350   -2.945374   -3.861453
     82          6           0        6.098496   -3.451760   -2.581201
     83          1           0        6.832353   -2.731096   -2.222838
     84          6           0        6.698676   -4.161735   -3.795642
     85          6           0        5.798580   -4.497077   -1.472451
     86          1           0        4.816639   -4.927257   -1.699641
     87          1           0        6.521490   -5.318820   -1.541561
     88          8           0        7.957065   -4.548820   -3.622414
     89          6           0        5.816214   -3.921853   -0.046712
     90          1           0        5.197025   -4.561058    0.595903
     91          1           0        5.350530   -2.931059   -0.048623
     92          6           0        7.206341   -3.827433    0.609251
     93          1           0        7.067350   -3.432981    1.624033
     94          1           0        7.622103   -4.838776    0.737734
     95          6           0        8.260355   -2.944975   -0.080008
     96          1           0        8.989413   -2.611983    0.672645
     97          1           0        7.785118   -2.045441   -0.486589
     98          7           0        8.960160   -3.646816   -1.192918
     99          1           0        9.706214   -3.043948   -1.543438
    100          1           0        9.434607   -4.467281   -0.812263
    101          1           0        8.294732   -4.230521   -2.724406
    102          8           0        6.072434   -4.391336   -4.814211
 ---------------------------------------------------------------------

 SCF Done:  E(RB3LYP) =  -2312.22403681     A.U. after    1 cycles

 Alpha  occ. eigenvalues --  -19.27748 -19.24720 -19.22577 -19.21854 -19.20152
 Alpha  occ. eigenvalues --  -19.19177 -19.18952 -19.17865 -19.17563 -14.60880
 Alpha  occ. eigenvalues --  -14.50400 -14.46004 -14.43692 -14.42298 -14.41572
 Alpha  occ. eigenvalues --  -14.40745 -10.44547 -10.41440 -10.39658 -10.37158
 Alpha  occ. eigenvalues --  -10.36053 -10.35666 -10.35226 -10.34813 -10.34455
 Alpha  occ. eigenvalues --  -10.34193 -10.32484 -10.31018 -10.30226 -10.30099
 Alpha  occ. eigenvalues --  -10.29159 -10.28387 -10.27860 -10.27502 -10.26518
 Alpha  occ. eigenvalues --  -10.24749 -10.24656 -10.24546 -10.24330 -10.24210
 Alpha  occ. eigenvalues --  -10.23394 -10.23374 -10.23116 -10.23017 -10.22714
 Alpha  occ. eigenvalues --  -10.22472 -10.22316 -10.22058  -1.20276  -1.14924
 Alpha  occ. eigenvalues --   -1.14333  -1.13534  -1.12343  -1.12033  -1.10719
 Alpha  occ. eigenvalues --   -1.09176  -1.07512  -1.06834  -1.05439  -1.02605
 Alpha  occ. eigenvalues --   -1.00427  -0.99128  -0.98086  -0.96104  -0.95862
 Alpha  occ. eigenvalues --   -0.89645  -0.89537  -0.87583  -0.86244  -0.85613
 Alpha  occ. eigenvalues --   -0.84489  -0.83907  -0.81814  -0.80906  -0.80574
 Alpha  occ. eigenvalues --   -0.78599  -0.76880  -0.76789  -0.76039  -0.75260
 Alpha  occ. eigenvalues --   -0.74803  -0.74478  -0.73340  -0.72436  -0.71407
 Alpha  occ. eigenvalues --   -0.70252  -0.69891  -0.68677  -0.67772  -0.67380
 Alpha  occ. eigenvalues --   -0.66345  -0.65555  -0.65212  -0.64340  -0.63823
 Alpha  occ. eigenvalues --   -0.63561  -0.63493  -0.63160  -0.62778  -0.62354
 Alpha  occ. eigenvalues --   -0.61676  -0.60679  -0.60120  -0.59143  -0.58158
 Alpha  occ. eigenvalues --   -0.57303  -0.57249  -0.56949  -0.56065  -0.55874
 Alpha  occ. eigenvalues --   -0.55443  -0.55140  -0.54613  -0.54389  -0.53669
 Alpha  occ. eigenvalues --   -0.53341  -0.53165  -0.52661  -0.52504  -0.52335
 Alpha  occ. eigenvalues --   -0.51729  -0.51707  -0.51530  -0.50926  -0.50873
 Alpha  occ. eigenvalues --   -0.50676  -0.50026  -0.49707  -0.49515  -0.49144
 Alpha  occ. eigenvalues --   -0.48921  -0.48523  -0.48260  -0.48116  -0.47786
 Alpha  occ. eigenvalues --   -0.47723  -0.47650  -0.47460  -0.47233  -0.46686
 Alpha  occ. eigenvalues --   -0.46362  -0.46072  -0.45841  -0.45415  -0.45278
 Alpha  occ. eigenvalues --   -0.44598  -0.44468  -0.44375  -0.43724  -0.43532
 Alpha  occ. eigenvalues --   -0.43399  -0.43384  -0.43125  -0.42378  -0.42190
 Alpha  occ. eigenvalues --   -0.42146  -0.41626  -0.41213  -0.41043  -0.40009
 Alpha  occ. eigenvalues --   -0.39052  -0.38949  -0.38770  -0.38480  -0.38141
 Alpha  occ. eigenvalues --   -0.38014  -0.37946  -0.37887  -0.37404  -0.36138
 Alpha  occ. eigenvalues --   -0.35704  -0.35058  -0.34364  -0.33914  -0.33635
 Alpha  occ. eigenvalues --   -0.33235  -0.32983  -0.32184  -0.32111  -0.30694
 Alpha  occ. eigenvalues --   -0.30639  -0.29065  -0.25840
 Alpha virt. eigenvalues --   -0.13383  -0.11988  -0.08580  -0.07576  -0.05766
 Alpha virt. eigenvalues --   -0.05445  -0.05145  -0.04906  -0.03565  -0.03397
 Alpha virt. eigenvalues --   -0.02774  -0.02579  -0.01799  -0.01142  -0.00184

 Mulliken charges:
               1
     1  N   -0.759004
     2  H    0.417753
     3  H    0.414062
     4  H    0.436620
     5  C   -0.110329
     6  H    0.209002
     7  C    0.636554
     8  C   -0.111852
     9  H    0.159475
    10  O   -0.525789
    11  C   -0.468826
    12  H    0.185645
    13  H    0.196062
    14  H    0.142339
    15  C   -0.491624
    16  H    0.203398
    17  H    0.161748
    18  H    0.189939
    19  N   -0.601768
    20  H    0.375467
    21  C   -0.102842
    22  H    0.208751
    23  C    0.632754
    24  C   -0.035772
    25  H    0.182529
    26  H    0.149131
    27  O   -0.549714
    28  O   -0.586775
    29  H    0.394988
    30  N   -0.616081
    31  H    0.368821
    32  C   -0.045391
    33  H    0.186993
    34  C    0.622911
    35  C   -0.456702
    36  H    0.175154
    37  H    0.165913
    38  H    0.180979
    39  O   -0.541227
    40  N   -0.602381
    41  H    0.356865
    42  C   -0.081894
    43  H    0.183744
    44  C    0.610984
    45  C   -0.274700
    46  H    0.143704
    47  H    0.169672
    48  O   -0.528348
    49  C   -0.065906
    50  H    0.125446
    51  C   -0.448455
    52  H    0.147311
    53  H    0.147096
    54  H    0.141158
    55  C   -0.464946
    56  H    0.137757
    57  H    0.144612
    58  H    0.173395
    59  N   -0.583034
    60  H    0.343430
    61  C   -0.072112
    62  H    0.183219
    63  C    0.632541
    64  C   -0.347456
    65  H    0.153626
    66  H    0.164377
    67  O   -0.565455
    68  C    0.140935
    69  C   -0.185610
    70  H    0.133368
    71  C   -0.214420
    72  H    0.129687
    73  C   -0.166274
    74  H    0.138720
    75  C   -0.152596
    76  H    0.139590
    77  O   -0.672074
    78  H    0.426677
    79  C    0.361439
    80  N   -0.591881
    81  H    0.359481
    82  C   -0.069618
    83  H    0.188628
    84  C    0.616322
    85  C   -0.265001
    86  H    0.156568
    87  H    0.149313
    88  O   -0.609124
    89  C   -0.283158
    90  H    0.136553
    91  H    0.177718
    92  C   -0.266399
    93  H    0.149187
    94  H    0.133992
    95  C   -0.160398
    96  H    0.142237
    97  H    0.186665
    98  N   -0.774788
    99  H    0.333476
   100  H    0.327891
   101  H    0.470743
   102  O   -0.505396
 Sum of Mulliken charges =   1.00000

 Dipole moment (field-independent basis, Debye):
    X=            -28.6542    Y=              0.9972    Z=             19.7724  Tot=             34.8282
 Quadrupole moment (field-independent basis, Debye-Ang):
   XX=             91.8581   YY=           -274.1274   ZZ=           -225.6284
   XY=            -59.1341   XZ=           -130.3779   YZ=             -3.2111

 Normal termination of Gaussian 16 at Mon Jun 27 02:25:43 2022.
