 Gaussian 16, Revision C.01,
 Gaussian 16:  ES64L-G16RevC.01  3-Jul-2019

 ----------------------------------------------------------------------
 # B3LYP/6-31G* empiricaldispersion=gd3 guess=read geom=check nosymm in
 tegral(ultrafinegrid)
 ----------------------------------------------------------------------

 ------------------------------------------------------
 Candidate Structure: Conf:102 Charge calc in gas phase
 ------------------------------------------------------
 Structure from the checkpoint file:  "conf-102.chk"
 Charge =  1 Multiplicity = 1

                          Input orientation:
 ---------------------------------------------------------------------
 Center     Atomic      Atomic             Coordinates (Angstroms)
 Number     Number       Type             X           Y           Z
 ---------------------------------------------------------------------
      1          7           0       -5.573947    2.478826    6.095246
      2          1           0       -4.763328    2.806804    6.628025
      3          1           0       -6.260183    2.094051    6.749031
      4          1           0       -5.968598    3.298578    5.545723
      5          6           0       -5.203653    1.516116    4.979577
      6          1           0       -4.233163    1.071013    5.215895
      7          6           0       -5.118252    2.477386    3.761530
      8          6           0       -6.283437    0.413352    4.843758
      9          1           0       -7.241111    0.921178    4.657914
     10          8           0       -5.710370    3.564737    3.852859
     11          6           0       -5.983674   -0.510470    3.650684
     12          1           0       -4.996061   -0.978407    3.749189
     13          1           0       -6.724041   -1.314779    3.621703
     14          1           0       -6.023487    0.008606    2.691072
     15          6           0       -6.388444   -0.418995    6.134582
     16          1           0       -5.440576   -0.924964    6.352476
     17          1           0       -6.672694    0.161215    7.023305
     18          1           0       -7.157762   -1.187158    6.016367
     19          7           0       -4.418564    2.061669    2.715903
     20          1           0       -4.002038    1.130047    2.670823
     21          6           0       -4.314943    2.775166    1.449540
     22          1           0       -5.260076    3.277286    1.224036
     23          6           0       -3.971905    1.704466    0.408768
     24          6           0       -3.179552    3.848309    1.513633
     25          1           0       -2.255845    3.351375    1.840136
     26          1           0       -3.471513    4.581024    2.273540
     27          8           0       -3.614420    0.579871    0.771437
     28          8           0       -3.017005    4.509224    0.284442
     29          1           0       -2.317140    4.019235   -0.207728
     30          7           0       -4.007184    2.108037   -0.883693
     31          1           0       -4.094928    3.113827   -1.007178
     32          6           0       -3.129785    1.432384   -1.844988
     33          1           0       -3.402347    0.373786   -1.859741
     34          6           0       -1.678214    1.595633   -1.341574
     35          6           0       -3.291982    2.053286   -3.233358
     36          1           0       -2.659728    1.530677   -3.956920
     37          1           0       -2.990800    3.106715   -3.218877
     38          1           0       -4.332341    1.984266   -3.564543
     39          8           0       -1.306514    2.668415   -0.836972
     40          7           0       -0.879000    0.534092   -1.476398
     41          1           0       -1.199147   -0.317141   -1.928143
     42          6           0        0.501338    0.485909   -1.012776
     43          1           0        0.902011    1.502486   -1.036675
     44          6           0        1.263282   -0.433578   -1.975389
     45          6           0        0.606566   -0.118346    0.410220
     46          1           0        0.170556   -1.124935    0.360143
     47          1           0        1.669055   -0.259712    0.647710
     48          8           0        0.676288   -1.323713   -2.585551
     49          6           0       -0.084931    0.686208    1.526067
     50          1           0       -1.127759    0.852763    1.228684
     51          6           0       -0.100793   -0.143007    2.819205
     52          1           0        0.918554   -0.361749    3.160859
     53          1           0       -0.609300    0.401381    3.626291
     54          1           0       -0.618267   -1.099052    2.675205
     55          6           0        0.581689    2.048734    1.760008
     56          1           0        1.640532    1.926531    2.022106
     57          1           0        0.098493    2.580366    2.590432
     58          1           0        0.508655    2.688672    0.876660
     59          7           0        2.598536   -0.194392   -2.049550
     60          1           0        2.985736    0.429895   -1.350749
     61          6           0        3.529765   -1.215523   -2.497407
     62          1           0        2.955109   -1.928080   -3.096456
     63          6           0        4.084696   -1.935165   -1.243026
     64          6           0        4.651850   -0.591289   -3.369891
     65          1           0        4.161812   -0.097311   -4.216111
     66          1           0        5.268371   -1.394338   -3.789922
     67          8           0        3.781646   -1.572324   -0.109945
     68          6           0        5.520580    0.384263   -2.607128
     69          6           0        5.121239    1.717803   -2.425372
     70          1           0        4.207028    2.069605   -2.898075
     71          6           0        6.719714   -0.031512   -2.015112
     72          1           0        7.066847   -1.050985   -2.157551
     73          6           0        5.876622    2.603987   -1.663002
     74          1           0        5.572239    3.636980   -1.527953
     75          6           0        7.487504    0.845714   -1.250960
     76          1           0        8.416830    0.502166   -0.800520
     77          8           0        7.764742    3.075958   -0.326063
     78          1           0        8.571260    2.658417    0.014158
     79          6           0        7.064272    2.166215   -1.066047
     80          7           0        4.912076   -2.980802   -1.500767
     81          1           0        5.236581   -3.137617   -2.447480
     82          6           0        5.716093   -3.623777   -0.474036
     83          1           0        5.541178   -3.100811    0.466834
     84          6           0        7.188817   -3.523374   -0.841816
     85          6           0        5.328589   -5.129868   -0.327268
     86          1           0        4.401732   -5.159210    0.255487
     87          1           0        5.076222   -5.505680   -1.326965
     88          8           0        7.973566   -3.570204    0.225271
     89          6           0        6.397854   -6.050137    0.305319
     90          1           0        5.886850   -6.891323    0.787201
     91          1           0        6.916387   -5.510273    1.103020
     92          6           0        7.419631   -6.617423   -0.722328
     93          1           0        7.091841   -7.620806   -1.018006
     94          1           0        7.402627   -6.024763   -1.644880
     95          6           0        8.882407   -6.716741   -0.247052
     96          1           0        9.373203   -7.563853   -0.746542
     97          1           0        8.921494   -6.913457    0.830324
     98          7           0        9.637093   -5.460069   -0.498591
     99          1           0       10.590185   -5.543129   -0.147241
    100          1           0        9.705348   -5.297341   -1.503971
    101          1           0        8.807906   -4.127408   -0.021584
    102          8           0        7.575968   -3.525420   -2.003469
 ---------------------------------------------------------------------

 SCF Done:  E(RB3LYP) =  -2312.23573817     A.U. after    3 cycles

 Alpha  occ. eigenvalues --  -19.26857 -19.22580 -19.22250 -19.21985 -19.21259
 Alpha  occ. eigenvalues --  -19.20400 -19.18336 -19.18330 -19.17128 -14.60191
 Alpha  occ. eigenvalues --  -14.49660 -14.45178 -14.44151 -14.41935 -14.41351
 Alpha  occ. eigenvalues --  -14.40576 -10.43666 -10.40868 -10.38988 -10.37202
 Alpha  occ. eigenvalues --  -10.36048 -10.35246 -10.34883 -10.34207 -10.33945
 Alpha  occ. eigenvalues --  -10.32639 -10.32266 -10.31546 -10.30119 -10.30104
 Alpha  occ. eigenvalues --  -10.29452 -10.29073 -10.28269 -10.27727 -10.26670
 Alpha  occ. eigenvalues --  -10.25048 -10.24928 -10.24618 -10.24423 -10.24031
 Alpha  occ. eigenvalues --  -10.23832 -10.23817 -10.23756 -10.23629 -10.23473
 Alpha  occ. eigenvalues --  -10.23417 -10.23112 -10.22970  -1.19405  -1.14630
 Alpha  occ. eigenvalues --   -1.13924  -1.13584  -1.12005  -1.10295  -1.10278
 Alpha  occ. eigenvalues --   -1.09737  -1.08847  -1.06244  -1.05014  -1.02132
 Alpha  occ. eigenvalues --   -1.00543  -0.98899  -0.97972  -0.96021  -0.95551
 Alpha  occ. eigenvalues --   -0.90008  -0.88887  -0.87622  -0.86062  -0.85668
 Alpha  occ. eigenvalues --   -0.84281  -0.83821  -0.81757  -0.81331  -0.80503
 Alpha  occ. eigenvalues --   -0.79297  -0.77522  -0.75773  -0.75211  -0.74811
 Alpha  occ. eigenvalues --   -0.74273  -0.74155  -0.73790  -0.72324  -0.71211
 Alpha  occ. eigenvalues --   -0.70472  -0.69909  -0.68392  -0.68071  -0.67037
 Alpha  occ. eigenvalues --   -0.66690  -0.65838  -0.65655  -0.64786  -0.64160
 Alpha  occ. eigenvalues --   -0.63990  -0.63200  -0.62902  -0.62616  -0.61502
 Alpha  occ. eigenvalues --   -0.61160  -0.59427  -0.58907  -0.58706  -0.58363
 Alpha  occ. eigenvalues --   -0.58054  -0.57069  -0.56639  -0.56240  -0.55480
 Alpha  occ. eigenvalues --   -0.55235  -0.54865  -0.54326  -0.54065  -0.53561
 Alpha  occ. eigenvalues --   -0.53405  -0.53064  -0.52708  -0.52329  -0.52270
 Alpha  occ. eigenvalues --   -0.51693  -0.51352  -0.51182  -0.51092  -0.50802
 Alpha  occ. eigenvalues --   -0.50588  -0.50239  -0.49946  -0.49448  -0.49024
 Alpha  occ. eigenvalues --   -0.48836  -0.48658  -0.48421  -0.48185  -0.47796
 Alpha  occ. eigenvalues --   -0.47675  -0.47430  -0.47290  -0.46954  -0.46858
 Alpha  occ. eigenvalues --   -0.46660  -0.46302  -0.46258  -0.45532  -0.45379
 Alpha  occ. eigenvalues --   -0.45023  -0.44918  -0.44687  -0.44456  -0.44372
 Alpha  occ. eigenvalues --   -0.44010  -0.43160  -0.42331  -0.42067  -0.41963
 Alpha  occ. eigenvalues --   -0.41541  -0.41513  -0.41315  -0.41236  -0.40264
 Alpha  occ. eigenvalues --   -0.39457  -0.39024  -0.38928  -0.38785  -0.38649
 Alpha  occ. eigenvalues --   -0.38486  -0.38457  -0.37981  -0.37290  -0.36775
 Alpha  occ. eigenvalues --   -0.36335  -0.34983  -0.34816  -0.34168  -0.33343
 Alpha  occ. eigenvalues --   -0.32947  -0.32533  -0.32108  -0.31777  -0.30797
 Alpha  occ. eigenvalues --   -0.30142  -0.29725  -0.26315
 Alpha virt. eigenvalues --   -0.12684  -0.11233  -0.08795  -0.06777  -0.05999
 Alpha virt. eigenvalues --   -0.05199  -0.04792  -0.04522  -0.04020  -0.03533
 Alpha virt. eigenvalues --   -0.02717  -0.02003  -0.01437  -0.00530   0.00756

 Mulliken charges:
               1
     1  N   -0.758686
     2  H    0.417110
     3  H    0.410129
     4  H    0.433454
     5  C   -0.105595
     6  H    0.206989
     7  C    0.648250
     8  C   -0.109120
     9  H    0.170953
    10  O   -0.541050
    11  C   -0.476135
    12  H    0.169126
    13  H    0.189540
    14  H    0.186894
    15  C   -0.472087
    16  H    0.177722
    17  H    0.138073
    18  H    0.202745
    19  N   -0.604540
    20  H    0.378561
    21  C   -0.088418
    22  H    0.203581
    23  C    0.617440
    24  C   -0.039433
    25  H    0.161295
    26  H    0.168107
    27  O   -0.540288
    28  O   -0.641806
    29  H    0.446031
    30  N   -0.583604
    31  H    0.352982
    32  C   -0.062144
    33  H    0.182459
    34  C    0.655405
    35  C   -0.474774
    36  H    0.182159
    37  H    0.175132
    38  H    0.180654
    39  O   -0.579590
    40  N   -0.584830
    41  H    0.357896
    42  C   -0.089404
    43  H    0.182180
    44  C    0.623939
    45  C   -0.267421
    46  H    0.146512
    47  H    0.183675
    48  O   -0.532658
    49  C   -0.086497
    50  H    0.139674
    51  C   -0.441117
    52  H    0.158284
    53  H    0.107371
    54  H    0.142643
    55  C   -0.462208
    56  H    0.147093
    57  H    0.123651
    58  H    0.174720
    59  N   -0.579200
    60  H    0.347583
    61  C   -0.095059
    62  H    0.198466
    63  C    0.625506
    64  C   -0.365136
    65  H    0.169178
    66  H    0.157449
    67  O   -0.527225
    68  C    0.149608
    69  C   -0.206779
    70  H    0.131361
    71  C   -0.202858
    72  H    0.161114
    73  C   -0.156627
    74  H    0.143548
    75  C   -0.195028
    76  H    0.129527
    77  O   -0.639327
    78  H    0.410999
    79  C    0.352796
    80  N   -0.599941
    81  H    0.341805
    82  C   -0.033363
    83  H    0.199098
    84  C    0.594153
    85  C   -0.276900
    86  H    0.159518
    87  H    0.147712
    88  O   -0.597123
    89  C   -0.286406
    90  H    0.145092
    91  H    0.169650
    92  C   -0.292483
    93  H    0.151460
    94  H    0.162945
    95  C   -0.141378
    96  H    0.148288
    97  H    0.162608
    98  N   -0.778984
    99  H    0.332286
   100  H    0.342532
   101  H    0.455656
   102  O   -0.517146
 Sum of Mulliken charges =   1.00000

 Dipole moment (field-independent basis, Debye):
    X=            -11.8186    Y=             -0.8379    Z=             18.8555  Tot=             22.2691
 Quadrupole moment (field-independent basis, Debye-Ang):
   XX=            -59.5347   YY=           -238.3241   ZZ=           -140.8203
   XY=            -90.7622   XZ=           -117.6287   YZ=             36.8993

 Normal termination of Gaussian 16 at Mon Jun 27 02:26:38 2022.
