 Gaussian 16, Revision C.01,
 Gaussian 16:  ES64L-G16RevC.01  3-Jul-2019

 ----------------------------------------------------------------------
 # B3LYP/6-31G* empiricaldispersion=gd3 guess=read geom=check nosymm in
 tegral(ultrafinegrid)
 ----------------------------------------------------------------------

 ------------------------------------------------------
 Candidate Structure: Conf:270 Charge calc in gas phase
 ------------------------------------------------------
 Structure from the checkpoint file:  "conf-270.chk"
 Charge =  1 Multiplicity = 1

                          Input orientation:
 ---------------------------------------------------------------------
 Center     Atomic      Atomic             Coordinates (Angstroms)
 Number     Number       Type             X           Y           Z
 ---------------------------------------------------------------------
      1          7           0       -5.417340    4.959861    4.011638
      2          1           0       -5.547835    5.194880    4.999205
      3          1           0       -5.565673    5.805749    3.454385
      4          1           0       -4.434067    4.586273    3.871937
      5          6           0       -6.276181    3.793626    3.556430
      6          1           0       -7.002664    3.587993    4.346918
      7          6           0       -5.244585    2.646071    3.420384
      8          6           0       -6.999676    4.105155    2.224044
      9          1           0       -7.576415    3.197340    2.002580
     10          8           0       -4.041984    2.940800    3.482167
     11          6           0       -7.999117    5.260518    2.387602
     12          1           0       -7.500196    6.225608    2.553374
     13          1           0       -8.587736    5.373292    1.472869
     14          1           0       -8.694540    5.089106    3.216730
     15          6           0       -6.017068    4.336370    1.064582
     16          1           0       -5.377930    5.214471    1.228721
     17          1           0       -5.368910    3.471012    0.893599
     18          1           0       -6.576728    4.524591    0.144073
     19          7           0       -5.718387    1.420004    3.200819
     20          1           0       -6.717788    1.283566    3.100740
     21          6           0       -4.852132    0.261253    2.922181
     22          1           0       -3.920574    0.406756    3.477061
     23          6           0       -4.522653    0.183104    1.409955
     24          6           0       -5.528578   -1.033574    3.403993
     25          1           0       -6.486300   -1.160598    2.873544
     26          1           0       -5.735309   -0.948555    4.475577
     27          8           0       -4.885205   -0.776603    0.737728
     28          8           0       -4.677230   -2.136630    3.227218
     29          1           0       -4.635265   -2.306613    2.269985
     30          7           0       -3.837761    1.256016    0.916664
     31          1           0       -3.320170    1.794440    1.609013
     32          6           0       -3.096762    1.130301   -0.351732
     33          1           0       -3.681775    0.477811   -1.002576
     34          6           0       -1.748880    0.490670    0.041745
     35          6           0       -2.887126    2.503858   -0.985093
     36          1           0       -2.341229    2.405481   -1.928667
     37          1           0       -2.294093    3.138302   -0.317838
     38          1           0       -3.847907    2.987547   -1.189409
     39          8           0       -1.112559    0.990676    0.972223
     40          7           0       -1.402264   -0.625957   -0.622352
     41          1           0       -1.916148   -0.926191   -1.442852
     42          6           0       -0.249863   -1.446999   -0.280213
     43          1           0        0.371145   -0.861748    0.401616
     44          6           0        0.488698   -1.764678   -1.588696
     45          6           0       -0.687309   -2.781246    0.376062
     46          1           0       -1.149482   -3.396474   -0.407805
     47          1           0        0.219049   -3.312213    0.697551
     48          8           0       -0.138706   -1.877578   -2.644104
     49          6           0       -1.666704   -2.656749    1.556894
     50          1           0       -2.545847   -2.106828    1.192438
     51          6           0       -2.134524   -4.053520    1.993958
     52          1           0       -1.289511   -4.650602    2.359572
     53          1           0       -2.865865   -3.981770    2.806620
     54          1           0       -2.595331   -4.602690    1.163775
     55          6           0       -1.081555   -1.884741    2.747916
     56          1           0       -0.194519   -2.396347    3.143850
     57          1           0       -1.822961   -1.830550    3.553854
     58          1           0       -0.797920   -0.863503    2.476230
     59          7           0        1.814701   -1.971517   -1.475205
     60          1           0        2.314989   -1.836909   -0.601704
     61          6           0        2.648235   -2.362637   -2.597702
     62          1           0        2.122893   -3.133449   -3.171838
     63          6           0        3.952309   -2.912005   -2.000280
     64          6           0        2.927900   -1.152228   -3.539857
     65          1           0        3.424389   -0.374612   -2.948615
     66          1           0        1.947027   -0.770316   -3.841893
     67          8           0        4.330609   -2.546813   -0.886472
     68          6           0        3.760441   -1.527414   -4.741584
     69          6           0        5.130690   -1.231743   -4.798887
     70          1           0        5.589943   -0.667984   -3.990517
     71          6           0        3.204279   -2.274799   -5.787100
     72          1           0        2.142004   -2.510486   -5.772202
     73          6           0        5.925936   -1.670393   -5.851474
     74          1           0        6.991768   -1.471669   -5.871687
     75          6           0        3.990567   -2.730038   -6.846342
     76          1           0        3.542932   -3.317195   -7.646201
     77          8           0        6.192082   -2.882790   -7.860941
     78          1           0        5.675675   -3.385106   -8.510052
     79          6           0        5.358070   -2.437990   -6.873054
     80          7           0        4.633201   -3.774947   -2.788687
     81          1           0        4.293211   -3.954850   -3.726002
     82          6           0        6.009825   -4.179893   -2.510182
     83          1           0        6.405009   -3.511120   -1.744913
     84          6           0        6.859983   -4.022370   -3.761086
     85          6           0        6.078988   -5.651473   -2.031623
     86          1           0        5.665452   -5.670400   -1.016657
     87          1           0        5.403713   -6.243589   -2.660157
     88          8           0        7.924736   -3.435075   -3.775635
     89          6           0        7.487115   -6.297463   -2.038347
     90          1           0        7.491329   -7.059026   -1.251052
     91          1           0        8.234290   -5.553716   -1.731975
     92          6           0        7.926994   -6.982913   -3.371732
     93          1           0        8.269428   -7.995708   -3.132903
     94          1           0        7.048759   -7.109201   -4.015125
     95          6           0        9.042195   -6.279734   -4.194240
     96          1           0        9.927888   -6.927382   -4.252228
     97          1           0        9.350005   -5.352806   -3.707949
     98          7           0        8.580032   -5.899112   -5.557683
     99          1           0        9.284661   -5.318315   -6.010121
    100          1           0        8.469351   -6.732061   -6.135602
    101          1           0        7.157430   -5.021724   -5.349738
    102          8           0        6.355262   -4.717032   -4.785821
 ---------------------------------------------------------------------

 SCF Done:  E(RB3LYP) =  -2312.21253323     A.U. after    1 cycles

 Alpha  occ. eigenvalues --  -19.29217 -19.23315 -19.22995 -19.21802 -19.19990
 Alpha  occ. eigenvalues --  -19.18605 -19.17002 -19.16455 -19.16443 -14.61813
 Alpha  occ. eigenvalues --  -14.52677 -14.45856 -14.43211 -14.41324 -14.40750
 Alpha  occ. eigenvalues --  -14.38930 -10.45896 -10.42661 -10.39734 -10.36472
 Alpha  occ. eigenvalues --  -10.35979 -10.35277 -10.34309 -10.34203 -10.33860
 Alpha  occ. eigenvalues --  -10.33563 -10.32641 -10.31937 -10.31805 -10.29245
 Alpha  occ. eigenvalues --  -10.28811 -10.28480 -10.26913 -10.26876 -10.25635
 Alpha  occ. eigenvalues --  -10.24380 -10.24276 -10.23756 -10.23303 -10.23158
 Alpha  occ. eigenvalues --  -10.23126 -10.22850 -10.22838 -10.22722 -10.22699
 Alpha  occ. eigenvalues --  -10.22195 -10.22134 -10.21815  -1.21647  -1.15884
 Alpha  occ. eigenvalues --   -1.14801  -1.12014  -1.11066  -1.10667  -1.09791
 Alpha  occ. eigenvalues --   -1.09095  -1.08723  -1.08118  -1.03335  -1.02302
 Alpha  occ. eigenvalues --   -0.99566  -0.97866  -0.97247  -0.97227  -0.94208
 Alpha  occ. eigenvalues --   -0.90234  -0.89474  -0.87213  -0.86432  -0.84869
 Alpha  occ. eigenvalues --   -0.84493  -0.83453  -0.83144  -0.80680  -0.79301
 Alpha  occ. eigenvalues --   -0.78731  -0.76740  -0.76645  -0.75980  -0.75669
 Alpha  occ. eigenvalues --   -0.75085  -0.73424  -0.73331  -0.73008  -0.72823
 Alpha  occ. eigenvalues --   -0.71247  -0.70084  -0.68364  -0.67066  -0.66939
 Alpha  occ. eigenvalues --   -0.66215  -0.65870  -0.64559  -0.64389  -0.64016
 Alpha  occ. eigenvalues --   -0.63522  -0.63221  -0.62277  -0.61947  -0.61647
 Alpha  occ. eigenvalues --   -0.61425  -0.61186  -0.60010  -0.59718  -0.58431
 Alpha  occ. eigenvalues --   -0.58281  -0.57562  -0.57444  -0.56229  -0.54997
 Alpha  occ. eigenvalues --   -0.54678  -0.54454  -0.54155  -0.53948  -0.53511
 Alpha  occ. eigenvalues --   -0.53066  -0.52824  -0.52613  -0.52590  -0.51669
 Alpha  occ. eigenvalues --   -0.51458  -0.51124  -0.50766  -0.50751  -0.50269
 Alpha  occ. eigenvalues --   -0.50043  -0.49970  -0.49704  -0.49327  -0.49164
 Alpha  occ. eigenvalues --   -0.49042  -0.48839  -0.48628  -0.48186  -0.48122
 Alpha  occ. eigenvalues --   -0.47596  -0.47141  -0.46703  -0.46388  -0.46123
 Alpha  occ. eigenvalues --   -0.45597  -0.45186  -0.44979  -0.44803  -0.44558
 Alpha  occ. eigenvalues --   -0.44264  -0.43952  -0.43835  -0.43646  -0.43422
 Alpha  occ. eigenvalues --   -0.43130  -0.42955  -0.42779  -0.42478  -0.42420
 Alpha  occ. eigenvalues --   -0.41925  -0.41404  -0.40924  -0.40150  -0.39532
 Alpha  occ. eigenvalues --   -0.39038  -0.37920  -0.37769  -0.37668  -0.37563
 Alpha  occ. eigenvalues --   -0.37446  -0.37275  -0.37039  -0.36880  -0.36683
 Alpha  occ. eigenvalues --   -0.36467  -0.35360  -0.33700  -0.33067  -0.32193
 Alpha  occ. eigenvalues --   -0.32030  -0.31255  -0.31073  -0.30465  -0.30109
 Alpha  occ. eigenvalues --   -0.29120  -0.28229  -0.25517
 Alpha virt. eigenvalues --   -0.14763  -0.13075  -0.10209  -0.08328  -0.07128
 Alpha virt. eigenvalues --   -0.05096  -0.04480  -0.04411  -0.03830  -0.03405
 Alpha virt. eigenvalues --   -0.02965  -0.02512  -0.02279  -0.01176  -0.00929

 Mulliken charges:
               1
     1  N   -0.759593
     2  H    0.421989
     3  H    0.414780
     4  H    0.440537
     5  C   -0.106715
     6  H    0.215525
     7  C    0.667890
     8  C   -0.122411
     9  H    0.177541
    10  O   -0.542644
    11  C   -0.466704
    12  H    0.144923
    13  H    0.206168
    14  H    0.174395
    15  C   -0.492626
    16  H    0.142311
    17  H    0.206065
    18  H    0.198411
    19  N   -0.594466
    20  H    0.357023
    21  C   -0.116211
    22  H    0.228809
    23  C    0.634180
    24  C   -0.031618
    25  H    0.140855
    26  H    0.162733
    27  O   -0.512929
    28  O   -0.607559
    29  H    0.434153
    30  N   -0.601752
    31  H    0.363683
    32  C   -0.068372
    33  H    0.181481
    34  C    0.626543
    35  C   -0.461465
    36  H    0.181694
    37  H    0.169532
    38  H    0.152514
    39  O   -0.543848
    40  N   -0.581205
    41  H    0.350664
    42  C   -0.082931
    43  H    0.185115
    44  C    0.636245
    45  C   -0.259510
    46  H    0.149466
    47  H    0.149420
    48  O   -0.554448
    49  C   -0.079386
    50  H    0.114805
    51  C   -0.461460
    52  H    0.147648
    53  H    0.161231
    54  H    0.141184
    55  C   -0.483112
    56  H    0.141695
    57  H    0.143873
    58  H    0.174963
    59  N   -0.618552
    60  H    0.355162
    61  C   -0.037763
    62  H    0.172011
    63  C    0.610367
    64  C   -0.352243
    65  H    0.155385
    66  H    0.179274
    67  O   -0.542877
    68  C    0.142163
    69  C   -0.193927
    70  H    0.141197
    71  C   -0.211687
    72  H    0.139475
    73  C   -0.157343
    74  H    0.159236
    75  C   -0.189764
    76  H    0.122991
    77  O   -0.644640
    78  H    0.407994
    79  C    0.366528
    80  N   -0.610167
    81  H    0.357616
    82  C   -0.022758
    83  H    0.191913
    84  C    0.611639
    85  C   -0.266773
    86  H    0.156430
    87  H    0.147657
    88  O   -0.501725
    89  C   -0.290692
    90  H    0.146802
    91  H    0.158607
    92  C   -0.283571
    93  H    0.144933
    94  H    0.155645
    95  C   -0.160180
    96  H    0.141672
    97  H    0.193781
    98  N   -0.770581
    99  H    0.335688
   100  H    0.320601
   101  H    0.456229
   102  O   -0.624826
 Sum of Mulliken charges =   1.00000

 Dipole moment (field-independent basis, Debye):
    X=            -23.6829    Y=             12.8414    Z=              9.0492  Tot=             28.4195
 Quadrupole moment (field-independent basis, Debye-Ang):
   XX=            -62.3369   YY=           -137.3942   ZZ=           -180.9341
   XY=           -178.1974   XZ=           -135.9955   YZ=            114.0670

 Normal termination of Gaussian 16 at Mon Jun 27 02:25:47 2022.
