 Gaussian 16, Revision C.01,
 Gaussian 16:  ES64L-G16RevC.01  3-Jul-2019

 ----------------------------------------------------------------------
 # B3LYP/6-31G* empiricaldispersion=gd3 guess=read geom=check nosymm in
 tegral(ultrafinegrid)
 ----------------------------------------------------------------------

 ------------------------------------------------------
 Candidate Structure: Conf:746 Charge calc in gas phase
 ------------------------------------------------------
 Structure from the checkpoint file:  "conf-746.chk"
 Charge =  1 Multiplicity = 1

                          Input orientation:
 ---------------------------------------------------------------------
 Center     Atomic      Atomic             Coordinates (Angstroms)
 Number     Number       Type             X           Y           Z
 ---------------------------------------------------------------------
      1          7           0       -7.742061    3.127293   -0.774490
      2          1           0       -8.050544    4.103384   -0.744408
      3          1           0       -8.388081    2.592486   -1.361824
      4          1           0       -6.763163    3.101769   -1.165727
      5          6           0       -7.560117    2.519487    0.607635
      6          1           0       -8.176135    3.088517    1.308410
      7          6           0       -6.052684    2.731856    0.872273
      8          6           0       -7.999141    1.031672    0.589151
      9          1           0       -9.057075    1.052419    0.282170
     10          8           0       -5.323621    2.919658   -0.117807
     11          6           0       -7.193340    0.188944   -0.413415
     12          1           0       -6.145791    0.124374   -0.108425
     13          1           0       -7.602446   -0.825120   -0.438879
     14          1           0       -7.238059    0.574027   -1.441059
     15          6           0       -7.932066    0.425053    1.999970
     16          1           0       -6.894367    0.272004    2.309695
     17          1           0       -8.454030    1.046449    2.738865
     18          1           0       -8.423573   -0.552133    1.992296
     19          7           0       -5.654700    2.713293    2.141524
     20          1           0       -6.302618    2.385523    2.852547
     21          6           0       -4.250953    2.523089    2.499629
     22          1           0       -3.648150    3.308207    2.036852
     23          6           0       -3.784601    1.142048    1.960792
     24          6           0       -4.135729    2.620238    4.022173
     25          1           0       -4.302659    3.661517    4.335747
     26          1           0       -3.120455    2.325574    4.318002
     27          8           0       -4.595612    0.269118    1.646745
     28          8           0       -5.127241    1.750369    4.559276
     29          1           0       -5.094718    1.790697    5.526888
     30          7           0       -2.453458    1.017223    1.886253
     31          1           0       -1.833413    1.810551    2.038587
     32          6           0       -1.768070   -0.149795    1.345806
     33          1           0       -2.066515   -1.036928    1.917302
     34          6           0       -0.265437    0.129907    1.541623
     35          6           0       -2.090244   -0.357527   -0.147676
     36          1           0       -1.592650   -1.246008   -0.543877
     37          1           0       -1.737988    0.497587   -0.729858
     38          1           0       -3.169765   -0.473855   -0.264780
     39          8           0        0.125414    1.234558    1.910389
     40          7           0        0.574444   -0.903273    1.247802
     41          1           0        0.153187   -1.665708    0.729308
     42          6           0        1.930716   -0.589602    0.791422
     43          1           0        2.326845    0.170821    1.466457
     44          6           0        1.812888   -0.025595   -0.640905
     45          6           0        2.798896   -1.860709    0.819147
     46          1           0        2.737574   -2.283164    1.830911
     47          1           0        2.343911   -2.594505    0.138127
     48          8           0        0.908485   -0.401219   -1.385849
     49          6           0        4.280522   -1.671450    0.434871
     50          1           0        4.333860   -1.229371   -0.568434
     51          6           0        5.020479   -0.735886    1.402750
     52          1           0        5.001999   -1.138802    2.423641
     53          1           0        6.066474   -0.620315    1.101250
     54          1           0        4.585745    0.270045    1.440358
     55          6           0        4.975936   -3.039446    0.378804
     56          1           0        4.958288   -3.529400    1.360903
     57          1           0        6.024070   -2.932007    0.078586
     58          1           0        4.486258   -3.708400   -0.338833
     59          7           0        2.755119    0.876983   -0.999310
     60          1           0        3.570816    1.026973   -0.416294
     61          6           0        2.869769    1.375521   -2.353803
     62          1           0        2.234694    0.746908   -2.984372
     63          6           0        4.346559    1.260058   -2.765565
     64          6           0        2.400848    2.856333   -2.467048
     65          1           0        2.367180    3.125767   -3.529855
     66          1           0        3.164800    3.492532   -2.004243
     67          8           0        5.234331    1.165595   -1.915405
     68          6           0        1.065850    3.103302   -1.803104
     69          6           0        1.009426    3.633434   -0.507671
     70          1           0        1.933161    3.883325    0.007155
     71          6           0       -0.140418    2.771159   -2.428906
     72          1           0       -0.128429    2.342767   -3.428065
     73          6           0       -0.202210    3.840965    0.142217
     74          1           0       -0.236476    4.241680    1.149717
     75          6           0       -1.366420    2.975220   -1.792735
     76          1           0       -2.296075    2.717621   -2.296382
     77          8           0       -2.563202    3.739427    0.185800
     78          1           0       -3.331632    3.376582   -0.288200
     79          6           0       -1.395246    3.511607   -0.501847
     80          7           0        4.583614    1.314176   -4.092094
     81          1           0        3.832039    1.443094   -4.761098
     82          6           0        5.924669    1.363968   -4.654703
     83          1           0        6.520576    2.099447   -4.102331
     84          6           0        5.788780    1.787434   -6.108985
     85          6           0        6.658534   -0.000739   -4.573805
     86          1           0        7.718272    0.178483   -4.783502
     87          1           0        6.587866   -0.311880   -3.527131
     88          8           0        6.961155    1.901642   -6.711600
     89          6           0        6.127250   -1.126208   -5.491387
     90          1           0        5.030235   -1.080091   -5.533147
     91          1           0        6.357439   -2.073572   -4.991281
     92          6           0        6.720032   -1.198263   -6.931943
     93          1           0        7.672477   -0.655579   -6.951328
     94          1           0        6.968986   -2.244280   -7.141363
     95          6           0        5.828342   -0.679374   -8.092783
     96          1           0        4.883475   -0.288878   -7.709780
     97          1           0        5.584511   -1.505873   -8.774329
     98          7           0        6.470014    0.440657   -8.834166
     99          1           0        5.826412    0.806567   -9.534669
    100          1           0        6.823689    1.586815   -7.684563
    101          1           0        7.292010    0.104631   -9.335916
    102          8           0        4.701489    1.880882   -6.663195
 ---------------------------------------------------------------------

 SCF Done:  E(RB3LYP) =  -2312.23847851     A.U. after    1 cycles

 Alpha  occ. eigenvalues --  -19.27574 -19.25808 -19.24134 -19.21150 -19.20520
 Alpha  occ. eigenvalues --  -19.19414 -19.18367 -19.17260 -19.17103 -14.60590
 Alpha  occ. eigenvalues --  -14.49635 -14.44059 -14.42388 -14.41433 -14.41363
 Alpha  occ. eigenvalues --  -14.40193 -10.43955 -10.40628 -10.37707 -10.36110
 Alpha  occ. eigenvalues --  -10.35989 -10.34571 -10.34285 -10.34125 -10.33886
 Alpha  occ. eigenvalues --  -10.33779 -10.31027 -10.30712 -10.29057 -10.28978
 Alpha  occ. eigenvalues --  -10.28976 -10.28628 -10.28362 -10.26862 -10.25235
 Alpha  occ. eigenvalues --  -10.24884 -10.24815 -10.24625 -10.24549 -10.24406
 Alpha  occ. eigenvalues --  -10.24364 -10.24140 -10.24068 -10.23665 -10.23548
 Alpha  occ. eigenvalues --  -10.23393 -10.22318 -10.22086  -1.19686  -1.14503
 Alpha  occ. eigenvalues --   -1.13667  -1.13318  -1.12201  -1.11880  -1.11171
 Alpha  occ. eigenvalues --   -1.09457  -1.08618  -1.06229  -1.05067  -1.00821
 Alpha  occ. eigenvalues --   -0.99238  -0.98222  -0.97907  -0.95477  -0.94760
 Alpha  occ. eigenvalues --   -0.90986  -0.88763  -0.86979  -0.85326  -0.85251
 Alpha  occ. eigenvalues --   -0.83998  -0.83554  -0.80737  -0.80393  -0.80204
 Alpha  occ. eigenvalues --   -0.79898  -0.77919  -0.76109  -0.74866  -0.74506
 Alpha  occ. eigenvalues --   -0.74266  -0.73616  -0.73183  -0.72134  -0.71882
 Alpha  occ. eigenvalues --   -0.69834  -0.68943  -0.68253  -0.67971  -0.67284
 Alpha  occ. eigenvalues --   -0.65850  -0.65526  -0.65084  -0.64523  -0.64131
 Alpha  occ. eigenvalues --   -0.63823  -0.63515  -0.62633  -0.61828  -0.61762
 Alpha  occ. eigenvalues --   -0.61174  -0.60532  -0.59903  -0.59297  -0.57424
 Alpha  occ. eigenvalues --   -0.56899  -0.56066  -0.55770  -0.55574  -0.55324
 Alpha  occ. eigenvalues --   -0.54931  -0.54765  -0.54204  -0.53612  -0.53271
 Alpha  occ. eigenvalues --   -0.52834  -0.52752  -0.52589  -0.52196  -0.52069
 Alpha  occ. eigenvalues --   -0.51885  -0.51399  -0.50906  -0.50843  -0.50293
 Alpha  occ. eigenvalues --   -0.50060  -0.49655  -0.49583  -0.49318  -0.48996
 Alpha  occ. eigenvalues --   -0.48328  -0.48008  -0.47915  -0.47754  -0.47286
 Alpha  occ. eigenvalues --   -0.47082  -0.46937  -0.46669  -0.46500  -0.46458
 Alpha  occ. eigenvalues --   -0.46274  -0.45938  -0.45638  -0.45351  -0.45213
 Alpha  occ. eigenvalues --   -0.44630  -0.44449  -0.44246  -0.43839  -0.43423
 Alpha  occ. eigenvalues --   -0.43087  -0.42934  -0.42489  -0.42045  -0.41924
 Alpha  occ. eigenvalues --   -0.41821  -0.41574  -0.40995  -0.40921  -0.40347
 Alpha  occ. eigenvalues --   -0.39958  -0.39285  -0.38437  -0.38362  -0.38280
 Alpha  occ. eigenvalues --   -0.38200  -0.38137  -0.37737  -0.37635  -0.37368
 Alpha  occ. eigenvalues --   -0.35113  -0.34692  -0.34014  -0.33349  -0.32780
 Alpha  occ. eigenvalues --   -0.32473  -0.32002  -0.31756  -0.31058  -0.30683
 Alpha  occ. eigenvalues --   -0.30428  -0.30168  -0.27523
 Alpha virt. eigenvalues --   -0.13004  -0.11419  -0.07011  -0.06746  -0.06032
 Alpha virt. eigenvalues --   -0.05219  -0.05029  -0.04932  -0.04031  -0.03154
 Alpha virt. eigenvalues --   -0.03045  -0.02480  -0.01337  -0.00827   0.01030

 Mulliken charges:
               1
     1  N   -0.754472
     2  H    0.418085
     3  H    0.415370
     4  H    0.433280
     5  C   -0.126179
     6  H    0.208206
     7  C    0.694883
     8  C   -0.100968
     9  H    0.152292
    10  O   -0.572426
    11  C   -0.491703
    12  H    0.234146
    13  H    0.188458
    14  H    0.120454
    15  C   -0.498535
    16  H    0.225852
    17  H    0.146889
    18  H    0.185513
    19  N   -0.587727
    20  H    0.377432
    21  C   -0.117478
    22  H    0.233103
    23  C    0.647189
    24  C   -0.055450
    25  H    0.159213
    26  H    0.175120
    27  O   -0.541225
    28  O   -0.628684
    29  H    0.421746
    30  N   -0.617031
    31  H    0.372289
    32  C   -0.046221
    33  H    0.181294
    34  C    0.626497
    35  C   -0.470516
    36  H    0.166826
    37  H    0.190095
    38  H    0.169265
    39  O   -0.528131
    40  N   -0.586834
    41  H    0.336749
    42  C   -0.085479
    43  H    0.185423
    44  C    0.629606
    45  C   -0.268339
    46  H    0.153368
    47  H    0.140011
    48  O   -0.550194
    49  C   -0.095954
    50  H    0.147371
    51  C   -0.448406
    52  H    0.144828
    53  H    0.164862
    54  H    0.133487
    55  C   -0.444894
    56  H    0.143922
    57  H    0.152701
    58  H    0.142922
    59  N   -0.599431
    60  H    0.359581
    61  C   -0.063714
    62  H    0.184342
    63  C    0.634956
    64  C   -0.371166
    65  H    0.157330
    66  H    0.161480
    67  O   -0.546275
    68  C    0.186249
    69  C   -0.179902
    70  H    0.133743
    71  C   -0.165895
    72  H    0.131117
    73  C   -0.140900
    74  H    0.134766
    75  C   -0.202932
    76  H    0.115702
    77  O   -0.696496
    78  H    0.433328
    79  C    0.346875
    80  N   -0.618864
    81  H    0.351729
    82  C   -0.030496
    83  H    0.188227
    84  C    0.602442
    85  C   -0.270366
    86  H    0.161008
    87  H    0.175123
    88  O   -0.605219
    89  C   -0.286979
    90  H    0.141962
    91  H    0.147921
    92  C   -0.283035
    93  H    0.159728
    94  H    0.147303
    95  C   -0.160079
    96  H    0.183397
    97  H    0.144943
    98  N   -0.773024
    99  H    0.335365
   100  H    0.456938
   101  H    0.327636
   102  O   -0.510323
 Sum of Mulliken charges =   1.00000

 Dipole moment (field-independent basis, Debye):
    X=            -24.7947    Y=              8.7733    Z=             -3.5185  Tot=             26.5354
 Quadrupole moment (field-independent basis, Debye-Ang):
   XX=             -8.4081   YY=           -247.0079   ZZ=           -179.8760
   XY=           -104.0948   XZ=            -54.2597   YZ=             17.8115

 Normal termination of Gaussian 16 at Mon Jun 27 02:25:43 2022.
