 Gaussian 16, Revision C.01,
 Gaussian 16:  ES64L-G16RevC.01  3-Jul-2019

 ----------------------------------------------------------------------
 # B3LYP/6-31G* empiricaldispersion=gd3 guess=read geom=check nosymm in
 tegral(ultrafinegrid)
 ----------------------------------------------------------------------

 ------------------------------------------------------
 Candidate Structure: Conf:252 Charge calc in gas phase
 ------------------------------------------------------
 Structure from the checkpoint file:  "conf-252.chk"
 Charge =  1 Multiplicity = 1

                          Input orientation:
 ---------------------------------------------------------------------
 Center     Atomic      Atomic             Coordinates (Angstroms)
 Number     Number       Type             X           Y           Z
 ---------------------------------------------------------------------
      1          7           0       -7.185213   -0.748234    4.225682
      2          1           0       -7.057698   -1.728089    4.496157
      3          1           0       -8.186947   -0.568825    4.116430
      4          1           0       -6.761105   -0.141837    4.978977
      5          6           0       -6.375958   -0.358474    2.999166
      6          1           0       -6.203047   -1.258395    2.402531
      7          6           0       -5.071354    0.184061    3.645033
      8          6           0       -7.147188    0.701388    2.170155
      9          1           0       -7.313833    1.565255    2.829772
     10          8           0       -5.145322    0.590058    4.809735
     11          6           0       -6.318355    1.163037    0.959182
     12          1           0       -6.070203    0.317155    0.305326
     13          1           0       -6.909265    1.866548    0.366087
     14          1           0       -5.389493    1.666813    1.233656
     15          6           0       -8.504966    0.153853    1.693127
     16          1           0       -8.372474   -0.730767    1.059312
     17          1           0       -9.197812   -0.110277    2.504289
     18          1           0       -9.018271    0.915236    1.099375
     19          7           0       -3.965752    0.163616    2.893264
     20          1           0       -4.039555    0.001437    1.890167
     21          6           0       -2.735963    0.864627    3.262272
     22          1           0       -2.935405    1.449245    4.163440
     23          6           0       -2.351981    1.735975    2.057550
     24          6           0       -1.600205   -0.147730    3.559391
     25          1           0       -0.709899    0.405420    3.874270
     26          1           0       -1.343805   -0.684162    2.633172
     27          8           0       -2.827100    1.475087    0.943131
     28          8           0       -1.945411   -1.015087    4.614068
     29          1           0       -2.477828   -1.737694    4.250836
     30          7           0       -1.446075    2.701658    2.281774
     31          1           0       -1.062409    2.815458    3.212479
     32          6           0       -0.810958    3.475373    1.197180
     33          1           0       -1.576405    3.597347    0.424293
     34          6           0        0.366841    2.652511    0.613123
     35          6           0       -0.344648    4.828800    1.715618
     36          1           0        0.096516    5.403170    0.897962
     37          1           0        0.433700    4.705957    2.475059
     38          1           0       -1.184868    5.391418    2.133224
     39          8           0        1.533775    3.005369    0.759585
     40          7           0       -0.006528    1.506259   -0.007469
     41          1           0       -0.990935    1.339947   -0.185659
     42          6           0        0.972353    0.557618   -0.542652
     43          1           0        1.858968    0.652965    0.089845
     44          6           0        1.362949    0.954286   -1.981373
     45          6           0        0.430152   -0.871077   -0.463229
     46          1           0        0.177767   -1.064838    0.591183
     47          1           0       -0.500598   -0.929563   -1.042640
     48          8           0        0.947088    0.351895   -2.965743
     49          6           0        1.393952   -1.967031   -0.966549
     50          1           0        1.469243   -1.852266   -2.052584
     51          6           0        2.805956   -1.836066   -0.375908
     52          1           0        2.778223   -1.803353    0.722216
     53          1           0        3.418641   -2.698456   -0.663687
     54          1           0        3.323554   -0.943405   -0.742983
     55          6           0        0.796602   -3.349038   -0.669951
     56          1           0        0.731117   -3.527085    0.412427
     57          1           0        1.418270   -4.143276   -1.098299
     58          1           0       -0.211470   -3.450289   -1.091296
     59          7           0        2.204404    2.021231   -2.063491
     60          1           0        2.590173    2.378407   -1.196573
     61          6           0        2.966405    2.227635   -3.285497
     62          1           0        2.268110    2.392412   -4.111966
     63          6           0        3.806255    0.959227   -3.566016
     64          6           0        3.898742    3.455985   -3.139231
     65          1           0        4.465545    3.351210   -2.206135
     66          1           0        3.277481    4.355869   -3.055087
     67          8           0        4.388909    0.388795   -2.640231
     68          6           0        4.840617    3.509279   -4.318278
     69          6           0        6.141375    3.005297   -4.208325
     70          1           0        6.530814    2.743788   -3.227484
     71          6           0        4.355129    3.833586   -5.593208
     72          1           0        3.354459    4.249688   -5.697279
     73          6           0        6.908742    2.744132   -5.343311
     74          1           0        7.896268    2.299553   -5.269956
     75          6           0        5.109850    3.571864   -6.731748
     76          1           0        4.716280    3.775261   -7.723043
     77          8           0        7.073776    2.563989   -7.713998
     78          1           0        6.488422    1.959703   -8.207690
     79          6           0        6.369684    2.971665   -6.610451
     80          7           0        3.859853    0.545585   -4.853188
     81          1           0        3.492315    1.132302   -5.593394
     82          6           0        4.755252   -0.520390   -5.261251
     83          1           0        5.548576   -0.552971   -4.517158
     84          6           0        5.401494   -0.212794   -6.609988
     85          6           0        4.049169   -1.901581   -5.338558
     86          1           0        3.062201   -1.729390   -5.782001
     87          1           0        4.595729   -2.554367   -6.030279
     88          8           0        6.513971   -0.904989   -6.838190
     89          6           0        3.907743   -2.599010   -3.977110
     90          1           0        3.070091   -3.306675   -4.031806
     91          1           0        3.643339   -1.856598   -3.218497
     92          6           0        5.143780   -3.389327   -3.508912
     93          1           0        4.896638   -3.848727   -2.542804
     94          1           0        5.328325   -4.227927   -4.198390
     95          6           0        6.456265   -2.611441   -3.315231
     96          1           0        7.082826   -3.151553   -2.590513
     97          1           0        6.242846   -1.626327   -2.886424
     98          7           0        7.204277   -2.416620   -4.590161
     99          1           0        8.104142   -1.982909   -4.378237
    100          1           0        7.432369   -3.334117   -4.976446
    101          1           0        6.739701   -1.461469   -6.027165
    102          8           0        4.927205    0.556361   -7.426356
 ---------------------------------------------------------------------

 SCF Done:  E(RB3LYP) =  -2312.21435368     A.U. after    1 cycles

 Alpha  occ. eigenvalues --  -19.28701 -19.26183 -19.24680 -19.21337 -19.20106
 Alpha  occ. eigenvalues --  -19.18309 -19.17298 -19.17198 -19.16119 -14.61899
 Alpha  occ. eigenvalues --  -14.51702 -14.48782 -14.44019 -14.40769 -14.40325
 Alpha  occ. eigenvalues --  -14.40167 -10.45640 -10.42489 -10.41669 -10.37102
 Alpha  occ. eigenvalues --  -10.36395 -10.36164 -10.35736 -10.35432 -10.33959
 Alpha  occ. eigenvalues --  -10.33398 -10.33140 -10.32724 -10.31147 -10.29665
 Alpha  occ. eigenvalues --  -10.28346 -10.27455 -10.27240 -10.26871 -10.26861
 Alpha  occ. eigenvalues --  -10.25257 -10.24478 -10.24183 -10.23793 -10.23376
 Alpha  occ. eigenvalues --  -10.23060 -10.22987 -10.22669 -10.22599 -10.22531
 Alpha  occ. eigenvalues --  -10.22145 -10.21958 -10.21815  -1.21270  -1.16638
 Alpha  occ. eigenvalues --   -1.15750  -1.13829  -1.12943  -1.11904  -1.09227
 Alpha  occ. eigenvalues --   -1.08074  -1.07671  -1.06679  -1.04828  -1.04805
 Alpha  occ. eigenvalues --   -1.00387  -0.97506  -0.96949  -0.96936  -0.95503
 Alpha  occ. eigenvalues --   -0.90995  -0.89081  -0.87975  -0.86995  -0.85541
 Alpha  occ. eigenvalues --   -0.84863  -0.83317  -0.82910  -0.80912  -0.79870
 Alpha  occ. eigenvalues --   -0.78108  -0.77923  -0.76539  -0.76364  -0.75824
 Alpha  occ. eigenvalues --   -0.74933  -0.74194  -0.73623  -0.73551  -0.71970
 Alpha  occ. eigenvalues --   -0.71642  -0.70965  -0.69316  -0.68334  -0.67275
 Alpha  occ. eigenvalues --   -0.66557  -0.65635  -0.65037  -0.64708  -0.63952
 Alpha  occ. eigenvalues --   -0.63741  -0.63157  -0.62852  -0.62402  -0.62031
 Alpha  occ. eigenvalues --   -0.61277  -0.61008  -0.60353  -0.59914  -0.59096
 Alpha  occ. eigenvalues --   -0.58689  -0.58108  -0.57033  -0.56699  -0.56363
 Alpha  occ. eigenvalues --   -0.56148  -0.55473  -0.55427  -0.54811  -0.54084
 Alpha  occ. eigenvalues --   -0.53548  -0.53515  -0.53382  -0.53223  -0.52822
 Alpha  occ. eigenvalues --   -0.52311  -0.52169  -0.51412  -0.50729  -0.50649
 Alpha  occ. eigenvalues --   -0.50071  -0.49951  -0.49547  -0.49489  -0.49175
 Alpha  occ. eigenvalues --   -0.48865  -0.48754  -0.48577  -0.48129  -0.47728
 Alpha  occ. eigenvalues --   -0.47578  -0.47377  -0.47093  -0.46937  -0.46613
 Alpha  occ. eigenvalues --   -0.46281  -0.45923  -0.45520  -0.45225  -0.45117
 Alpha  occ. eigenvalues --   -0.44883  -0.44752  -0.44171  -0.43738  -0.43507
 Alpha  occ. eigenvalues --   -0.43087  -0.42882  -0.42756  -0.42492  -0.42203
 Alpha  occ. eigenvalues --   -0.42050  -0.41734  -0.41316  -0.40271  -0.39908
 Alpha  occ. eigenvalues --   -0.39268  -0.38855  -0.38657  -0.38444  -0.38361
 Alpha  occ. eigenvalues --   -0.38140  -0.38015  -0.37698  -0.37529  -0.37247
 Alpha  occ. eigenvalues --   -0.36921  -0.34813  -0.34497  -0.33162  -0.32729
 Alpha  occ. eigenvalues --   -0.32521  -0.31832  -0.31291  -0.30164  -0.29555
 Alpha  occ. eigenvalues --   -0.29185  -0.28531  -0.25535
 Alpha virt. eigenvalues --   -0.14671  -0.12612  -0.11004  -0.08117  -0.06717
 Alpha virt. eigenvalues --   -0.06244  -0.04548  -0.04178  -0.03903  -0.03440
 Alpha virt. eigenvalues --   -0.03280  -0.03015  -0.02482  -0.02225  -0.01782

 Mulliken charges:
               1
     1  N   -0.754740
     2  H    0.419082
     3  H    0.413108
     4  H    0.434309
     5  C   -0.109609
     6  H    0.205173
     7  C    0.636932
     8  C   -0.108746
     9  H    0.174022
    10  O   -0.518704
    11  C   -0.484477
    12  H    0.165189
    13  H    0.193092
    14  H    0.192899
    15  C   -0.476795
    16  H    0.179254
    17  H    0.141951
    18  H    0.207571
    19  N   -0.597481
    20  H    0.373134
    21  C   -0.105293
    22  H    0.211425
    23  C    0.643248
    24  C   -0.044133
    25  H    0.175281
    26  H    0.162078
    27  O   -0.558705
    28  O   -0.585959
    29  H    0.398843
    30  N   -0.588920
    31  H    0.351262
    32  C   -0.078165
    33  H    0.194882
    34  C    0.629222
    35  C   -0.461066
    36  H    0.192785
    37  H    0.176286
    38  H    0.159022
    39  O   -0.520731
    40  N   -0.625050
    41  H    0.360210
    42  C   -0.071455
    43  H    0.185181
    44  C    0.643796
    45  C   -0.273930
    46  H    0.115439
    47  H    0.141442
    48  O   -0.530047
    49  C   -0.083351
    50  H    0.176867
    51  C   -0.479875
    52  H    0.126190
    53  H    0.146953
    54  H    0.189156
    55  C   -0.446550
    56  H    0.126643
    57  H    0.150669
    58  H    0.134530
    59  N   -0.611330
    60  H    0.358157
    61  C   -0.020615
    62  H    0.162748
    63  C    0.642393
    64  C   -0.377758
    65  H    0.158624
    66  H    0.159743
    67  O   -0.565326
    68  C    0.147159
    69  C   -0.183945
    70  H    0.133321
    71  C   -0.210411
    72  H    0.124131
    73  C   -0.165957
    74  H    0.137870
    75  C   -0.151111
    76  H    0.138300
    77  O   -0.679544
    78  H    0.428355
    79  C    0.360342
    80  N   -0.586826
    81  H    0.352942
    82  C   -0.070941
    83  H    0.187294
    84  C    0.616905
    85  C   -0.261322
    86  H    0.160148
    87  H    0.144058
    88  O   -0.610084
    89  C   -0.287549
    90  H    0.133383
    91  H    0.192638
    92  C   -0.266435
    93  H    0.144485
    94  H    0.130835
    95  C   -0.163702
    96  H    0.137251
    97  H    0.193207
    98  N   -0.772588
    99  H    0.331296
   100  H    0.325409
   101  H    0.468994
   102  O   -0.507883
 Sum of Mulliken charges =   1.00000

 Dipole moment (field-independent basis, Debye):
    X=            -27.4669    Y=             -4.1032    Z=             16.5957  Tot=             32.3525
 Quadrupole moment (field-independent basis, Debye-Ang):
   XX=            -57.1640   YY=           -253.1697   ZZ=           -267.7365
   XY=            -17.7288   XZ=            -87.1589   YZ=             12.1121

 Normal termination of Gaussian 16 at Mon Jun 27 02:25:52 2022.
