 Gaussian 16, Revision C.01,
 Gaussian 16:  ES64L-G16RevC.01  3-Jul-2019

 ----------------------------------------------------------------------
 # B3LYP/6-31G* empiricaldispersion=gd3 guess=read geom=check nosymm in
 tegral(ultrafinegrid)
 ----------------------------------------------------------------------

 ------------------------------------------------------
 Candidate Structure: Conf:879 Charge calc in gas phase
 ------------------------------------------------------
 Structure from the checkpoint file:  "conf-879.chk"
 Charge =  1 Multiplicity = 1

                          Input orientation:
 ---------------------------------------------------------------------
 Center     Atomic      Atomic             Coordinates (Angstroms)
 Number     Number       Type             X           Y           Z
 ---------------------------------------------------------------------
      1          7           0       -6.895419    0.534839    4.779351
      2          1           0       -7.030584    0.860492    5.740224
      3          1           0       -7.612972   -0.163448    4.566429
      4          1           0       -6.968448    1.364110    4.125872
      5          6           0       -5.487319    0.035115    4.511780
      6          1           0       -5.005901   -0.146208    5.476216
      7          6           0       -4.839558    1.221651    3.760393
      8          6           0       -5.501593   -1.258112    3.658306
      9          1           0       -4.446254   -1.471458    3.449877
     10          8           0       -5.584095    2.097035    3.307054
     11          6           0       -6.090498   -2.433940    4.451771
     12          1           0       -7.164963   -2.310989    4.650387
     13          1           0       -5.988317   -3.357912    3.875665
     14          1           0       -5.582692   -2.577884    5.412034
     15          6           0       -6.193294   -1.060886    2.300629
     16          1           0       -7.256217   -0.800933    2.400818
     17          1           0       -5.696703   -0.293307    1.703232
     18          1           0       -6.149266   -1.995931    1.735820
     19          7           0       -3.505574    1.188840    3.637853
     20          1           0       -3.054738    0.312172    3.878116
     21          6           0       -2.826996    1.915747    2.565270
     22          1           0       -3.359112    2.853598    2.395063
     23          6           0       -2.848434    1.019989    1.312003
     24          6           0       -1.365215    2.230164    2.984835
     25          1           0       -0.847679    1.283453    3.208208
     26          1           0       -1.396597    2.824398    3.904008
     27          8           0       -3.090974   -0.183970    1.415499
     28          8           0       -0.698731    2.973556    1.999662
     29          1           0       -0.338446    2.348206    1.329881
     30          7           0       -2.549620    1.639174    0.144954
     31          1           0       -2.197356    2.591328    0.198551
     32          6           0       -2.068350    0.862516   -0.987726
     33          1           0       -2.643512   -0.067120   -1.010967
     34          6           0       -0.576839    0.531540   -0.764553
     35          6           0       -2.242720    1.646081   -2.297436
     36          1           0       -2.020892    1.016131   -3.163792
     37          1           0       -1.573616    2.509673   -2.328782
     38          1           0       -3.272965    2.001842   -2.385105
     39          8           0        0.090672    1.079772    0.125631
     40          7           0       -0.033933   -0.352298   -1.625220
     41          1           0       -0.590342   -0.677017   -2.406706
     42          6           0        1.425066   -0.492213   -1.755442
     43          1           0        1.826457   -0.395142   -0.745436
     44          6           0        1.909527    0.673138   -2.639295
     45          6           0        1.811286   -1.840210   -2.363290
     46          1           0        1.374027   -2.635781   -1.744743
     47          1           0        1.367317   -1.906445   -3.364042
     48          8           0        1.980049    0.556883   -3.863207
     49          6           0        3.335960   -2.049851   -2.485285
     50          1           0        3.735763   -1.265993   -3.139736
     51          6           0        4.043906   -1.970110   -1.123931
     52          1           0        3.616484   -2.689710   -0.412772
     53          1           0        5.108990   -2.200344   -1.229693
     54          1           0        3.976955   -0.971557   -0.675858
     55          6           0        3.621389   -3.394475   -3.166853
     56          1           0        3.251154   -4.234304   -2.563846
     57          1           0        4.699540   -3.533936   -3.306871
     58          1           0        3.147771   -3.446655   -4.153499
     59          7           0        2.208194    1.817367   -1.981924
     60          1           0        2.075850    1.856139   -0.979049
     61          6           0        2.711971    3.005211   -2.677479
     62          1           0        2.248276    3.002595   -3.669581
     63          6           0        4.249280    2.872497   -2.839726
     64          6           0        2.346998    4.282915   -1.915303
     65          1           0        2.846612    5.114686   -2.423569
     66          1           0        2.801895    4.241357   -0.919263
     67          8           0        5.030721    3.592847   -2.226060
     68          6           0        0.858693    4.541171   -1.817874
     69          6           0        0.100495    4.825889   -2.966826
     70          1           0        0.586763    4.832088   -3.939646
     71          6           0        0.198804    4.552856   -0.586503
     72          1           0        0.747430    4.345880    0.328113
     73          6           0       -1.256435    5.124045   -2.893395
     74          1           0       -1.833745    5.354926   -3.782874
     75          6           0       -1.164159    4.856093   -0.491778
     76          1           0       -1.635285    4.884073    0.488606
     77          8           0       -3.233125    5.435514   -1.630733
     78          1           0       -3.515025    5.585372   -0.715111
     79          6           0       -1.894411    5.147437   -1.646859
     80          7           0        4.628952    1.877783   -3.678449
     81          1           0        3.925229    1.278713   -4.105380
     82          6           0        6.017219    1.469157   -3.812836
     83          1           0        6.631898    2.331337   -4.083774
     84          6           0        6.122162    0.411580   -4.895662
     85          6           0        6.571697    0.850062   -2.485778
     86          1           0        6.764821    1.690495   -1.814424
     87          1           0        5.757319    0.266978   -2.038627
     88          8           0        7.301193    0.445054   -5.503682
     89          6           0        7.827065   -0.041641   -2.631266
     90          1           0        8.409394    0.025616   -1.705384
     91          1           0        8.468509    0.360443   -3.421389
     92          6           0        7.508470   -1.540724   -2.903990
     93          1           0        7.562965   -2.085133   -1.953422
     94          1           0        6.472968   -1.651980   -3.245638
     95          6           0        8.419790   -2.265389   -3.913530
     96          1           0        8.479932   -3.331422   -3.649644
     97          1           0        9.438920   -1.865470   -3.863038
     98          7           0        7.944079   -2.101876   -5.311360
     99          1           0        8.567518   -2.584388   -5.957005
    100          1           0        7.021377   -2.526138   -5.412634
    101          1           0        7.574584   -0.526133   -5.696491
    102          8           0        5.268425   -0.448259   -5.066057
 ---------------------------------------------------------------------

 SCF Done:  E(RB3LYP) =  -2312.24111823     A.U. after    1 cycles

 Alpha  occ. eigenvalues --  -19.28174 -19.24525 -19.23118 -19.22639 -19.22473
 Alpha  occ. eigenvalues --  -19.20431 -19.18392 -19.17407 -19.15836 -14.61051
 Alpha  occ. eigenvalues --  -14.50701 -14.45929 -14.45904 -14.43059 -14.39735
 Alpha  occ. eigenvalues --  -14.39612 -10.44690 -10.41413 -10.39464 -10.38828
 Alpha  occ. eigenvalues --  -10.35441 -10.35185 -10.34833 -10.34764 -10.34010
 Alpha  occ. eigenvalues --  -10.33113 -10.32965 -10.31545 -10.31504 -10.30746
 Alpha  occ. eigenvalues --  -10.30445 -10.29071 -10.27287 -10.27124 -10.26907
 Alpha  occ. eigenvalues --  -10.25557 -10.25506 -10.25469 -10.25455 -10.25016
 Alpha  occ. eigenvalues --  -10.25008 -10.24857 -10.24189 -10.23469 -10.23083
 Alpha  occ. eigenvalues --  -10.22984 -10.22815 -10.22399  -1.20543  -1.15151
 Alpha  occ. eigenvalues --   -1.14651  -1.13610  -1.12735  -1.12498  -1.11020
 Alpha  occ. eigenvalues --   -1.10445  -1.07616  -1.07318  -1.04101  -1.02787
 Alpha  occ. eigenvalues --   -1.02088  -0.99276  -0.96347  -0.95937  -0.95274
 Alpha  occ. eigenvalues --   -0.91791  -0.89548  -0.88088  -0.86466  -0.85115
 Alpha  occ. eigenvalues --   -0.84658  -0.84234  -0.82183  -0.81489  -0.81241
 Alpha  occ. eigenvalues --   -0.80083  -0.78412  -0.75954  -0.75219  -0.74796
 Alpha  occ. eigenvalues --   -0.74417  -0.74086  -0.73785  -0.73272  -0.72311
 Alpha  occ. eigenvalues --   -0.71770  -0.70573  -0.69497  -0.68506  -0.67935
 Alpha  occ. eigenvalues --   -0.67382  -0.66649  -0.66052  -0.65151  -0.64240
 Alpha  occ. eigenvalues --   -0.63623  -0.63255  -0.62668  -0.61772  -0.61376
 Alpha  occ. eigenvalues --   -0.61021  -0.60899  -0.60536  -0.59877  -0.59110
 Alpha  occ. eigenvalues --   -0.58605  -0.57943  -0.57158  -0.56998  -0.56157
 Alpha  occ. eigenvalues --   -0.55940  -0.55531  -0.54915  -0.54517  -0.54113
 Alpha  occ. eigenvalues --   -0.53692  -0.53517  -0.53133  -0.52777  -0.52499
 Alpha  occ. eigenvalues --   -0.52216  -0.51935  -0.51448  -0.51358  -0.51075
 Alpha  occ. eigenvalues --   -0.50830  -0.50224  -0.50132  -0.49631  -0.49346
 Alpha  occ. eigenvalues --   -0.49059  -0.48698  -0.48502  -0.48434  -0.47979
 Alpha  occ. eigenvalues --   -0.47877  -0.47842  -0.47742  -0.47549  -0.47107
 Alpha  occ. eigenvalues --   -0.46709  -0.46524  -0.46211  -0.46106  -0.45677
 Alpha  occ. eigenvalues --   -0.45418  -0.45237  -0.44951  -0.44458  -0.44010
 Alpha  occ. eigenvalues --   -0.43400  -0.43305  -0.42694  -0.42145  -0.42075
 Alpha  occ. eigenvalues --   -0.41941  -0.41371  -0.41195  -0.40984  -0.40759
 Alpha  occ. eigenvalues --   -0.40240  -0.39899  -0.38988  -0.38859  -0.38433
 Alpha  occ. eigenvalues --   -0.38269  -0.37835  -0.37685  -0.37470  -0.37203
 Alpha  occ. eigenvalues --   -0.36990  -0.36754  -0.36002  -0.34790  -0.33783
 Alpha  occ. eigenvalues --   -0.33435  -0.31976  -0.31886  -0.31514  -0.30944
 Alpha  occ. eigenvalues --   -0.29122  -0.29068  -0.28091
 Alpha virt. eigenvalues --   -0.13666  -0.12223  -0.08961  -0.08264  -0.07692
 Alpha virt. eigenvalues --   -0.07345  -0.05700  -0.05510  -0.04989  -0.03476
 Alpha virt. eigenvalues --   -0.03207  -0.02112  -0.01691  -0.01318  -0.01194

 Mulliken charges:
               1
     1  N   -0.756887
     2  H    0.419251
     3  H    0.413942
     4  H    0.434873
     5  C   -0.117386
     6  H    0.210505
     7  C    0.658804
     8  C   -0.123426
     9  H    0.200353
    10  O   -0.530158
    11  C   -0.465248
    12  H    0.138539
    13  H    0.202385
    14  H    0.170388
    15  C   -0.473202
    16  H    0.129397
    17  H    0.204003
    18  H    0.195420
    19  N   -0.566291
    20  H    0.354030
    21  C   -0.123822
    22  H    0.203778
    23  C    0.620738
    24  C   -0.036030
    25  H    0.143688
    26  H    0.171862
    27  O   -0.546489
    28  O   -0.649236
    29  H    0.456696
    30  N   -0.591156
    31  H    0.361720
    32  C   -0.085946
    33  H    0.193978
    34  C    0.662456
    35  C   -0.481007
    36  H    0.163715
    37  H    0.201061
    38  H    0.183885
    39  O   -0.574395
    40  N   -0.592768
    41  H    0.347040
    42  C   -0.065819
    43  H    0.178756
    44  C    0.629601
    45  C   -0.270614
    46  H    0.136264
    47  H    0.157015
    48  O   -0.538394
    49  C   -0.103283
    50  H    0.184710
    51  C   -0.461756
    52  H    0.137221
    53  H    0.156699
    54  H    0.139622
    55  C   -0.445657
    56  H    0.135575
    57  H    0.141327
    58  H    0.154973
    59  N   -0.599760
    60  H    0.351223
    61  C   -0.069196
    62  H    0.185957
    63  C    0.637477
    64  C   -0.388123
    65  H    0.187926
    66  H    0.167113
    67  O   -0.529713
    68  C    0.183909
    69  C   -0.185587
    70  H    0.144892
    71  C   -0.211735
    72  H    0.149769
    73  C   -0.167210
    74  H    0.153559
    75  C   -0.239005
    76  H    0.132516
    77  O   -0.640379
    78  H    0.406321
    79  C    0.352891
    80  N   -0.657143
    81  H    0.386951
    82  C    0.020742
    83  H    0.183545
    84  C    0.563506
    85  C   -0.301678
    86  H    0.181764
    87  H    0.147144
    88  O   -0.598063
    89  C   -0.287875
    90  H    0.143576
    91  H    0.171672
    92  C   -0.303787
    93  H    0.145798
    94  H    0.174131
    95  C   -0.140046
    96  H    0.141015
    97  H    0.163070
    98  N   -0.776607
    99  H    0.330048
   100  H    0.339434
   101  H    0.454493
   102  O   -0.499841
 Sum of Mulliken charges =   1.00000

 Dipole moment (field-independent basis, Debye):
    X=            -21.0922    Y=             -3.9958    Z=             16.3157  Tot=             26.9638
 Quadrupole moment (field-independent basis, Debye-Ang):
   XX=            -84.2216   YY=           -274.7149   ZZ=           -183.1915
   XY=            -36.3563   XZ=           -133.6890   YZ=             17.9105

 Normal termination of Gaussian 16 at Mon Jun 27 02:25:43 2022.
