 Gaussian 16, Revision C.01,
 Gaussian 16:  ES64L-G16RevC.01  3-Jul-2019

 ----------------------------------------------------------------------
 # B3LYP/6-31G* empiricaldispersion=gd3 guess=read geom=check nosymm in
 tegral(ultrafinegrid)
 ----------------------------------------------------------------------

 ------------------------------------------------------
 Candidate Structure: Conf:607 Charge calc in gas phase
 ------------------------------------------------------
 Structure from the checkpoint file:  "conf-607.chk"
 Charge =  1 Multiplicity = 1

                          Input orientation:
 ---------------------------------------------------------------------
 Center     Atomic      Atomic             Coordinates (Angstroms)
 Number     Number       Type             X           Y           Z
 ---------------------------------------------------------------------
      1          7           0       -9.642984    3.656570    2.647386
      2          1           0      -10.510742    3.657972    3.187223
      3          1           0       -9.860010    3.913353    1.679158
      4          1           0       -8.937190    4.353677    3.025928
      5          6           0       -8.873012    2.349649    2.722067
      6          1           0       -9.214992    1.846893    3.632253
      7          6           0       -7.414365    2.840527    2.945187
      8          6           0       -9.124112    1.450227    1.495154
      9          1           0       -8.598852    0.511480    1.714067
     10          8           0       -7.244875    4.036190    3.224756
     11          6           0      -10.618814    1.117255    1.359346
     12          1           0      -11.212251    1.997561    1.077644
     13          1           0      -10.766837    0.374573    0.570589
     14          1           0      -11.032987    0.706056    2.287226
     15          6           0       -8.536069    2.028759    0.198344
     16          1           0       -8.969822    3.004263   -0.064857
     17          1           0       -7.449365    2.136606    0.257196
     18          1           0       -8.755376    1.356929   -0.635999
     19          7           0       -6.455243    1.926929    2.837338
     20          1           0       -6.631369    1.032150    2.369717
     21          6           0       -5.039159    2.269017    2.752648
     22          1           0       -4.932191    3.249723    2.273522
     23          6           0       -4.436237    1.177622    1.831362
     24          6           0       -4.372740    2.368208    4.132721
     25          1           0       -4.289365    1.367750    4.581193
     26          1           0       -4.999938    2.993128    4.783448
     27          8           0       -5.198593    0.373993    1.271164
     28          8           0       -3.104646    2.967326    3.903389
     29          1           0       -2.519493    2.795672    4.656154
     30          7           0       -3.110311    1.189750    1.703157
     31          1           0       -2.545103    1.842000    2.249199
     32          6           0       -2.387159    0.260198    0.846413
     33          1           0       -2.784616   -0.748910    1.006726
     34          6           0       -0.911205    0.320297    1.279854
     35          6           0       -2.535244    0.635369   -0.640924
     36          1           0       -1.968645   -0.045711   -1.283243
     37          1           0       -2.162984    1.651233   -0.808664
     38          1           0       -3.590780    0.589494   -0.921486
     39          8           0       -0.508627    1.203929    2.036977
     40          7           0       -0.131242   -0.643623    0.736048
     41          1           0       -0.523679   -1.194942   -0.026607
     42          6           0        1.306208   -0.477289    0.552651
     43          1           0        1.576678    0.532140    0.873513
     44          6           0        1.564626   -0.650569   -0.963105
     45          6           0        2.134609   -1.525547    1.325071
     46          1           0        1.869368   -2.516593    0.929967
     47          1           0        3.196102   -1.370610    1.084419
     48          8           0        0.715431   -1.191053   -1.676844
     49          6           0        1.946277   -1.516783    2.851418
     50          1           0        0.887298   -1.724943    3.058173
     51          6           0        2.784734   -2.642097    3.478853
     52          1           0        3.855519   -2.435577    3.335951
     53          1           0        2.604069   -2.719514    4.557473
     54          1           0        2.554029   -3.615870    3.024910
     55          6           0        2.303334   -0.162778    3.481564
     56          1           0        3.327766    0.132258    3.216657
     57          1           0        2.245931   -0.217123    4.575451
     58          1           0        1.617937    0.622795    3.151898
     59          7           0        2.764906   -0.210034   -1.380705
     60          1           0        3.454407    0.058021   -0.683125
     61          6           0        3.404777   -0.644945   -2.621554
     62          1           0        2.706184   -1.294814   -3.152380
     63          6           0        4.667539   -1.422261   -2.178854
     64          6           0        3.760890    0.571753   -3.520766
     65          1           0        4.406466    1.248224   -2.947254
     66          1           0        2.825911    1.103686   -3.735350
     67          8           0        5.248671   -1.046947   -1.143063
     68          6           0        4.446054    0.078469   -4.769239
     69          6           0        5.842604   -0.015424   -4.820791
     70          1           0        6.439832    0.475277   -4.054294
     71          6           0        3.694918   -0.554284   -5.769355
     72          1           0        2.608695   -0.472586   -5.754774
     73          6           0        6.466051   -0.825010   -5.765282
     74          1           0        7.539912   -0.983014   -5.751348
     75          6           0        4.311397   -1.366423   -6.718243
     76          1           0        3.732131   -1.930937   -7.442334
     77          8           0        6.262143   -2.581754   -7.387605
     78          1           0        6.364331   -3.301629   -6.703287
     79          6           0        5.693816   -1.575408   -6.660747
     80          7           0        5.049458   -2.472283   -2.918897
     81          1           0        4.659571   -2.641126   -3.850125
     82          6           0        6.356490   -3.117245   -2.772231
     83          1           0        7.090379   -2.355396   -2.489384
     84          6           0        6.812789   -3.749010   -4.143495
     85          6           0        6.367773   -4.237479   -1.726111
     86          1           0        5.633593   -5.001829   -2.018121
     87          1           0        7.361184   -4.696396   -1.796278
     88          8           0        7.991298   -4.129205   -4.161419
     89          6           0        6.092704   -3.780891   -0.290746
     90          1           0        5.066944   -3.406629   -0.200072
     91          1           0        6.743693   -2.935567   -0.040254
     92          6           0        6.316773   -4.927819    0.708865
     93          1           0        5.655983   -5.771802    0.462283
     94          1           0        7.352632   -5.287320    0.625763
     95          6           0        6.044316   -4.453655    2.123349
     96          1           0        5.005054   -4.155230    2.278392
     97          1           0        6.699761   -3.631627    2.421681
     98          7           0        6.310469   -5.587489    3.130619
     99          1           0        6.129776   -5.308454    4.102128
    100          1           0        5.719533   -6.399577    2.916656
    101          1           0        7.286393   -5.900848    3.064482
    102          8           0        5.908941   -3.819203   -5.030023
 ---------------------------------------------------------------------

 SCF Done:  E(RB3LYP) =  -2312.13581080     A.U. after    2 cycles

 Alpha  occ. eigenvalues --  -19.27586 -19.25630 -19.22044 -19.19713 -19.17317
 Alpha  occ. eigenvalues --  -19.14041 -19.11681 -19.06948 -19.05628 -14.62043
 Alpha  occ. eigenvalues --  -14.60607 -14.49686 -14.44790 -14.42635 -14.40517
 Alpha  occ. eigenvalues --  -14.36823 -10.44171 -10.41216 -10.38936 -10.38234
 Alpha  occ. eigenvalues --  -10.36527 -10.35141 -10.34786 -10.34593 -10.34192
 Alpha  occ. eigenvalues --  -10.31616 -10.31601 -10.31072 -10.30840 -10.29850
 Alpha  occ. eigenvalues --  -10.29625 -10.26305 -10.26169 -10.26063 -10.25554
 Alpha  occ. eigenvalues --  -10.25420 -10.24697 -10.24556 -10.23388 -10.22653
 Alpha  occ. eigenvalues --  -10.21871 -10.21597 -10.21197 -10.19314 -10.19023
 Alpha  occ. eigenvalues --  -10.18773 -10.17841 -10.17523  -1.19987  -1.15851
 Alpha  occ. eigenvalues --   -1.14659  -1.13899  -1.12728  -1.11412  -1.08997
 Alpha  occ. eigenvalues --   -1.06546  -1.05453  -1.01662  -1.00734  -0.99609
 Alpha  occ. eigenvalues --   -0.99528  -0.97226  -0.95982  -0.93264  -0.91386
 Alpha  occ. eigenvalues --   -0.91008  -0.89394  -0.88338  -0.86320  -0.85449
 Alpha  occ. eigenvalues --   -0.84387  -0.82790  -0.82509  -0.81799  -0.79504
 Alpha  occ. eigenvalues --   -0.76923  -0.76895  -0.75513  -0.75201  -0.74510
 Alpha  occ. eigenvalues --   -0.74507  -0.74361  -0.74323  -0.74177  -0.73435
 Alpha  occ. eigenvalues --   -0.72358  -0.71650  -0.69998  -0.69056  -0.67698
 Alpha  occ. eigenvalues --   -0.66881  -0.66345  -0.65220  -0.64505  -0.63719
 Alpha  occ. eigenvalues --   -0.63495  -0.63054  -0.62938  -0.61825  -0.61215
 Alpha  occ. eigenvalues --   -0.60665  -0.60167  -0.59074  -0.58721  -0.58546
 Alpha  occ. eigenvalues --   -0.58123  -0.57785  -0.57587  -0.57202  -0.55717
 Alpha  occ. eigenvalues --   -0.55489  -0.54943  -0.54470  -0.53909  -0.53224
 Alpha  occ. eigenvalues --   -0.52888  -0.52604  -0.52311  -0.52107  -0.51770
 Alpha  occ. eigenvalues --   -0.51647  -0.51451  -0.51167  -0.50839  -0.50318
 Alpha  occ. eigenvalues --   -0.49637  -0.49358  -0.49135  -0.48689  -0.48631
 Alpha  occ. eigenvalues --   -0.48127  -0.48076  -0.47975  -0.47691  -0.47207
 Alpha  occ. eigenvalues --   -0.46834  -0.46451  -0.46281  -0.45897  -0.45593
 Alpha  occ. eigenvalues --   -0.45109  -0.44839  -0.44718  -0.44383  -0.44119
 Alpha  occ. eigenvalues --   -0.43614  -0.43387  -0.43013  -0.42630  -0.42459
 Alpha  occ. eigenvalues --   -0.41963  -0.41843  -0.41609  -0.40109  -0.39961
 Alpha  occ. eigenvalues --   -0.39646  -0.39602  -0.39432  -0.39312  -0.39068
 Alpha  occ. eigenvalues --   -0.38269  -0.38003  -0.37831  -0.37003  -0.36522
 Alpha  occ. eigenvalues --   -0.36210  -0.36040  -0.35035  -0.34407  -0.33679
 Alpha  occ. eigenvalues --   -0.33464  -0.33199  -0.32703  -0.31101  -0.30616
 Alpha  occ. eigenvalues --   -0.28054  -0.27540  -0.25786  -0.24662  -0.22810
 Alpha  occ. eigenvalues --   -0.22002  -0.20831  -0.19952
 Alpha virt. eigenvalues --   -0.13725  -0.12801  -0.11221  -0.07702  -0.07161
 Alpha virt. eigenvalues --   -0.06245  -0.05932  -0.05443  -0.04723  -0.03371
 Alpha virt. eigenvalues --   -0.03110  -0.03079  -0.02573  -0.01132  -0.00696

 Mulliken charges:
               1
     1  N   -0.758211
     2  H    0.417027
     3  H    0.412228
     4  H    0.435764
     5  C   -0.107438
     6  H    0.224757
     7  C    0.639917
     8  C   -0.131554
     9  H    0.192516
    10  O   -0.536188
    11  C   -0.467347
    12  H    0.140285
    13  H    0.203871
    14  H    0.168685
    15  C   -0.473101
    16  H    0.137530
    17  H    0.191100
    18  H    0.201660
    19  N   -0.614326
    20  H    0.382013
    21  C   -0.067756
    22  H    0.215965
    23  C    0.612838
    24  C   -0.032992
    25  H    0.149426
    26  H    0.162937
    27  O   -0.563758
    28  O   -0.610861
    29  H    0.422977
    30  N   -0.617415
    31  H    0.393072
    32  C   -0.047806
    33  H    0.182070
    34  C    0.602748
    35  C   -0.464429
    36  H    0.188427
    37  H    0.167312
    38  H    0.177066
    39  O   -0.530188
    40  N   -0.592913
    41  H    0.356158
    42  C   -0.096206
    43  H    0.186997
    44  C    0.612367
    45  C   -0.268855
    46  H    0.137950
    47  H    0.155665
    48  O   -0.543150
    49  C   -0.058582
    50  H    0.137778
    51  C   -0.459636
    52  H    0.126207
    53  H    0.148553
    54  H    0.127791
    55  C   -0.474755
    56  H    0.138261
    57  H    0.136473
    58  H    0.192263
    59  N   -0.583709
    60  H    0.345832
    61  C   -0.070486
    62  H    0.185178
    63  C    0.622479
    64  C   -0.341951
    65  H    0.144714
    66  H    0.147951
    67  O   -0.595994
    68  C    0.140488
    69  C   -0.190571
    70  H    0.118734
    71  C   -0.207294
    72  H    0.110944
    73  C   -0.164518
    74  H    0.144732
    75  C   -0.154227
    76  H    0.129138
    77  O   -0.704117
    78  H    0.441088
    79  C    0.368229
    80  N   -0.593697
    81  H    0.367438
    82  C   -0.053906
    83  H    0.152140
    84  C    0.592493
    85  C   -0.266323
    86  H    0.135051
    87  H    0.165833
    88  O   -0.575446
    89  C   -0.261070
    90  H    0.155025
    91  H    0.165858
    92  C   -0.290391
    93  H    0.157582
    94  H    0.163413
    95  C   -0.214777
    96  H    0.225696
    97  H    0.224606
    98  N   -0.731187
    99  H    0.421304
   100  H    0.421612
   101  H    0.424161
   102  O   -0.633243
 Sum of Mulliken charges =   1.00000

 Dipole moment (field-independent basis, Debye):
    X=            -33.4024    Y=             -0.7120    Z=             38.6942  Tot=             51.1221
 Quadrupole moment (field-independent basis, Debye-Ang):
   XX=             77.8574   YY=           -173.0612   ZZ=           -298.1742
   XY=           -166.5186   XZ=             93.7604   YZ=            -95.9323

 Normal termination of Gaussian 16 at Mon Jun 27 02:25:54 2022.
