 Gaussian 16, Revision C.01,
 Gaussian 16:  ES64L-G16RevC.01  3-Jul-2019

 ----------------------------------------------------------------------
 # B3LYP/6-31G* empiricaldispersion=gd3 guess=read geom=check nosymm in
 tegral(ultrafinegrid)
 ----------------------------------------------------------------------

 ------------------------------------------------------
 Candidate Structure: Conf:156 Charge calc in gas phase
 ------------------------------------------------------
 Structure from the checkpoint file:  "conf-156.chk"
 Charge =  1 Multiplicity = 1

                          Input orientation:
 ---------------------------------------------------------------------
 Center     Atomic      Atomic             Coordinates (Angstroms)
 Number     Number       Type             X           Y           Z
 ---------------------------------------------------------------------
      1          7           0       -8.707122    4.344368    2.892248
      2          1           0       -9.187186    4.805512    3.669273
      3          1           0       -9.270006    4.459864    2.046429
      4          1           0       -7.739522    4.775381    2.779236
      5          6           0       -8.358681    2.892219    3.176943
      6          1           0       -8.953000    2.561886    4.033853
      7          6           0       -6.850933    3.002439    3.530568
      8          6           0       -8.663094    2.002849    1.942225
      9          1           0       -8.012018    2.344779    1.126906
     10          8           0       -6.266797    4.049884    3.225307
     11          6           0       -8.325404    0.529411    2.228816
     12          1           0       -8.826481    0.174005    3.139450
     13          1           0       -8.686423   -0.088520    1.401548
     14          1           0       -7.248744    0.371936    2.301785
     15          6           0      -10.140378    2.128299    1.525805
     16          1           0      -10.807980    1.813955    2.337178
     17          1           0      -10.442259    3.137701    1.212607
     18          1           0      -10.333015    1.480201    0.666386
     19          7           0       -6.283859    1.979258    4.178330
     20          1           0       -6.796350    1.106472    4.252468
     21          6           0       -4.838094    1.798402    4.111043
     22          1           0       -4.347779    2.706600    4.474355
     23          6           0       -4.435356    1.570994    2.619941
     24          6           0       -4.468615    0.614651    5.006423
     25          1           0       -4.667519    0.874402    6.056527
     26          1           0       -3.398645    0.392415    4.902765
     27          8           0       -5.283095    1.509979    1.729427
     28          8           0       -5.282729   -0.470204    4.572604
     29          1           0       -5.087325   -1.251181    5.112048
     30          7           0       -3.115207    1.468190    2.417103
     31          1           0       -2.430141    1.509879    3.169285
     32          6           0       -2.515749    1.199394    1.118248
     33          1           0       -3.067163    0.381422    0.640115
     34          6           0       -1.069828    0.754299    1.416988
     35          6           0       -2.544466    2.436883    0.204875
     36          1           0       -2.091905    2.219285   -0.767893
     37          1           0       -1.990606    3.260460    0.666977
     38          1           0       -3.581372    2.745414    0.049962
     39          8           0       -0.590948    0.903049    2.545194
     40          7           0       -0.411969    0.228576    0.368867
     41          1           0       -0.813995    0.284242   -0.564522
     42          6           0        1.028611    0.010136    0.338743
     43          1           0        1.483198    0.620142    1.125087
     44          6           0        1.494946    0.499072   -1.047674
     45          6           0        1.401586   -1.475046    0.532352
     46          1           0        0.925791   -2.043081   -0.278495
     47          1           0        2.486305   -1.581211    0.393417
     48          8           0        0.683880    0.656008   -1.966426
     49          6           0        1.006066   -2.078569    1.892133
     50          1           0       -0.068138   -1.899290    2.040855
     51          6           0        1.239776   -3.596406    1.868312
     52          1           0        2.302428   -3.825109    1.715546
     53          1           0        0.935870   -4.055442    2.816100
     54          1           0        0.674748   -4.079497    1.062050
     55          6           0        1.764242   -1.426377    3.057148
     56          1           0        2.849432   -1.517619    2.915811
     57          1           0        1.512811   -1.919976    4.003247
     58          1           0        1.507848   -0.368660    3.162104
     59          7           0        2.818037    0.693283   -1.176214
     60          1           0        3.467242    0.565340   -0.404728
     61          6           0        3.444177    1.090339   -2.425968
     62          1           0        2.999346    0.508442   -3.240056
     63          6           0        4.941502    0.741477   -2.276522
     64          6           0        3.195315    2.603345   -2.727728
     65          1           0        3.581133    3.190567   -1.886991
     66          1           0        2.108724    2.733559   -2.767285
     67          8           0        5.433485    0.629334   -1.150069
     68          6           0        3.870146    2.980159   -4.020474
     69          6           0        5.129708    3.590680   -4.012062
     70          1           0        5.524361    3.992233   -3.081584
     71          6           0        3.380627    2.472181   -5.233345
     72          1           0        2.392549    2.016368   -5.261564
     73          6           0        5.931563    3.589298   -5.150229
     74          1           0        6.942800    3.980857   -5.120662
     75          6           0        4.180672    2.454140   -6.375744
     76          1           0        3.840321    1.995498   -7.298943
     77          8           0        6.347776    2.738913   -7.362819
     78          1           0        6.974104    2.071048   -7.005166
     79          6           0        5.485994    2.951805   -6.312702
     80          7           0        5.645982    0.569461   -3.417675
     81          1           0        5.206868    0.731668   -4.316591
     82          6           0        7.097074    0.374747   -3.404674
     83          1           0        7.477531    0.805132   -2.477152
     84          6           0        7.770945    1.099727   -4.576552
     85          6           0        7.426155   -1.133214   -3.460865
     86          1           0        6.986516   -1.578119   -2.560764
     87          1           0        6.901722   -1.562079   -4.322882
     88          8           0        8.687096    1.901784   -4.360210
     89          6           0        8.922614   -1.512437   -3.521416
     90          1           0        9.010797   -2.521791   -3.104472
     91          1           0        9.497884   -0.864415   -2.846485
     92          6           0        9.596255   -1.543132   -4.924890
     93          1           0       10.250877   -2.419704   -4.968549
     94          1           0        8.827301   -1.704397   -5.690571
     95          6           0       10.452864   -0.311985   -5.305266
     96          1           0       11.468788   -0.598710   -5.589932
     97          1           0       10.506356    0.402213   -4.484496
     98          7           0        9.864866    0.458620   -6.463069
     99          1           0       10.235938    1.410725   -6.486359
    100          1           0       10.049387    0.002416   -7.358690
    101          1           0        8.753513    0.576948   -6.310247
    102          8           0        7.420854    0.678871   -5.760827
 ---------------------------------------------------------------------

 SCF Done:  E(RB3LYP) =  -2312.21496841     A.U. after    1 cycles

 Alpha  occ. eigenvalues --  -19.26406 -19.26029 -19.20806 -19.19214 -19.17459
 Alpha  occ. eigenvalues --  -19.17299 -19.16206 -19.16158 -19.14835 -14.59146
 Alpha  occ. eigenvalues --  -14.48809 -14.48686 -14.44386 -14.42521 -14.41237
 Alpha  occ. eigenvalues --  -14.40276 -10.43054 -10.39974 -10.38040 -10.36104
 Alpha  occ. eigenvalues --  -10.34847 -10.34452 -10.34434 -10.33452 -10.33326
 Alpha  occ. eigenvalues --  -10.32801 -10.31241 -10.30621 -10.30514 -10.29229
 Alpha  occ. eigenvalues --  -10.28488 -10.28344 -10.26835 -10.26236 -10.25649
 Alpha  occ. eigenvalues --  -10.25311 -10.24145 -10.24092 -10.23817 -10.23506
 Alpha  occ. eigenvalues --  -10.22926 -10.22649 -10.22451 -10.22150 -10.21992
 Alpha  occ. eigenvalues --  -10.21845 -10.21407 -10.21348  -1.18986  -1.13766
 Alpha  occ. eigenvalues --   -1.13038  -1.12388  -1.10955  -1.09351  -1.09197
 Alpha  occ. eigenvalues --   -1.07857  -1.05815  -1.05584  -1.03481  -1.01100
 Alpha  occ. eigenvalues --   -0.99547  -0.99358  -0.97873  -0.96490  -0.94364
 Alpha  occ. eigenvalues --   -0.88817  -0.88737  -0.86695  -0.85738  -0.85180
 Alpha  occ. eigenvalues --   -0.83730  -0.83108  -0.80691  -0.80514  -0.79884
 Alpha  occ. eigenvalues --   -0.77838  -0.76477  -0.75631  -0.74778  -0.74310
 Alpha  occ. eigenvalues --   -0.73595  -0.73294  -0.72640  -0.71916  -0.70744
 Alpha  occ. eigenvalues --   -0.69948  -0.69253  -0.68957  -0.66789  -0.65607
 Alpha  occ. eigenvalues --   -0.65034  -0.64744  -0.64494  -0.63724  -0.63691
 Alpha  occ. eigenvalues --   -0.63460  -0.62743  -0.62251  -0.62230  -0.61509
 Alpha  occ. eigenvalues --   -0.60988  -0.60769  -0.59840  -0.58351  -0.57764
 Alpha  occ. eigenvalues --   -0.56880  -0.56371  -0.56010  -0.55610  -0.55442
 Alpha  occ. eigenvalues --   -0.54675  -0.54291  -0.54114  -0.53285  -0.53036
 Alpha  occ. eigenvalues --   -0.52721  -0.52151  -0.51910  -0.51605  -0.51538
 Alpha  occ. eigenvalues --   -0.51257  -0.50929  -0.50797  -0.50336  -0.49976
 Alpha  occ. eigenvalues --   -0.49653  -0.49362  -0.49302  -0.48853  -0.48579
 Alpha  occ. eigenvalues --   -0.48029  -0.47905  -0.47789  -0.47204  -0.46725
 Alpha  occ. eigenvalues --   -0.46579  -0.46509  -0.46235  -0.46076  -0.45985
 Alpha  occ. eigenvalues --   -0.45400  -0.45343  -0.45176  -0.45086  -0.44912
 Alpha  occ. eigenvalues --   -0.44664  -0.44169  -0.43763  -0.43491  -0.43402
 Alpha  occ. eigenvalues --   -0.42875  -0.42673  -0.42572  -0.41848  -0.41141
 Alpha  occ. eigenvalues --   -0.41019  -0.40843  -0.40341  -0.39612  -0.39424
 Alpha  occ. eigenvalues --   -0.38968  -0.38548  -0.38320  -0.38054  -0.37962
 Alpha  occ. eigenvalues --   -0.37536  -0.37348  -0.37222  -0.36596  -0.34807
 Alpha  occ. eigenvalues --   -0.34298  -0.33209  -0.32614  -0.32267  -0.31666
 Alpha  occ. eigenvalues --   -0.31383  -0.31078  -0.30790  -0.30219  -0.29868
 Alpha  occ. eigenvalues --   -0.28418  -0.27416  -0.25626
 Alpha virt. eigenvalues --   -0.12000  -0.10516  -0.06899  -0.05949  -0.04731
 Alpha virt. eigenvalues --   -0.04325  -0.04030  -0.03768  -0.02718  -0.02668
 Alpha virt. eigenvalues --   -0.02372  -0.01985  -0.00951  -0.00474  -0.00277

 Mulliken charges:
               1
     1  N   -0.762231
     2  H    0.413277
     3  H    0.409072
     4  H    0.434417
     5  C   -0.115917
     6  H    0.202109
     7  C    0.674520
     8  C   -0.096743
     9  H    0.189255
    10  O   -0.538532
    11  C   -0.496159
    12  H    0.145848
    13  H    0.182615
    14  H    0.219647
    15  C   -0.476286
    16  H    0.171158
    17  H    0.135278
    18  H    0.201666
    19  N   -0.590594
    20  H    0.372921
    21  C   -0.098676
    22  H    0.208087
    23  C    0.665562
    24  C   -0.060547
    25  H    0.161842
    26  H    0.172022
    27  O   -0.545480
    28  O   -0.628205
    29  H    0.422551
    30  N   -0.619517
    31  H    0.361294
    32  C   -0.043098
    33  H    0.183033
    34  C    0.617841
    35  C   -0.455905
    36  H    0.173155
    37  H    0.164918
    38  H    0.180540
    39  O   -0.544830
    40  N   -0.600430
    41  H    0.357909
    42  C   -0.080809
    43  H    0.182610
    44  C    0.629028
    45  C   -0.251967
    46  H    0.142930
    47  H    0.146119
    48  O   -0.555881
    49  C   -0.065666
    50  H    0.126590
    51  C   -0.444294
    52  H    0.146085
    53  H    0.143364
    54  H    0.140854
    55  C   -0.462962
    56  H    0.138056
    57  H    0.139748
    58  H    0.173718
    59  N   -0.619776
    60  H    0.357914
    61  C   -0.034788
    62  H    0.175278
    63  C    0.611367
    64  C   -0.347777
    65  H    0.151722
    66  H    0.175313
    67  O   -0.550277
    68  C    0.137388
    69  C   -0.183380
    70  H    0.134960
    71  C   -0.217703
    72  H    0.135136
    73  C   -0.171545
    74  H    0.152714
    75  C   -0.158775
    76  H    0.139266
    77  O   -0.695955
    78  H    0.424369
    79  C    0.332374
    80  N   -0.614722
    81  H    0.359298
    82  C   -0.002166
    83  H    0.181870
    84  C    0.590282
    85  C   -0.267935
    86  H    0.158070
    87  H    0.149453
    88  O   -0.561267
    89  C   -0.283412
    90  H    0.151948
    91  H    0.156209
    92  C   -0.293648
    93  H    0.159605
    94  H    0.167991
    95  C   -0.183869
    96  H    0.175446
    97  H    0.228733
    98  N   -0.761366
    99  H    0.391467
   100  H    0.372352
   101  H    0.446495
   102  O   -0.663569
 Sum of Mulliken charges =   1.00000

 Dipole moment (field-independent basis, Debye):
    X=            -21.4262    Y=              6.8283    Z=              8.3466  Tot=             23.9869
 Quadrupole moment (field-independent basis, Debye-Ang):
   XX=            159.1992   YY=           -239.9009   ZZ=           -183.2776
   XY=           -136.2040   XZ=           -200.3515   YZ=             53.8847

 Normal termination of Gaussian 16 at Mon Jun 27 02:25:44 2022.
