 Gaussian 16, Revision C.01,
 Gaussian 16:  ES64L-G16RevC.01  3-Jul-2019

 ----------------------------------------------------------------------
 # B3LYP/6-31G* empiricaldispersion=gd3 guess=read geom=check nosymm in
 tegral(ultrafinegrid)
 ----------------------------------------------------------------------

 ------------------------------------------------------
 Candidate Structure: Conf:608 Charge calc in gas phase
 ------------------------------------------------------
 Structure from the checkpoint file:  "conf-608.chk"
 Charge =  1 Multiplicity = 1

                          Input orientation:
 ---------------------------------------------------------------------
 Center     Atomic      Atomic             Coordinates (Angstroms)
 Number     Number       Type             X           Y           Z
 ---------------------------------------------------------------------
      1          7           0       -9.658708    2.014114    5.276752
      2          1           0      -10.072930    1.080083    5.200029
      3          1           0      -10.398410    2.679995    5.515798
      4          1           0       -8.910975    1.981053    6.019846
      5          6           0       -8.873050    2.418502    4.039170
      6          1           0       -9.282627    1.877478    3.181761
      7          6           0       -7.441543    1.943685    4.395669
      8          6           0       -8.987592    3.947862    3.818086
      9          1           0       -8.633660    4.433458    4.739176
     10          8           0       -7.175010    1.832380    5.609152
     11          6           0       -8.089696    4.402233    2.654881
     12          1           0       -8.340179    3.872929    1.727213
     13          1           0       -8.242834    5.470005    2.475610
     14          1           0       -7.028571    4.249426    2.862314
     15          6           0      -10.446224    4.359998    3.549934
     16          1           0      -10.828701    3.880339    2.641451
     17          1           0      -11.138873    4.128110    4.371081
     18          1           0      -10.502307    5.442464    3.405462
     19          7           0       -6.629105    1.707246    3.382813
     20          1           0       -6.933872    1.784702    2.403564
     21          6           0       -5.202775    1.374905    3.442129
     22          1           0       -4.655397    2.190988    3.929594
     23          6           0       -4.794724    1.306374    1.946960
     24          6           0       -4.900070    0.081892    4.244602
     25          1           0       -3.945349   -0.331439    3.907329
     26          1           0       -5.679441   -0.661271    4.005458
     27          8           0       -5.653650    1.465140    1.069154
     28          8           0       -4.759548    0.317998    5.621809
     29          1           0       -5.576729    0.740667    5.940199
     30          7           0       -3.501424    1.084365    1.708633
     31          1           0       -2.814556    0.943085    2.448844
     32          6           0       -2.937008    0.952700    0.370727
     33          1           0       -3.575440    0.280372   -0.213568
     34          6           0       -1.547346    0.315973    0.576988
     35          6           0       -2.830020    2.309433   -0.345741
     36          1           0       -2.399034    2.190421   -1.344820
     37          1           0       -2.190949    2.989702    0.226478
     38          1           0       -3.825927    2.748629   -0.444809
     39          8           0       -1.050133    0.260235    1.704793
     40          7           0       -0.959684   -0.132564   -0.545535
     41          1           0       -1.358164    0.091784   -1.454791
     42          6           0        0.443962   -0.514920   -0.632499
     43          1           0        0.972981   -0.067596    0.214669
     44          6           0        0.957573    0.088492   -1.955385
     45          6           0        0.635546   -2.046826   -0.632405
     46          1           0        0.087162   -2.447830   -1.495458
     47          1           0        1.697857   -2.263882   -0.809927
     48          8           0        0.168304    0.480693   -2.819686
     49          6           0        0.183139   -2.764604    0.652182
     50          1           0       -0.859402   -2.478496    0.849909
     51          6           0        0.229387   -4.284291    0.434406
     52          1           0        1.254484   -4.617952    0.227532
     53          1           0       -0.118756   -4.818709    1.325567
     54          1           0       -0.398714   -4.590746   -0.410692
     55          6           0        1.027313   -2.360090    1.869135
     56          1           0        2.091469   -2.564982    1.690713
     57          1           0        0.725246   -2.933138    2.753289
     58          1           0        0.905206   -1.300677    2.110639
     59          7           0        2.294930    0.108480   -2.103725
     60          1           0        2.925045   -0.173295   -1.359476
     61          6           0        2.947060    0.608020   -3.302811
     62          1           0        2.382079    0.262627   -4.173811
     63          6           0        4.368072    0.024339   -3.307611
     64          6           0        2.983041    2.170153   -3.323413
     65          1           0        3.384478    2.508899   -2.362053
     66          1           0        1.943550    2.507598   -3.396777
     67          8           0        4.958368   -0.179979   -2.242540
     68          6           0        3.838356    2.654648   -4.465935
     69          6           0        5.160137    3.058378   -4.244132
     70          1           0        5.507487    3.210143   -3.224638
     71          6           0        3.411883    2.471168   -5.790041
     72          1           0        2.380246    2.184903   -5.986575
     73          6           0        6.062951    3.182309   -5.299904
     74          1           0        7.103476    3.440239   -5.129182
     75          6           0        4.305979    2.583332   -6.850623
     76          1           0        3.987976    2.389508   -7.870760
     77          8           0        6.590797    2.857843   -7.596786
     78          1           0        6.487204    2.011135   -8.066863
     79          6           0        5.651512    2.882291   -6.600000
     80          7           0        4.916468   -0.217979   -4.517089
     81          1           0        4.454290    0.088102   -5.367897
     82          6           0        6.339225   -0.490127   -4.641448
     83          1           0        6.870867    0.209105   -3.984916
     84          6           0        6.771440   -0.176918   -6.079107
     85          6           0        6.721854   -1.949415   -4.230980
     86          1           0        5.785187   -2.504675   -4.139016
     87          1           0        7.270532   -2.427275   -5.050622
     88          8           0        8.079206   -0.075007   -6.259685
     89          6           0        7.535388   -2.040400   -2.917322
     90          1           0        7.003145   -2.670802   -2.197071
     91          1           0        7.563304   -1.051744   -2.447215
     92          6           0        8.964616   -2.598760   -3.060245
     93          1           0        9.470407   -2.494951   -2.090099
     94          1           0        8.924638   -3.676071   -3.267114
     95          6           0        9.841798   -1.965274   -4.148892
     96          1           0        9.536820   -2.317528   -5.141179
     97          1           0       10.878761   -2.295745   -4.000846
     98          7           0        9.736541   -0.484982   -4.173430
     99          1           0       10.575768   -0.080849   -4.588371
    100          1           0        8.600779   -0.140424   -5.388668
    101          1           0        9.677637   -0.112085   -3.226782
    102          8           0        5.977707   -0.042959   -6.994255
 ---------------------------------------------------------------------

 SCF Done:  E(RB3LYP) =  -2312.22045240     A.U. after    1 cycles

 Alpha  occ. eigenvalues --  -19.28244 -19.22749 -19.22576 -19.21465 -19.19829
 Alpha  occ. eigenvalues --  -19.19283 -19.18176 -19.17553 -19.17201 -14.61402
 Alpha  occ. eigenvalues --  -14.50456 -14.45825 -14.43173 -14.42160 -14.40865
 Alpha  occ. eigenvalues --  -14.40610 -10.44868 -10.41807 -10.39762 -10.36768
 Alpha  occ. eigenvalues --  -10.35884 -10.35587 -10.35180 -10.35108 -10.34097
 Alpha  occ. eigenvalues --  -10.33635 -10.32168 -10.32156 -10.30799 -10.29883
 Alpha  occ. eigenvalues --  -10.29043 -10.28442 -10.27940 -10.27375 -10.26115
 Alpha  occ. eigenvalues --  -10.24652 -10.24233 -10.24165 -10.24055 -10.23917
 Alpha  occ. eigenvalues --  -10.23340 -10.23227 -10.23104 -10.23077 -10.22568
 Alpha  occ. eigenvalues --  -10.22421 -10.22253 -10.21709  -1.20457  -1.15365
 Alpha  occ. eigenvalues --   -1.14596  -1.13246  -1.11709  -1.10610  -1.10085
 Alpha  occ. eigenvalues --   -1.08867  -1.07585  -1.07038  -1.05068  -1.02507
 Alpha  occ. eigenvalues --   -1.00027  -0.98700  -0.97612  -0.96354  -0.96124
 Alpha  occ. eigenvalues --   -0.89701  -0.89540  -0.87467  -0.86275  -0.85164
 Alpha  occ. eigenvalues --   -0.84204  -0.83614  -0.82435  -0.80579  -0.80246
 Alpha  occ. eigenvalues --   -0.78661  -0.77189  -0.76826  -0.76065  -0.75163
 Alpha  occ. eigenvalues --   -0.74897  -0.74337  -0.72938  -0.72014  -0.71340
 Alpha  occ. eigenvalues --   -0.70992  -0.70363  -0.69025  -0.67738  -0.67477
 Alpha  occ. eigenvalues --   -0.66024  -0.65514  -0.65111  -0.65061  -0.64392
 Alpha  occ. eigenvalues --   -0.63472  -0.62984  -0.62408  -0.62283  -0.61812
 Alpha  occ. eigenvalues --   -0.61169  -0.60696  -0.60186  -0.59258  -0.57803
 Alpha  occ. eigenvalues --   -0.57440  -0.57121  -0.56980  -0.56804  -0.55859
 Alpha  occ. eigenvalues --   -0.54896  -0.54714  -0.54439  -0.54024  -0.53469
 Alpha  occ. eigenvalues --   -0.53181  -0.53001  -0.52560  -0.52429  -0.51910
 Alpha  occ. eigenvalues --   -0.51787  -0.51556  -0.51361  -0.51049  -0.50839
 Alpha  occ. eigenvalues --   -0.50475  -0.50165  -0.49495  -0.49397  -0.49181
 Alpha  occ. eigenvalues --   -0.48847  -0.48723  -0.48479  -0.48317  -0.48209
 Alpha  occ. eigenvalues --   -0.48084  -0.47862  -0.47196  -0.46996  -0.46255
 Alpha  occ. eigenvalues --   -0.46182  -0.45930  -0.45747  -0.45070  -0.44843
 Alpha  occ. eigenvalues --   -0.44497  -0.44291  -0.44124  -0.43916  -0.43715
 Alpha  occ. eigenvalues --   -0.43305  -0.43040  -0.42608  -0.42087  -0.41976
 Alpha  occ. eigenvalues --   -0.41381  -0.41144  -0.40986  -0.39980  -0.39574
 Alpha  occ. eigenvalues --   -0.38912  -0.38861  -0.38211  -0.38112  -0.37743
 Alpha  occ. eigenvalues --   -0.37648  -0.37608  -0.37567  -0.37334  -0.35943
 Alpha  occ. eigenvalues --   -0.35195  -0.34825  -0.34009  -0.33887  -0.33197
 Alpha  occ. eigenvalues --   -0.33088  -0.32445  -0.31609  -0.31493  -0.30580
 Alpha  occ. eigenvalues --   -0.30466  -0.29205  -0.25800
 Alpha virt. eigenvalues --   -0.13944  -0.12099  -0.08405  -0.07547  -0.05568
 Alpha virt. eigenvalues --   -0.05320  -0.05138  -0.04600  -0.03204  -0.03122
 Alpha virt. eigenvalues --   -0.02866  -0.02135  -0.02129  -0.00727   0.00050

 Mulliken charges:
               1
     1  N   -0.754732
     2  H    0.419967
     3  H    0.413123
     4  H    0.434104
     5  C   -0.107683
     6  H    0.210311
     7  C    0.659464
     8  C   -0.109850
     9  H    0.172863
    10  O   -0.570361
    11  C   -0.471919
    12  H    0.172615
    13  H    0.191794
    14  H    0.181959
    15  C   -0.474266
    16  H    0.180373
    17  H    0.139192
    18  H    0.205467
    19  N   -0.617077
    20  H    0.382713
    21  C   -0.076870
    22  H    0.207003
    23  C    0.624539
    24  C   -0.030664
    25  H    0.180333
    26  H    0.136134
    27  O   -0.552092
    28  O   -0.619413
    29  H    0.423024
    30  N   -0.622025
    31  H    0.372108
    32  C   -0.046597
    33  H    0.186945
    34  C    0.619572
    35  C   -0.458517
    36  H    0.177855
    37  H    0.166301
    38  H    0.182754
    39  O   -0.539941
    40  N   -0.600948
    41  H    0.358783
    42  C   -0.081966
    43  H    0.182963
    44  C    0.629663
    45  C   -0.250886
    46  H    0.144439
    47  H    0.143519
    48  O   -0.551371
    49  C   -0.066439
    50  H    0.128025
    51  C   -0.444713
    52  H    0.145094
    53  H    0.146747
    54  H    0.141608
    55  C   -0.462774
    56  H    0.135127
    57  H    0.145135
    58  H    0.173363
    59  N   -0.618696
    60  H    0.353794
    61  C   -0.027985
    62  H    0.176339
    63  C    0.608679
    64  C   -0.349967
    65  H    0.151731
    66  H    0.174977
    67  O   -0.554287
    68  C    0.150349
    69  C   -0.188843
    70  H    0.131025
    71  C   -0.224980
    72  H    0.135814
    73  C   -0.166818
    74  H    0.139845
    75  C   -0.154205
    76  H    0.140483
    77  O   -0.671636
    78  H    0.426780
    79  C    0.359665
    80  N   -0.615558
    81  H    0.367095
    82  C   -0.037800
    83  H    0.173087
    84  C    0.601277
    85  C   -0.285817
    86  H    0.168989
    87  H    0.158522
    88  O   -0.615005
    89  C   -0.258130
    90  H    0.153445
    91  H    0.152798
    92  C   -0.294343
    93  H    0.143457
    94  H    0.154118
    95  C   -0.136856
    96  H    0.164104
    97  H    0.152981
    98  N   -0.787495
    99  H    0.339063
   100  H    0.480670
   101  H    0.330245
   102  O   -0.504790
 Sum of Mulliken charges =   1.00000

 Dipole moment (field-independent basis, Debye):
    X=            -30.1633    Y=              7.2057    Z=             16.0632  Tot=             34.9253
 Quadrupole moment (field-independent basis, Debye-Ang):
   XX=            182.0598   YY=           -250.3569   ZZ=           -235.6176
   XY=           -115.8143   XZ=           -185.6532   YZ=             58.9373

 Normal termination of Gaussian 16 at Mon Jun 27 02:25:36 2022.
