 Gaussian 16, Revision C.01,
 Gaussian 16:  ES64L-G16RevC.01  3-Jul-2019

 ----------------------------------------------------------------------
 # B3LYP/6-31G* empiricaldispersion=gd3 guess=read geom=check nosymm in
 tegral(ultrafinegrid)
 ----------------------------------------------------------------------

 ------------------------------------------------------
 Candidate Structure: Conf:535 Charge calc in gas phase
 ------------------------------------------------------
 Structure from the checkpoint file:  "conf-535.chk"
 Charge =  1 Multiplicity = 1

                          Input orientation:
 ---------------------------------------------------------------------
 Center     Atomic      Atomic             Coordinates (Angstroms)
 Number     Number       Type             X           Y           Z
 ---------------------------------------------------------------------
      1          7           0       -4.391537    1.382080    6.872133
      2          1           0       -3.530635    1.283655    7.417479
      3          1           0       -5.190666    1.171903    7.476038
      4          1           0       -4.440896    2.376847    6.493999
      5          6           0       -4.377192    0.569663    5.588855
      6          1           0       -3.597269   -0.190456    5.677762
      7          6           0       -4.008439    1.647292    4.534742
      8          6           0       -5.757437   -0.095161    5.355525
      9          1           0       -5.964935   -0.671940    6.270171
     10          8           0       -4.134692    2.837239    4.866667
     11          6           0       -6.876985    0.937589    5.150776
     12          1           0       -6.721003    1.511897    4.231789
     13          1           0       -7.839358    0.425073    5.067140
     14          1           0       -6.963677    1.654186    5.976938
     15          6           0       -5.699988   -1.098426    4.192237
     16          1           0       -5.582237   -0.600379    3.225045
     17          1           0       -4.883117   -1.819395    4.313627
     18          1           0       -6.635806   -1.663505    4.156444
     19          7           0       -3.612552    1.214607    3.346756
     20          1           0       -3.556430    0.223414    3.110183
     21          6           0       -3.307401    2.080365    2.215843
     22          1           0       -4.032954    2.898185    2.169559
     23          6           0       -3.396691    1.182633    0.975287
     24          6           0       -1.878597    2.690507    2.355421
     25          1           0       -1.162346    1.874709    2.515337
     26          1           0       -1.879845    3.336819    3.238501
     27          8           0       -3.464909   -0.042065    1.091105
     28          8           0       -1.540692    3.465035    1.227780
     29          1           0       -1.054834    2.859905    0.624292
     30          7           0       -3.353689    1.842622   -0.209226
     31          1           0       -3.068148    2.816137   -0.130729
     32          6           0       -2.871460    1.148131   -1.395505
     33          1           0       -3.450429    0.225572   -1.499002
     34          6           0       -1.379472    0.781127   -1.195191
     35          6           0       -3.048863    2.038064   -2.632100
     36          1           0       -2.721801    1.519239   -3.537482
     37          1           0       -2.449949    2.951321   -2.539816
     38          1           0       -4.099970    2.315915   -2.750590
     39          8           0       -0.691545    1.313500   -0.312668
     40          7           0       -0.885437   -0.132664   -2.046952
     41          1           0       -1.480248   -0.492553   -2.782439
     42          6           0        0.524529   -0.554096   -2.049009
     43          1           0        0.854522   -0.532236   -1.008295
     44          6           0        1.389984    0.448810   -2.851366
     45          6           0        0.632800   -1.967427   -2.626071
     46          1           0       -0.096030   -2.607626   -2.108784
     47          1           0        0.347766   -1.919460   -3.684989
     48          8           0        1.791616    0.178352   -3.977638
     49          6           0        2.031669   -2.610908   -2.522632
     50          1           0        2.740900   -1.924359   -2.998604
     51          6           0        2.478093   -2.820849   -1.069694
     52          1           0        1.745166   -3.418595   -0.511027
     53          1           0        3.435392   -3.358228   -1.033773
     54          1           0        2.635483   -1.866757   -0.562455
     55          6           0        2.025107   -3.938430   -3.296634
     56          1           0        1.292466   -4.639217   -2.875928
     57          1           0        3.004275   -4.435712   -3.242042
     58          1           0        1.774988   -3.788789   -4.354340
     59          7           0        1.643147    1.633575   -2.211847
     60          1           0        1.385111    1.633358   -1.229092
     61          6           0        2.952345    2.232275   -2.452956
     62          1           0        3.089727    2.301161   -3.535496
     63          6           0        4.017520    1.244242   -1.892420
     64          6           0        3.050220    3.648601   -1.838879
     65          1           0        2.242284    4.249906   -2.272188
     66          1           0        3.991417    4.102354   -2.166625
     67          8           0        3.663145    0.166934   -1.388553
     68          6           0        2.974942    3.669037   -0.326318
     69          6           0        1.744111    3.782888    0.334851
     70          1           0        0.834861    3.915561   -0.247732
     71          6           0        4.139305    3.554861    0.449601
     72          1           0        5.117041    3.506412   -0.029230
     73          6           0        1.659644    3.762698    1.726002
     74          1           0        0.706924    3.886744    2.227433
     75          6           0        4.064138    3.524310    1.840796
     76          1           0        4.978446    3.436984    2.425656
     77          8           0        2.693563    3.593072    3.849321
     78          1           0        3.580574    3.559359    4.240419
     79          6           0        2.825188    3.620710    2.482052
     80          7           0        5.294129    1.619781   -2.038871
     81          1           0        5.549193    2.608763   -2.176541
     82          6           0        6.401616    0.995123   -1.319492
     83          1           0        6.016904    0.561365   -0.388069
     84          6           0        7.423016    2.147907   -0.952159
     85          6           0        7.084186   -0.100972   -2.139278
     86          1           0        7.476533    0.341331   -3.066292
     87          1           0        7.944834   -0.449438   -1.558434
     88          8           0        8.484903    1.759465   -0.443565
     89          6           0        6.128198   -1.245585   -2.483068
     90          1           0        5.254199   -0.842853   -3.005678
     91          1           0        5.741846   -1.697865   -1.561199
     92          6           0        6.769212   -2.327653   -3.365911
     93          1           0        7.147851   -1.868900   -4.291023
     94          1           0        7.623455   -2.790578   -2.851951
     95          6           0        5.719191   -3.371739   -3.694934
     96          1           0        4.850428   -2.943294   -4.199992
     97          1           0        5.376572   -3.914880   -2.811360
     98          7           0        6.278936   -4.437366   -4.653609
     99          1           0        5.584347   -5.154746   -4.893670
    100          1           0        6.597896   -3.998310   -5.525405
    101          1           0        7.092236   -4.905197   -4.236570
    102          8           0        7.009353    3.313950   -1.229413
 ---------------------------------------------------------------------

 SCF Done:  E(RB3LYP) =  -2312.14939810     A.U. after    2 cycles

 Alpha  occ. eigenvalues --  -19.26769 -19.22306 -19.22264 -19.21118 -19.20873
 Alpha  occ. eigenvalues --  -19.16379 -19.13852 -19.06106 -19.05001 -14.61556
 Alpha  occ. eigenvalues --  -14.60072 -14.49601 -14.45042 -14.45035 -14.38765
 Alpha  occ. eigenvalues --  -14.35881 -10.43547 -10.40691 -10.38870 -10.37696
 Alpha  occ. eigenvalues --  -10.37638 -10.34761 -10.33805 -10.33195 -10.32650
 Alpha  occ. eigenvalues --  -10.32376 -10.30583 -10.30325 -10.30122 -10.29392
 Alpha  occ. eigenvalues --  -10.29368 -10.27480 -10.27244 -10.26190 -10.25115
 Alpha  occ. eigenvalues --  -10.25087 -10.25071 -10.24016 -10.23990 -10.22749
 Alpha  occ. eigenvalues --  -10.22363 -10.21822 -10.21503 -10.21289 -10.21139
 Alpha  occ. eigenvalues --  -10.21111 -10.20648 -10.20402  -1.19322  -1.15368
 Alpha  occ. eigenvalues --   -1.14427  -1.13770  -1.12497  -1.09981  -1.08679
 Alpha  occ. eigenvalues --   -1.08171  -1.06173  -1.05094  -1.02182  -1.01073
 Alpha  occ. eigenvalues --   -0.99011  -0.95942  -0.95380  -0.93043  -0.90910
 Alpha  occ. eigenvalues --   -0.90209  -0.88764  -0.87785  -0.87664  -0.86180
 Alpha  occ. eigenvalues --   -0.83957  -0.82498  -0.81676  -0.81540  -0.80553
 Alpha  occ. eigenvalues --   -0.77043  -0.76795  -0.75808  -0.75576  -0.75380
 Alpha  occ. eigenvalues --   -0.74727  -0.74200  -0.74043  -0.73590  -0.73440
 Alpha  occ. eigenvalues --   -0.71978  -0.70461  -0.69409  -0.69118  -0.68778
 Alpha  occ. eigenvalues --   -0.67314  -0.66838  -0.65983  -0.64657  -0.64035
 Alpha  occ. eigenvalues --   -0.63029  -0.62730  -0.62415  -0.61664  -0.61507
 Alpha  occ. eigenvalues --   -0.60925  -0.60545  -0.60109  -0.58488  -0.58370
 Alpha  occ. eigenvalues --   -0.58215  -0.57803  -0.57132  -0.56808  -0.56538
 Alpha  occ. eigenvalues --   -0.55938  -0.54983  -0.54839  -0.54301  -0.53687
 Alpha  occ. eigenvalues --   -0.53142  -0.52696  -0.52132  -0.51794  -0.51656
 Alpha  occ. eigenvalues --   -0.51256  -0.50852  -0.50800  -0.50589  -0.50075
 Alpha  occ. eigenvalues --   -0.49943  -0.49815  -0.48873  -0.48719  -0.48132
 Alpha  occ. eigenvalues --   -0.47880  -0.47830  -0.47643  -0.47383  -0.47332
 Alpha  occ. eigenvalues --   -0.47066  -0.46835  -0.46543  -0.46146  -0.45894
 Alpha  occ. eigenvalues --   -0.45545  -0.45335  -0.44639  -0.44444  -0.44328
 Alpha  occ. eigenvalues --   -0.44098  -0.43533  -0.43101  -0.42505  -0.42327
 Alpha  occ. eigenvalues --   -0.42100  -0.41823  -0.41541  -0.41316  -0.40879
 Alpha  occ. eigenvalues --   -0.40282  -0.40014  -0.39496  -0.39334  -0.38711
 Alpha  occ. eigenvalues --   -0.38360  -0.38325  -0.37373  -0.36745  -0.36612
 Alpha  occ. eigenvalues --   -0.36464  -0.36176  -0.36009  -0.35589  -0.35262
 Alpha  occ. eigenvalues --   -0.35059  -0.34979  -0.33738  -0.33272  -0.30562
 Alpha  occ. eigenvalues --   -0.29085  -0.27902  -0.27490  -0.27022  -0.24433
 Alpha  occ. eigenvalues --   -0.21287  -0.20853  -0.19271
 Alpha virt. eigenvalues --   -0.12409  -0.12359  -0.11249  -0.08254  -0.06831
 Alpha virt. eigenvalues --   -0.06710  -0.06053  -0.05501  -0.04769  -0.03460
 Alpha virt. eigenvalues --   -0.03135  -0.02875  -0.01600  -0.01392  -0.00838

 Mulliken charges:
               1
     1  N   -0.760395
     2  H    0.419059
     3  H    0.411996
     4  H    0.436782
     5  C   -0.107971
     6  H    0.210812
     7  C    0.658254
     8  C   -0.110566
     9  H    0.159588
    10  O   -0.544164
    11  C   -0.470193
    12  H    0.188041
    13  H    0.194032
    14  H    0.142555
    15  C   -0.477397
    16  H    0.186131
    17  H    0.165880
    18  H    0.189908
    19  N   -0.609240
    20  H    0.377261
    21  C   -0.090054
    22  H    0.201824
    23  C    0.618625
    24  C   -0.035865
    25  H    0.164130
    26  H    0.177510
    27  O   -0.542302
    28  O   -0.648546
    29  H    0.459946
    30  N   -0.585729
    31  H    0.353325
    32  C   -0.081431
    33  H    0.189397
    34  C    0.664020
    35  C   -0.467201
    36  H    0.170525
    37  H    0.178782
    38  H    0.183556
    39  O   -0.568302
    40  N   -0.602507
    41  H    0.339726
    42  C   -0.063583
    43  H    0.195350
    44  C    0.637408
    45  C   -0.278928
    46  H    0.130254
    47  H    0.146940
    48  O   -0.535408
    49  C   -0.082610
    50  H    0.169732
    51  C   -0.458412
    52  H    0.127611
    53  H    0.113903
    54  H    0.208292
    55  C   -0.449992
    56  H    0.151595
    57  H    0.087651
    58  H    0.145102
    59  N   -0.593474
    60  H    0.358618
    61  C   -0.075872
    62  H    0.183532
    63  C    0.619202
    64  C   -0.380844
    65  H    0.151149
    66  H    0.184473
    67  O   -0.579702
    68  C    0.135194
    69  C   -0.208580
    70  H    0.112599
    71  C   -0.203002
    72  H    0.210697
    73  C   -0.176339
    74  H    0.137136
    75  C   -0.208578
    76  H    0.135342
    77  O   -0.660027
    78  H    0.407956
    79  C    0.348243
    80  N   -0.608177
    81  H    0.356719
    82  C   -0.075051
    83  H    0.145670
    84  C    0.584569
    85  C   -0.253269
    86  H    0.129232
    87  H    0.163920
    88  O   -0.582725
    89  C   -0.270101
    90  H    0.172909
    91  H    0.155559
    92  C   -0.289973
    93  H    0.157862
    94  H    0.160280
    95  C   -0.213166
    96  H    0.235659
    97  H    0.223641
    98  N   -0.733657
    99  H    0.421798
   100  H    0.422716
   101  H    0.421428
   102  O   -0.608266
 Sum of Mulliken charges =   1.00000

 Dipole moment (field-independent basis, Debye):
    X=            -17.2949    Y=            -20.6529    Z=              7.4517  Tot=             27.9496
 Quadrupole moment (field-independent basis, Debye-Ang):
   XX=           -207.3573   YY=           -230.6669   ZZ=            -35.4334
   XY=           -169.0041   XZ=           -189.9790   YZ=             95.8315

 Normal termination of Gaussian 16 at Mon Jun 27 02:26:03 2022.
