 Gaussian 16, Revision C.01,
 Gaussian 16:  ES64L-G16RevC.01  3-Jul-2019

 ----------------------------------------------------------------------
 # B3LYP/6-31G* empiricaldispersion=gd3 guess=read geom=check nosymm in
 tegral(ultrafinegrid)
 ----------------------------------------------------------------------

 ------------------------------------------------------
 Candidate Structure: Conf:549 Charge calc in gas phase
 ------------------------------------------------------
 Structure from the checkpoint file:  "conf-549.chk"
 Charge =  1 Multiplicity = 1

                          Input orientation:
 ---------------------------------------------------------------------
 Center     Atomic      Atomic             Coordinates (Angstroms)
 Number     Number       Type             X           Y           Z
 ---------------------------------------------------------------------
      1          7           0       -1.817828    3.926855    2.432412
      2          1           0       -1.632832    4.887903    2.120498
      3          1           0       -1.275199    3.323780    1.784175
      4          1           0       -1.412515    3.739287    3.368343
      5          6           0       -3.262461    3.517129    2.509304
      6          1           0       -3.812237    4.378148    2.906312
      7          6           0       -3.250467    2.395412    3.576559
      8          6           0       -3.816383    3.129827    1.121893
      9          1           0       -4.882141    2.918385    1.286017
     10          8           0       -2.230749    2.249221    4.264800
     11          6           0       -3.723999    4.315950    0.148326
     12          1           0       -2.681712    4.536993   -0.111889
     13          1           0       -4.235783    4.072738   -0.787260
     14          1           0       -4.187454    5.220879    0.559435
     15          6           0       -3.151821    1.870518    0.541884
     16          1           0       -2.106682    2.045555    0.265393
     17          1           0       -3.184302    1.027048    1.237784
     18          1           0       -3.669857    1.574251   -0.375113
     19          7           0       -4.329504    1.615281    3.676678
     20          1           0       -5.175734    1.854107    3.176812
     21          6           0       -4.418673    0.519995    4.654776
     22          1           0       -3.874309    0.846140    5.547297
     23          6           0       -3.782782   -0.786995    4.107436
     24          6           0       -5.886318    0.275349    4.996922
     25          1           0       -5.930790   -0.438512    5.827522
     26          1           0       -6.389132   -0.194170    4.138682
     27          8           0       -4.414170   -1.838760    4.121161
     28          8           0       -6.452777    1.541204    5.319157
     29          1           0       -7.366186    1.395610    5.608487
     30          7           0       -2.529153   -0.662118    3.613281
     31          1           0       -2.003327    0.202035    3.711276
     32          6           0       -1.837819   -1.763075    2.958084
     33          1           0       -1.819638   -2.630924    3.629293
     34          6           0       -0.411739   -1.288688    2.656784
     35          6           0       -2.520762   -2.161729    1.632349
     36          1           0       -1.974881   -2.964399    1.129496
     37          1           0       -2.538733   -1.304637    0.951839
     38          1           0       -3.541925   -2.487906    1.839091
     39          8           0       -0.134259   -0.089351    2.606542
     40          7           0        0.491419   -2.276785    2.410024
     41          1           0        0.102016   -3.198611    2.249902
     42          6           0        1.689182   -1.987889    1.621351
     43          1           0        2.154485   -1.102411    2.060076
     44          6           0        1.238292   -1.694889    0.171481
     45          6           0        2.643617   -3.191735    1.678863
     46          1           0        2.826154   -3.429861    2.735336
     47          1           0        2.123311   -4.054410    1.238847
     48          8           0        0.268456   -2.284729   -0.306188
     49          6           0        3.992242   -3.001252    0.958191
     50          1           0        3.788349   -2.744395   -0.090389
     51          6           0        4.828448   -1.869139    1.574487
     52          1           0        5.015772   -2.059447    2.639130
     53          1           0        5.799722   -1.789779    1.073405
     54          1           0        4.344257   -0.889640    1.491688
     55          6           0        4.777440   -4.320867    0.978759
     56          1           0        5.008209   -4.622973    2.008377
     57          1           0        5.727300   -4.221401    0.440943
     58          1           0        4.208668   -5.132573    0.510665
     59          7           0        1.952653   -0.766218   -0.497307
     60          1           0        2.757016   -0.295428   -0.092103
     61          6           0        1.575828   -0.260274   -1.805764
     62          1           0        1.481188   -1.099292   -2.504911
     63          6           0        2.704431    0.691916   -2.255564
     64          6           0        0.211030    0.488539   -1.773729
     65          1           0       -0.503211   -0.179373   -1.281205
     66          1           0       -0.137041    0.622349   -2.802185
     67          8           0        3.654963    0.938777   -1.499013
     68          6           0        0.256218    1.838674   -1.088793
     69          6           0        0.597408    1.962699    0.266065
     70          1           0        0.822490    1.088021    0.861718
     71          6           0       -0.036834    3.006489   -1.810161
     72          1           0       -0.214591    2.947810   -2.881925
     73          6           0        0.620383    3.212721    0.889716
     74          1           0        0.946342    3.311128    1.922952
     75          6           0       -0.060673    4.256302   -1.186325
     76          1           0       -0.313163    5.143520   -1.763588
     77          8           0        0.106421    5.530066    0.892281
     78          1           0        0.067514    6.279148    0.275273
     79          6           0        0.250388    4.353862    0.168727
     80          7           0        2.525407    1.240570   -3.467824
     81          1           0        1.606328    1.165096   -3.929915
     82          6           0        3.045636    2.558127   -3.832916
     83          1           0        3.261254    3.117613   -2.914354
     84          6           0        1.884039    3.315548   -4.603353
     85          6           0        4.305269    2.502343   -4.692131
     86          1           0        4.100418    1.895953   -5.585890
     87          1           0        4.499106    3.526647   -5.030331
     88          8           0        2.172362    4.460988   -4.977453
     89          6           0        5.516158    1.932529   -3.947956
     90          1           0        5.291730    0.922136   -3.586515
     91          1           0        5.716490    2.536268   -3.053275
     92          6           0        6.763354    1.906195   -4.846945
     93          1           0        6.562839    1.287914   -5.733958
     94          1           0        6.981125    2.924347   -5.200664
     95          6           0        7.961196    1.354337   -4.095554
     96          1           0        7.814721    0.321087   -3.771518
     97          1           0        8.232827    1.965293   -3.231249
     98          7           0        9.202356    1.338831   -5.005622
     99          1           0       10.038690    0.972843   -4.535025
    100          1           0        9.028835    0.762523   -5.838043
    101          1           0        9.414411    2.287798   -5.336918
    102          8           0        0.811017    2.648482   -4.724240
 ---------------------------------------------------------------------

 SCF Done:  E(RB3LYP) =  -2312.17198885     A.U. after    1 cycles

 Alpha  occ. eigenvalues --  -19.27017 -19.23771 -19.22716 -19.19576 -19.18543
 Alpha  occ. eigenvalues --  -19.17144 -19.16430 -19.08925 -19.07791 -14.63228
 Alpha  occ. eigenvalues --  -14.54768 -14.47549 -14.42854 -14.42425 -14.41387
 Alpha  occ. eigenvalues --  -14.38005 -10.40792 -10.39717 -10.37113 -10.36132
 Alpha  occ. eigenvalues --  -10.35990 -10.34197 -10.32976 -10.32621 -10.32059
 Alpha  occ. eigenvalues --  -10.31400 -10.31395 -10.31380 -10.30287 -10.29585
 Alpha  occ. eigenvalues --  -10.28677 -10.27642 -10.26723 -10.26656 -10.26330
 Alpha  occ. eigenvalues --  -10.26129 -10.25755 -10.25522 -10.25413 -10.25315
 Alpha  occ. eigenvalues --  -10.25266 -10.24600 -10.24285 -10.23969 -10.23800
 Alpha  occ. eigenvalues --  -10.23653 -10.23238 -10.22875  -1.17036  -1.16207
 Alpha  occ. eigenvalues --   -1.14269  -1.11446  -1.10625  -1.09878  -1.09682
 Alpha  occ. eigenvalues --   -1.09105  -1.07635  -1.03628  -1.01792  -0.99553
 Alpha  occ. eigenvalues --   -0.99035  -0.97934  -0.95513  -0.93044  -0.92693
 Alpha  occ. eigenvalues --   -0.92196  -0.92033  -0.87787  -0.86272  -0.84967
 Alpha  occ. eigenvalues --   -0.84083  -0.83695  -0.82126  -0.81485  -0.80682
 Alpha  occ. eigenvalues --   -0.79271  -0.78488  -0.77886  -0.75676  -0.75326
 Alpha  occ. eigenvalues --   -0.74391  -0.73637  -0.72811  -0.71843  -0.71102
 Alpha  occ. eigenvalues --   -0.70575  -0.70379  -0.69438  -0.68725  -0.68346
 Alpha  occ. eigenvalues --   -0.67166  -0.66593  -0.66315  -0.65534  -0.64288
 Alpha  occ. eigenvalues --   -0.63762  -0.63225  -0.62955  -0.62164  -0.61567
 Alpha  occ. eigenvalues --   -0.61102  -0.60559  -0.60260  -0.59848  -0.58749
 Alpha  occ. eigenvalues --   -0.57920  -0.57271  -0.56103  -0.55805  -0.55423
 Alpha  occ. eigenvalues --   -0.54760  -0.54569  -0.54479  -0.53888  -0.53679
 Alpha  occ. eigenvalues --   -0.53236  -0.53025  -0.52487  -0.52443  -0.51691
 Alpha  occ. eigenvalues --   -0.51221  -0.50775  -0.50585  -0.49877  -0.49641
 Alpha  occ. eigenvalues --   -0.49365  -0.49292  -0.49151  -0.48995  -0.48621
 Alpha  occ. eigenvalues --   -0.48377  -0.48250  -0.48106  -0.47786  -0.47690
 Alpha  occ. eigenvalues --   -0.47624  -0.47061  -0.46975  -0.46362  -0.46187
 Alpha  occ. eigenvalues --   -0.45073  -0.44927  -0.44818  -0.44480  -0.44328
 Alpha  occ. eigenvalues --   -0.44268  -0.44184  -0.43997  -0.43828  -0.43414
 Alpha  occ. eigenvalues --   -0.42950  -0.42541  -0.42280  -0.42200  -0.41934
 Alpha  occ. eigenvalues --   -0.41562  -0.40800  -0.40671  -0.39716  -0.39565
 Alpha  occ. eigenvalues --   -0.39255  -0.39139  -0.38897  -0.38724  -0.38555
 Alpha  occ. eigenvalues --   -0.38118  -0.37925  -0.37582  -0.35717  -0.35192
 Alpha  occ. eigenvalues --   -0.34179  -0.32983  -0.32399  -0.32132  -0.31677
 Alpha  occ. eigenvalues --   -0.31294  -0.30949  -0.30428  -0.29453  -0.29129
 Alpha  occ. eigenvalues --   -0.24030  -0.23738  -0.21952
 Alpha virt. eigenvalues --   -0.13837  -0.09972  -0.07993  -0.07176  -0.07015
 Alpha virt. eigenvalues --   -0.06709  -0.05767  -0.05166  -0.04456  -0.04297
 Alpha virt. eigenvalues --   -0.03589  -0.02641  -0.02153  -0.00833  -0.00807

 Mulliken charges:
               1
     1  N   -0.774799
     2  H    0.416539
     3  H    0.418987
     4  H    0.418972
     5  C   -0.107075
     6  H    0.212653
     7  C    0.649794
     8  C   -0.109448
     9  H    0.155867
    10  O   -0.546647
    11  C   -0.475060
    12  H    0.161679
    13  H    0.191082
    14  H    0.154522
    15  C   -0.500389
    16  H    0.185074
    17  H    0.175396
    18  H    0.182303
    19  N   -0.583467
    20  H    0.360077
    21  C   -0.081847
    22  H    0.211079
    23  C    0.635794
    24  C   -0.064513
    25  H    0.176315
    26  H    0.154900
    27  O   -0.518772
    28  O   -0.632968
    29  H    0.412937
    30  N   -0.653463
    31  H    0.385055
    32  C   -0.026486
    33  H    0.178659
    34  C    0.617313
    35  C   -0.465885
    36  H    0.176486
    37  H    0.161862
    38  H    0.191848
    39  O   -0.545427
    40  N   -0.587618
    41  H    0.341128
    42  C   -0.067079
    43  H    0.172679
    44  C    0.627514
    45  C   -0.278664
    46  H    0.153598
    47  H    0.148219
    48  O   -0.549855
    49  C   -0.086666
    50  H    0.141407
    51  C   -0.450148
    52  H    0.148264
    53  H    0.142854
    54  H    0.144845
    55  C   -0.443384
    56  H    0.147063
    57  H    0.140372
    58  H    0.150495
    59  N   -0.623095
    60  H    0.362216
    61  C   -0.035168
    62  H    0.180299
    63  C    0.595351
    64  C   -0.385777
    65  H    0.187053
    66  H    0.182901
    67  O   -0.575296
    68  C    0.124091
    69  C   -0.162391
    70  H    0.182391
    71  C   -0.200668
    72  H    0.231693
    73  C   -0.283762
    74  H    0.153615
    75  C   -0.198910
    76  H    0.155184
    77  O   -0.677680
    78  H    0.425919
    79  C    0.336277
    80  N   -0.603187
    81  H    0.357448
    82  C   -0.078969
    83  H    0.145393
    84  C    0.584035
    85  C   -0.256672
    86  H    0.133225
    87  H    0.167119
    88  O   -0.576768
    89  C   -0.263886
    90  H    0.166590
    91  H    0.154454
    92  C   -0.291428
    93  H    0.161764
    94  H    0.164086
    95  C   -0.205445
    96  H    0.225934
    97  H    0.225994
    98  N   -0.731569
    99  H    0.424722
   100  H    0.424578
   101  H    0.425002
   102  O   -0.620631
 Sum of Mulliken charges =   1.00000

 Dipole moment (field-independent basis, Debye):
    X=             22.5527    Y=              7.6163    Z=             -1.3338  Tot=             23.8413
 Quadrupole moment (field-independent basis, Debye-Ang):
   XX=            105.0321   YY=           -247.8153   ZZ=           -224.9341
   XY=            -10.5169   XZ=           -195.0586   YZ=             35.9707

 Normal termination of Gaussian 16 at Mon Jun 27 02:25:45 2022.
