 Gaussian 16, Revision C.01,
 Gaussian 16:  ES64L-G16RevC.01  3-Jul-2019

 ----------------------------------------------------------------------
 # B3LYP/6-31G* empiricaldispersion=gd3 guess=read geom=check nosymm in
 tegral(ultrafinegrid)
 ----------------------------------------------------------------------

 ------------------------------------------------------
 Candidate Structure: Conf:961 Charge calc in gas phase
 ------------------------------------------------------
 Structure from the checkpoint file:  "conf-961.chk"
 Charge =  1 Multiplicity = 1

                          Input orientation:
 ---------------------------------------------------------------------
 Center     Atomic      Atomic             Coordinates (Angstroms)
 Number     Number       Type             X           Y           Z
 ---------------------------------------------------------------------
      1          7           0       -5.969722    2.458572   -1.196962
      2          1           0       -6.942406    2.432276   -1.509650
      3          1           0       -5.541628    3.336203   -1.513184
      4          1           0       -5.893605    2.414119   -0.146826
      5          6           0       -5.143725    1.271014   -1.669586
      6          1           0       -5.855839    0.484691   -1.940365
      7          6           0       -4.408902    0.840319   -0.374510
      8          6           0       -4.286301    1.670513   -2.892743
      9          1           0       -5.000749    2.097486   -3.612331
     10          8           0       -4.720913    1.384623    0.695016
     11          6           0       -3.237948    2.736255   -2.540191
     12          1           0       -2.563155    2.371670   -1.755889
     13          1           0       -2.639169    2.935999   -3.435445
     14          1           0       -3.678474    3.686239   -2.197550
     15          6           0       -3.655740    0.444569   -3.578913
     16          1           0       -2.705495    0.161211   -3.111882
     17          1           0       -4.330354   -0.421353   -3.577057
     18          1           0       -3.409789    0.682939   -4.617093
     19          7           0       -3.512663   -0.144479   -0.468784
     20          1           0       -3.133328   -0.412919   -1.372133
     21          6           0       -2.701807   -0.533587    0.673455
     22          1           0       -3.360576   -0.814989    1.502313
     23          6           0       -1.774087    0.621012    1.087115
     24          6           0       -1.865625   -1.765665    0.229653
     25          1           0       -2.536792   -2.628204    0.163934
     26          1           0       -1.102585   -1.981281    0.989981
     27          8           0       -1.240618    1.335955    0.245815
     28          8           0       -1.300903   -1.577078   -1.048657
     29          1           0       -0.459836   -1.075815   -0.945782
     30          7           0       -1.494894    0.717035    2.417779
     31          1           0       -2.107230    0.259904    3.081596
     32          6           0       -0.592935    1.765312    2.916141
     33          1           0       -0.837536    2.707420    2.416044
     34          6           0        0.869921    1.496793    2.519796
     35          6           0       -0.726199    1.917444    4.432441
     36          1           0       -0.042367    2.698090    4.774667
     37          1           0       -0.470679    0.985335    4.949534
     38          1           0       -1.745704    2.209764    4.705577
     39          8           0        1.657229    2.420541    2.377881
     40          7           0        1.229087    0.178818    2.371090
     41          1           0        0.464758   -0.484052    2.321019
     42          6           0        2.397869   -0.151140    1.546901
     43          1           0        3.162367    0.592391    1.778318
     44          6           0        1.890568    0.008547    0.103089
     45          6           0        2.902388   -1.565500    1.817055
     46          1           0        3.087345   -1.678295    2.891829
     47          1           0        2.101783   -2.266106    1.546826
     48          8           0        1.239821   -0.925071   -0.418713
     49          6           0        4.181814   -1.910482    1.026502
     50          1           0        4.047931   -1.550883   -0.008084
     51          6           0        5.420567   -1.200793    1.592768
     52          1           0        5.608288   -1.521249    2.624765
     53          1           0        6.311619   -1.436560    1.001148
     54          1           0        5.306656   -0.111594    1.594827
     55          6           0        4.398347   -3.430934    0.991533
     56          1           0        4.537161   -3.824786    2.005272
     57          1           0        5.288955   -3.695634    0.410596
     58          1           0        3.535401   -3.962292    0.563339
     59          7           0        2.080198    1.204335   -0.457871
     60          1           0        2.458161    1.933781    0.141591
     61          6           0        1.335188    1.668534   -1.626180
     62          1           0        0.277578    1.661934   -1.351739
     63          6           0        1.502202    0.723765   -2.831034
     64          6           0        1.741231    3.121128   -1.964974
     65          1           0        1.151534    3.428103   -2.836722
     66          1           0        2.795105    3.138948   -2.266152
     67          8           0        2.493397   -0.027392   -2.938057
     68          6           0        1.497363    4.044246   -0.790138
     69          6           0        0.190623    4.272035   -0.328689
     70          1           0       -0.648871    3.830158   -0.858488
     71          6           0        2.554654    4.626181   -0.084387
     72          1           0        3.576410    4.477084   -0.427111
     73          6           0       -0.051165    5.039262    0.802578
     74          1           0       -1.060753    5.222464    1.158072
     75          6           0        2.327568    5.401524    1.053878
     76          1           0        3.165247    5.839876    1.592026
     77          8           0        0.720756    6.317123    2.628871
     78          1           0        1.539007    6.660245    3.020686
     79          6           0        1.022644    5.596461    1.509625
     80          7           0        0.444207    0.819933   -3.642006
     81          1           0       -0.200345    1.624111   -3.523904
     82          6           0        0.092400    0.260526   -4.957377
     83          1           0        0.947275    0.357858   -5.637622
     84          6           0       -1.108344    1.167380   -5.451349
     85          6           0       -0.352716   -1.224953   -4.905197
     86          1           0       -1.374512   -1.296761   -4.514381
     87          1           0       -0.378569   -1.604904   -5.929772
     88          8           0       -1.280517    2.224069   -4.763624
     89          6           0        0.617698   -1.952723   -3.991448
     90          1           0        0.513992   -1.430426   -3.039616
     91          1           0        1.626269   -1.735801   -4.356949
     92          6           0        0.543327   -3.436006   -3.632358
     93          1           0       -0.489144   -3.773522   -3.485456
     94          1           0        0.991287   -4.079244   -4.399355
     95          6           0        1.258306   -3.593023   -2.278877
     96          1           0        1.538489   -4.622948   -2.042260
     97          1           0        0.633115   -3.187838   -1.481810
     98          7           0        2.539776   -2.766517   -2.212580
     99          1           0        2.933576   -2.802616   -1.268954
    100          1           0        3.244483   -3.109124   -2.872056
    101          1           0        2.392113   -1.739889   -2.425367
    102          8           0       -1.789442    0.710289   -6.378316
 ---------------------------------------------------------------------

 SCF Done:  E(RB3LYP) =  -2312.21395614     A.U. after    3 cycles

 Alpha  occ. eigenvalues --  -19.26504 -19.25143 -19.24112 -19.23443 -19.22798
 Alpha  occ. eigenvalues --  -19.21087 -19.18960 -19.12148 -19.10785 -14.58741
 Alpha  occ. eigenvalues --  -14.54825 -14.49029 -14.47886 -14.45825 -14.45737
 Alpha  occ. eigenvalues --  -14.41183 -10.43037 -10.40370 -10.39035 -10.38978
 Alpha  occ. eigenvalues --  -10.38141 -10.35998 -10.35484 -10.35450 -10.34785
 Alpha  occ. eigenvalues --  -10.33309 -10.32945 -10.31495 -10.31278 -10.30718
 Alpha  occ. eigenvalues --  -10.29689 -10.29267 -10.28451 -10.28303 -10.28228
 Alpha  occ. eigenvalues --  -10.27454 -10.26731 -10.26691 -10.26283 -10.26150
 Alpha  occ. eigenvalues --  -10.26124 -10.25722 -10.25665 -10.25506 -10.25245
 Alpha  occ. eigenvalues --  -10.25203 -10.25017 -10.24033  -1.18799  -1.15584
 Alpha  occ. eigenvalues --   -1.14213  -1.13115  -1.12835  -1.12460  -1.12161
 Alpha  occ. eigenvalues --   -1.10063  -1.09193  -1.05762  -1.05064  -1.04156
 Alpha  occ. eigenvalues --   -1.02586  -1.01686  -0.98473  -0.95933  -0.92961
 Alpha  occ. eigenvalues --   -0.91941  -0.91141  -0.89232  -0.89115  -0.86892
 Alpha  occ. eigenvalues --   -0.86266  -0.83874  -0.83481  -0.83400  -0.81268
 Alpha  occ. eigenvalues --   -0.80099  -0.78036  -0.77665  -0.77256  -0.76892
 Alpha  occ. eigenvalues --   -0.75639  -0.74360  -0.73688  -0.73222  -0.72804
 Alpha  occ. eigenvalues --   -0.72359  -0.70926  -0.69990  -0.69475  -0.68795
 Alpha  occ. eigenvalues --   -0.68206  -0.67779  -0.67448  -0.66815  -0.65891
 Alpha  occ. eigenvalues --   -0.65512  -0.65290  -0.64581  -0.63388  -0.62561
 Alpha  occ. eigenvalues --   -0.62432  -0.62368  -0.61023  -0.60839  -0.60389
 Alpha  occ. eigenvalues --   -0.59491  -0.59418  -0.58644  -0.58169  -0.57779
 Alpha  occ. eigenvalues --   -0.57035  -0.56499  -0.55720  -0.55484  -0.55230
 Alpha  occ. eigenvalues --   -0.54817  -0.54127  -0.53824  -0.53680  -0.53158
 Alpha  occ. eigenvalues --   -0.53085  -0.52788  -0.52600  -0.52466  -0.52220
 Alpha  occ. eigenvalues --   -0.51499  -0.51344  -0.50576  -0.50512  -0.50403
 Alpha  occ. eigenvalues --   -0.49992  -0.49777  -0.49391  -0.49003  -0.48831
 Alpha  occ. eigenvalues --   -0.48714  -0.48602  -0.48371  -0.48085  -0.47624
 Alpha  occ. eigenvalues --   -0.47527  -0.47024  -0.46778  -0.46372  -0.46203
 Alpha  occ. eigenvalues --   -0.46110  -0.46025  -0.45634  -0.45194  -0.44669
 Alpha  occ. eigenvalues --   -0.44499  -0.44075  -0.44055  -0.43922  -0.43331
 Alpha  occ. eigenvalues --   -0.43115  -0.42595  -0.42301  -0.42196  -0.42013
 Alpha  occ. eigenvalues --   -0.41724  -0.40867  -0.40695  -0.40257  -0.40117
 Alpha  occ. eigenvalues --   -0.39876  -0.39218  -0.39026  -0.38735  -0.38473
 Alpha  occ. eigenvalues --   -0.38423  -0.37709  -0.36489  -0.36243  -0.34692
 Alpha  occ. eigenvalues --   -0.33927  -0.32735  -0.32057  -0.31484  -0.28076
 Alpha  occ. eigenvalues --   -0.27277  -0.27036  -0.24944
 Alpha virt. eigenvalues --   -0.12195  -0.09951  -0.09649  -0.09294  -0.07544
 Alpha virt. eigenvalues --   -0.07234  -0.06570  -0.06147  -0.04992  -0.04524
 Alpha virt. eigenvalues --   -0.04507  -0.03242  -0.02280  -0.01604  -0.01001

 Mulliken charges:
               1
     1  N   -0.756974
     2  H    0.413563
     3  H    0.413242
     4  H    0.427595
     5  C   -0.114086
     6  H    0.216361
     7  C    0.648367
     8  C   -0.102292
     9  H    0.162210
    10  O   -0.549414
    11  C   -0.535733
    12  H    0.179050
    13  H    0.279082
    14  H    0.110486
    15  C   -0.518484
    16  H    0.172132
    17  H    0.137158
    18  H    0.260598
    19  N   -0.597937
    20  H    0.396340
    21  C   -0.071337
    22  H    0.172409
    23  C    0.633021
    24  C   -0.075074
    25  H    0.176957
    26  H    0.147234
    27  O   -0.510584
    28  O   -0.653186
    29  H    0.470132
    30  N   -0.644997
    31  H    0.346115
    32  C   -0.026291
    33  H    0.211580
    34  C    0.622061
    35  C   -0.489328
    36  H    0.205675
    37  H    0.161547
    38  H    0.172643
    39  O   -0.510871
    40  N   -0.597982
    41  H    0.332323
    42  C   -0.062051
    43  H    0.188515
    44  C    0.637100
    45  C   -0.267719
    46  H    0.162207
    47  H    0.131846
    48  O   -0.635224
    49  C   -0.101008
    50  H    0.118535
    51  C   -0.452556
    52  H    0.159588
    53  H    0.161224
    54  H    0.157108
    55  C   -0.462770
    56  H    0.171733
    57  H    0.161037
    58  H    0.121230
    59  N   -0.587312
    60  H    0.375758
    61  C   -0.075691
    62  H    0.216337
    63  C    0.651991
    64  C   -0.398822
    65  H    0.196270
    66  H    0.168114
    67  O   -0.606172
    68  C    0.143194
    69  C   -0.164799
    70  H    0.140403
    71  C   -0.202912
    72  H    0.135306
    73  C   -0.169715
    74  H    0.130207
    75  C   -0.173232
    76  H    0.130212
    77  O   -0.643010
    78  H    0.413695
    79  C    0.367843
    80  N   -0.632054
    81  H    0.374137
    82  C   -0.063833
    83  H    0.166551
    84  C    0.598613
    85  C   -0.261332
    86  H    0.139004
    87  H    0.170442
    88  O   -0.620389
    89  C   -0.308327
    90  H    0.151694
    91  H    0.148149
    92  C   -0.264482
    93  H    0.174662
    94  H    0.158795
    95  C   -0.206714
    96  H    0.182905
    97  H    0.220869
    98  N   -0.797884
    99  H    0.417434
   100  H    0.392813
   101  H    0.478685
   102  O   -0.569513
 Sum of Mulliken charges =   1.00000

 Dipole moment (field-independent basis, Debye):
    X=             -7.7818    Y=             -3.8551    Z=              7.3909  Tot=             11.4037
 Quadrupole moment (field-independent basis, Debye-Ang):
   XX=           -138.9860   YY=           -230.4769   ZZ=           -317.7073
   XY=            -45.7248   XZ=             -1.3869   YZ=             26.8017

 Normal termination of Gaussian 16 at Mon Jun 27 02:26:58 2022.
