 Gaussian 16, Revision C.01,
 Gaussian 16:  ES64L-G16RevC.01  3-Jul-2019

 ----------------------------------------------------------------------
 # B3LYP/6-31G* empiricaldispersion=gd3 guess=read geom=check nosymm in
 tegral(ultrafinegrid)
 ----------------------------------------------------------------------

 ------------------------------------------------------
 Candidate Structure: Conf:497 Charge calc in gas phase
 ------------------------------------------------------
 Structure from the checkpoint file:  "conf-497.chk"
 Charge =  1 Multiplicity = 1

                          Input orientation:
 ---------------------------------------------------------------------
 Center     Atomic      Atomic             Coordinates (Angstroms)
 Number     Number       Type             X           Y           Z
 ---------------------------------------------------------------------
      1          7           0       -9.444407    3.783542    2.205312
      2          1           0      -10.003073    3.898586    3.055094
      3          1           0      -10.039202    3.959651    1.391436
      4          1           0       -8.635076    4.463531    2.240642
      5          6           0       -8.730112    2.445835    2.138114
      6          1           0       -9.251823    1.749951    2.800294
      7          6           0       -7.318101    2.788025    2.659488
      8          6           0       -8.703064    1.905101    0.686104
      9          1           0       -7.996063    1.068083    0.713371
     10          8           0       -6.969326    3.973911    2.648011
     11          6           0      -10.087133    1.383778    0.273375
     12          1           0      -10.836118    2.187007    0.216364
     13          1           0      -10.034641    0.936814   -0.723559
     14          1           0      -10.462404    0.621370    0.965264
     15          6           0       -8.144953    2.928531   -0.315668
     16          1           0       -8.809529    3.794729   -0.446872
     17          1           0       -7.151563    3.274656   -0.025772
     18          1           0       -8.055995    2.454249   -1.296685
     19          7           0       -6.574264    1.761244    3.087738
     20          1           0       -6.905415    0.817562    2.910758
     21          6           0       -5.119087    1.855540    3.101789
     22          1           0       -4.835467    2.812876    3.547922
     23          6           0       -4.623854    1.809503    1.623565
     24          6           0       -4.570693    0.701720    3.942386
     25          1           0       -4.885171    0.832493    4.988131
     26          1           0       -3.472972    0.707082    3.910234
     27          8           0       -5.423242    1.693669    0.693652
     28          8           0       -5.113991   -0.484085    3.373740
     29          1           0       -4.799107   -1.251190    3.875038
     30          7           0       -3.297635    1.921450    1.475332
     31          1           0       -2.650757    1.968944    2.260960
     32          6           0       -2.616147    1.815179    0.193403
     33          1           0       -3.028364    0.957560   -0.352126
     34          6           0       -1.136978    1.544409    0.542818
     35          6           0       -2.787317    3.085022   -0.655267
     36          1           0       -2.287614    2.980466   -1.623441
     37          1           0       -2.361678    3.950024   -0.136696
     38          1           0       -3.852039    3.260038   -0.829750
     39          8           0       -0.743514    1.619334    1.712052
     40          7           0       -0.343124    1.253337   -0.497891
     41          1           0       -0.688765    1.200264   -1.452164
     42          6           0        1.091079    1.028199   -0.371994
     43          1           0        1.492303    1.769829    0.325400
     44          6           0        1.665392    1.240601   -1.782004
     45          6           0        1.375269   -0.397603    0.162511
     46          1           0        0.786884   -0.502625    1.082634
     47          1           0        0.969003   -1.110869   -0.566650
     48          8           0        0.946926    1.126494   -2.779484
     49          6           0        2.844140   -0.748347    0.470161
     50          1           0        3.432714   -0.656922   -0.451829
     51          6           0        3.460115    0.180706    1.527729
     52          1           0        2.878388    0.148983    2.457769
     53          1           0        4.486963   -0.122792    1.756753
     54          1           0        3.502990    1.227646    1.204999
     55          6           0        2.930130   -2.211356    0.930794
     56          1           0        2.366172   -2.362207    1.860503
     57          1           0        3.969673   -2.501018    1.120351
     58          1           0        2.521915   -2.893602    0.175763
     59          7           0        2.980207    1.519313   -1.837418
     60          1           0        3.552588    1.586230   -1.001348
     61          6           0        3.729519    1.593832   -3.077962
     62          1           0        3.296937    0.884730   -3.790903
     63          6           0        5.175930    1.210152   -2.730588
     64          6           0        3.656787    3.024960   -3.692355
     65          1           0        3.977878    3.734791   -2.921790
     66          1           0        2.598279    3.216611   -3.901219
     67          8           0        5.610744    1.380382   -1.588259
     68          6           0        4.504265    3.166779   -4.932993
     69          6           0        5.771708    3.765267   -4.874828
     70          1           0        6.107107    4.212172   -3.941743
     71          6           0        4.106706    2.585738   -6.143134
     72          1           0        3.126211    2.119712   -6.219038
     73          6           0        6.623571    3.773665   -5.974052
     74          1           0        7.612223    4.217121   -5.920695
     75          6           0        4.951619    2.579931   -7.253066
     76          1           0        4.629984    2.114192   -8.182409
     77          8           0        7.103174    3.176935   -8.206332
     78          1           0        6.744260    2.648204   -8.935537
     79          6           0        6.220162    3.163599   -7.166886
     80          7           0        5.912311    0.724221   -3.749509
     81          1           0        5.522656    0.684315   -4.685292
     82          6           0        7.361731    0.616803   -3.674364
     83          1           0        7.744991    1.417000   -3.036637
     84          6           0        7.936921    0.768709   -5.072680
     85          6           0        7.808476   -0.758473   -3.088907
     86          1           0        7.633728   -0.702988   -2.009800
     87          1           0        7.124296   -1.520067   -3.482208
     88          8           0        9.155225    1.292819   -5.044623
     89          6           0        9.268858   -1.165676   -3.393260
     90          1           0        9.630653   -1.801537   -2.577365
     91          1           0        9.902551   -0.273437   -3.387397
     92          6           0        9.434665   -1.939308   -4.733673
     93          1           0        9.455255   -3.012993   -4.512902
     94          1           0        8.553452   -1.791001   -5.369124
     95          6           0       10.686306   -1.602938   -5.568525
     96          1           0       11.006583   -2.496571   -6.123299
     97          1           0       11.517453   -1.318491   -4.913217
     98          7           0       10.447916   -0.470993   -6.502412
     99          1           0       11.295603   -0.260284   -7.027360
    100          1           0        9.734328   -0.733163   -7.183204
    101          1           0        9.713923    0.822575   -5.768543
    102          8           0        7.376101    0.329831   -6.066067
 ---------------------------------------------------------------------

 SCF Done:  E(RB3LYP) =  -2312.22805811     A.U. after    2 cycles

 Alpha  occ. eigenvalues --  -19.26538 -19.25761 -19.21573 -19.20861 -19.20148
 Alpha  occ. eigenvalues --  -19.19045 -19.17587 -19.17098 -19.16594 -14.59898
 Alpha  occ. eigenvalues --  -14.49008 -14.44376 -14.42672 -14.41539 -14.40472
 Alpha  occ. eigenvalues --  -14.39484 -10.43123 -10.40008 -10.38088 -10.36049
 Alpha  occ. eigenvalues --  -10.34946 -10.34695 -10.34647 -10.34429 -10.33560
 Alpha  occ. eigenvalues --  -10.33242 -10.31339 -10.30155 -10.29376 -10.28894
 Alpha  occ. eigenvalues --  -10.28836 -10.28612 -10.27285 -10.26742 -10.25562
 Alpha  occ. eigenvalues --  -10.24071 -10.24038 -10.24029 -10.23360 -10.23227
 Alpha  occ. eigenvalues --  -10.23090 -10.23052 -10.23037 -10.22999 -10.22536
 Alpha  occ. eigenvalues --  -10.22339 -10.22190 -10.22092  -1.19013  -1.13965
 Alpha  occ. eigenvalues --   -1.13273  -1.12438  -1.12402  -1.10900  -1.09676
 Alpha  occ. eigenvalues --   -1.09515  -1.08272  -1.05723  -1.03908  -1.01134
 Alpha  occ. eigenvalues --   -0.99340  -0.98232  -0.97183  -0.94963  -0.94509
 Alpha  occ. eigenvalues --   -0.89571  -0.88867  -0.86844  -0.85326  -0.84634
 Alpha  occ. eigenvalues --   -0.83798  -0.83220  -0.80738  -0.80136  -0.79560
 Alpha  occ. eigenvalues --   -0.78826  -0.76873  -0.75595  -0.74193  -0.73908
 Alpha  occ. eigenvalues --   -0.73823  -0.73355  -0.73070  -0.72129  -0.71348
 Alpha  occ. eigenvalues --   -0.70516  -0.70050  -0.67249  -0.66980  -0.66275
 Alpha  occ. eigenvalues --   -0.65903  -0.65334  -0.64779  -0.64130  -0.63446
 Alpha  occ. eigenvalues --   -0.63204  -0.62430  -0.62235  -0.61544  -0.61480
 Alpha  occ. eigenvalues --   -0.60955  -0.59262  -0.58514  -0.58310  -0.57188
 Alpha  occ. eigenvalues --   -0.56873  -0.56371  -0.56175  -0.55558  -0.54830
 Alpha  occ. eigenvalues --   -0.54462  -0.54276  -0.53920  -0.53522  -0.52916
 Alpha  occ. eigenvalues --   -0.52249  -0.52128  -0.51800  -0.51555  -0.51202
 Alpha  occ. eigenvalues --   -0.51078  -0.50969  -0.50619  -0.50354  -0.50061
 Alpha  occ. eigenvalues --   -0.49676  -0.49469  -0.49212  -0.48984  -0.48668
 Alpha  occ. eigenvalues --   -0.48221  -0.47892  -0.47450  -0.47240  -0.47071
 Alpha  occ. eigenvalues --   -0.46829  -0.46617  -0.46370  -0.46247  -0.46134
 Alpha  occ. eigenvalues --   -0.45824  -0.45543  -0.45395  -0.45184  -0.44965
 Alpha  occ. eigenvalues --   -0.44476  -0.44379  -0.43707  -0.43383  -0.43095
 Alpha  occ. eigenvalues --   -0.42818  -0.42557  -0.42111  -0.41428  -0.41107
 Alpha  occ. eigenvalues --   -0.40848  -0.40694  -0.40219  -0.39816  -0.39673
 Alpha  occ. eigenvalues --   -0.39288  -0.38505  -0.38349  -0.37987  -0.37717
 Alpha  occ. eigenvalues --   -0.37643  -0.37590  -0.37548  -0.37260  -0.36696
 Alpha  occ. eigenvalues --   -0.34878  -0.34395  -0.33670  -0.33171  -0.32311
 Alpha  occ. eigenvalues --   -0.31889  -0.31715  -0.31175  -0.31028  -0.30106
 Alpha  occ. eigenvalues --   -0.29447  -0.29204  -0.25506
 Alpha virt. eigenvalues --   -0.12190  -0.11022  -0.07043  -0.06510  -0.04835
 Alpha virt. eigenvalues --   -0.04691  -0.04321  -0.03868  -0.03350  -0.02722
 Alpha virt. eigenvalues --   -0.02494  -0.01734  -0.00957  -0.00643   0.00483

 Mulliken charges:
               1
     1  N   -0.754329
     2  H    0.416109
     3  H    0.412371
     4  H    0.433023
     5  C   -0.122628
     6  H    0.202980
     7  C    0.671656
     8  C   -0.116335
     9  H    0.204910
    10  O   -0.536597
    11  C   -0.460486
    12  H    0.133399
    13  H    0.197576
    14  H    0.166926
    15  C   -0.477229
    16  H    0.120939
    17  H    0.214921
    18  H    0.193002
    19  N   -0.577926
    20  H    0.367482
    21  C   -0.110711
    22  H    0.211557
    23  C    0.656159
    24  C   -0.053631
    25  H    0.160167
    26  H    0.169399
    27  O   -0.547688
    28  O   -0.627694
    29  H    0.421650
    30  N   -0.618181
    31  H    0.363179
    32  C   -0.041041
    33  H    0.183087
    34  C    0.626852
    35  C   -0.450831
    36  H    0.166088
    37  H    0.165294
    38  H    0.177537
    39  O   -0.553939
    40  N   -0.623533
    41  H    0.357877
    42  C   -0.052458
    43  H    0.178221
    44  C    0.616403
    45  C   -0.254621
    46  H    0.159682
    47  H    0.142083
    48  O   -0.553170
    49  C   -0.092949
    50  H    0.140856
    51  C   -0.450566
    52  H    0.147914
    53  H    0.160557
    54  H    0.138777
    55  C   -0.444013
    56  H    0.140040
    57  H    0.151591
    58  H    0.143553
    59  N   -0.620564
    60  H    0.368847
    61  C   -0.046171
    62  H    0.175704
    63  C    0.613528
    64  C   -0.347811
    65  H    0.155059
    66  H    0.172929
    67  O   -0.552831
    68  C    0.145900
    69  C   -0.188717
    70  H    0.136838
    71  C   -0.214129
    72  H    0.135965
    73  C   -0.164952
    74  H    0.152215
    75  C   -0.180278
    76  H    0.125386
    77  O   -0.639907
    78  H    0.410063
    79  C    0.371828
    80  N   -0.607842
    81  H    0.358966
    82  C   -0.000290
    83  H    0.183459
    84  C    0.587294
    85  C   -0.279820
    86  H    0.168772
    87  H    0.148498
    88  O   -0.603879
    89  C   -0.287572
    90  H    0.143684
    91  H    0.169076
    92  C   -0.291019
    93  H    0.147566
    94  H    0.164208
    95  C   -0.140268
    96  H    0.143550
    97  H    0.161983
    98  N   -0.776085
    99  H    0.329935
   100  H    0.338517
   101  H    0.455338
   102  O   -0.516234
 Sum of Mulliken charges =   1.00000

 Dipole moment (field-independent basis, Debye):
    X=            -26.5499    Y=              7.0361    Z=              4.0748  Tot=             27.7670
 Quadrupole moment (field-independent basis, Debye-Ang):
   XX=            132.8532   YY=           -248.2204   ZZ=           -194.8476
   XY=           -123.5856   XZ=           -144.3912   YZ=             29.0675

 Normal termination of Gaussian 16 at Mon Jun 27 02:26:07 2022.
