 Gaussian 16, Revision C.01,
 Gaussian 16:  ES64L-G16RevC.01  3-Jul-2019

 ----------------------------------------------------------------------
 # B3LYP/6-31G* empiricaldispersion=gd3 guess=read geom=check nosymm in
 tegral(ultrafinegrid)
 ----------------------------------------------------------------------

 ------------------------------------------------------
 Candidate Structure: Conf:883 Charge calc in gas phase
 ------------------------------------------------------
 Structure from the checkpoint file:  "conf-883.chk"
 Charge =  1 Multiplicity = 1

                          Input orientation:
 ---------------------------------------------------------------------
 Center     Atomic      Atomic             Coordinates (Angstroms)
 Number     Number       Type             X           Y           Z
 ---------------------------------------------------------------------
      1          7           0       -6.876302    1.650950    5.786578
      2          1           0       -6.407490    1.233450    6.595057
      3          1           0       -7.885269    1.506375    5.880282
      4          1           0       -6.637151    2.688773    5.749521
      5          6           0       -6.322612    1.163339    4.458578
      6          1           0       -5.738367    0.259288    4.646793
      7          6           0       -5.417327    2.350915    4.034027
      8          6           0       -7.478788    0.864037    3.469696
      9          1           0       -8.143929    0.165565    4.000803
     10          8           0       -5.568404    3.428794    4.630895
     11          6           0       -8.272181    2.127410    3.100592
     12          1           0       -7.651503    2.831483    2.536731
     13          1           0       -9.125128    1.855968    2.472481
     14          1           0       -8.669646    2.662178    3.972290
     15          6           0       -6.970313    0.134102    2.215622
     16          1           0       -6.375340    0.784833    1.567463
     17          1           0       -6.369031   -0.746484    2.470648
     18          1           0       -7.826693   -0.211729    1.629595
     19          7           0       -4.569447    2.128278    3.039596
     20          1           0       -4.541608    1.238573    2.541575
     21          6           0       -3.768684    3.156078    2.387424
     22          1           0       -4.290406    4.115850    2.434924
     23          6           0       -3.581980    2.675186    0.945273
     24          6           0       -2.377909    3.306467    3.083801
     25          1           0       -1.903222    2.316061    3.121846
     26          1           0       -2.562989    3.645557    4.108759
     27          8           0       -3.834063    1.504623    0.642854
     28          8           0       -1.572210    4.254096    2.430857
     29          1           0       -1.036708    3.759806    1.767131
     30          7           0       -3.062002    3.585215    0.088256
     31          1           0       -2.691854    4.421010    0.533895
     32          6           0       -2.307816    3.101966   -1.069710
     33          1           0       -2.975319    2.471939   -1.663748
     34          6           0       -1.125901    2.255504   -0.545881
     35          6           0       -1.797968    4.282294   -1.899602
     36          1           0       -1.257355    3.920480   -2.778880
     37          1           0       -1.110273    4.898153   -1.309045
     38          1           0       -2.633423    4.903844   -2.234903
     39          8           0       -0.549170    2.559907    0.510740
     40          7           0       -0.781220    1.204690   -1.295444
     41          1           0       -1.222838    1.024606   -2.193144
     42          6           0        0.307375    0.289348   -0.980611
     43          1           0        1.042972    0.829469   -0.378509
     44          6           0        0.903225   -0.141079   -2.333041
     45          6           0       -0.201362   -0.965156   -0.230443
     46          1           0       -0.891239   -1.487241   -0.906830
     47          1           0        0.653825   -1.637442   -0.075443
     48          8           0        0.215086   -0.101828   -3.355760
     49          6           0       -0.902104   -0.706351    1.116678
     50          1           0       -1.700340    0.028333    0.948746
     51          6           0       -1.561243   -2.004164    1.608276
     52          1           0       -0.812084   -2.788022    1.778102
     53          1           0       -2.085971   -1.840587    2.558052
     54          1           0       -2.287981   -2.386535    0.881752
     55          6           0        0.059397   -0.150298    2.176260
     56          1           0        0.883712   -0.850958    2.363287
     57          1           0       -0.462984    0.000487    3.130052
     58          1           0        0.477405    0.813541    1.875355
     59          7           0        2.163874   -0.608892   -2.291051
     60          1           0        2.730932   -0.558924   -1.450265
     61          6           0        2.867230   -1.089166   -3.469980
     62          1           0        2.182180   -1.706547   -4.058859
     63          6           0        4.061773   -1.909169   -2.968610
     64          6           0        3.363689    0.096985   -4.352599
     65          1           0        3.910627    0.785873   -3.699208
     66          1           0        2.469470    0.614789   -4.715417
     67          8           0        4.633328   -1.593568   -1.920421
     68          6           0        4.244191   -0.372859   -5.483548
     69          6           0        5.640863   -0.317201   -5.372296
     70          1           0        6.087038    0.166438   -4.506150
     71          6           0        3.696844   -1.007914   -6.605154
     72          1           0        2.615849   -1.057433   -6.720349
     73          6           0        6.467887   -0.896242   -6.329426
     74          1           0        7.549043   -0.862559   -6.239827
     75          6           0        4.511866   -1.596498   -7.570055
     76          1           0        4.069864   -2.102107   -8.425599
     77          8           0        6.758864   -2.138942   -8.312664
     78          1           0        6.257192   -2.710231   -8.914652
     79          6           0        5.902995   -1.560368   -7.423825
     80          7           0        4.439459   -2.938899   -3.754161
     81          1           0        4.053972   -3.031177   -4.691103
     82          6           0        5.746086   -3.561416   -3.598782
     83          1           0        6.501901   -2.761799   -3.591152
     84          6           0        5.997463   -4.388988   -4.876590
     85          6           0        5.888021   -4.384542   -2.293142
     86          1           0        5.061017   -4.125269   -1.629665
     87          1           0        5.777630   -5.449076   -2.526800
     88          8           0        7.057131   -5.188180   -4.902622
     89          6           0        7.223533   -4.099399   -1.579708
     90          1           0        7.092690   -3.222006   -0.936390
     91          1           0        7.979275   -3.809671   -2.320023
     92          6           0        7.783755   -5.272682   -0.765009
     93          1           0        8.733027   -4.960028   -0.308376
     94          1           0        7.113370   -5.527630    0.065873
     95          6           0        8.019044   -6.540633   -1.601460
     96          1           0        7.067811   -7.040623   -1.813389
     97          1           0        8.628825   -7.251971   -1.025433
     98          7           0        8.624791   -6.208156   -2.909559
     99          1           0        8.816650   -7.061822   -3.433427
    100          1           0        7.566103   -5.342497   -4.045561
    101          1           0        9.527279   -5.752306   -2.771402
    102          8           0        5.261928   -4.290435   -5.840330
 ---------------------------------------------------------------------

 SCF Done:  E(RB3LYP) =  -2312.23723870     A.U. after    2 cycles

 Alpha  occ. eigenvalues --  -19.27245 -19.22905 -19.22240 -19.21209 -19.21168
 Alpha  occ. eigenvalues --  -19.20808 -19.18305 -19.17174 -19.16903 -14.60426
 Alpha  occ. eigenvalues --  -14.50004 -14.45575 -14.44389 -14.42430 -14.40583
 Alpha  occ. eigenvalues --  -14.40149 -10.43992 -10.41050 -10.39323 -10.37555
 Alpha  occ. eigenvalues --  -10.35529 -10.35457 -10.35018 -10.34235 -10.33978
 Alpha  occ. eigenvalues --  -10.32949 -10.32584 -10.30840 -10.30619 -10.30211
 Alpha  occ. eigenvalues --  -10.29012 -10.28647 -10.28335 -10.27384 -10.27029
 Alpha  occ. eigenvalues --  -10.25629 -10.25393 -10.24159 -10.24082 -10.24049
 Alpha  occ. eigenvalues --  -10.23662 -10.23403 -10.23344 -10.23205 -10.23150
 Alpha  occ. eigenvalues --  -10.23033 -10.22815 -10.22378  -1.19751  -1.14902
 Alpha  occ. eigenvalues --   -1.14158  -1.12677  -1.12356  -1.10332  -1.10000
 Alpha  occ. eigenvalues --   -1.09353  -1.08810  -1.06612  -1.04552  -1.02511
 Alpha  occ. eigenvalues --   -1.00885  -0.98920  -0.97449  -0.95869  -0.95637
 Alpha  occ. eigenvalues --   -0.89533  -0.89059  -0.88019  -0.86300  -0.85471
 Alpha  occ. eigenvalues --   -0.84371  -0.83844  -0.81735  -0.81549  -0.80227
 Alpha  occ. eigenvalues --   -0.78728  -0.77227  -0.76075  -0.75775  -0.74635
 Alpha  occ. eigenvalues --   -0.74464  -0.74204  -0.74016  -0.72768  -0.71347
 Alpha  occ. eigenvalues --   -0.70299  -0.69635  -0.69037  -0.68345  -0.66959
 Alpha  occ. eigenvalues --   -0.66328  -0.66130  -0.65680  -0.64806  -0.63767
 Alpha  occ. eigenvalues --   -0.62952  -0.62879  -0.62631  -0.62206  -0.62058
 Alpha  occ. eigenvalues --   -0.61630  -0.60860  -0.59867  -0.58843  -0.58145
 Alpha  occ. eigenvalues --   -0.57837  -0.57225  -0.56784  -0.56715  -0.55668
 Alpha  occ. eigenvalues --   -0.55460  -0.55102  -0.54611  -0.54082  -0.53765
 Alpha  occ. eigenvalues --   -0.53565  -0.52938  -0.52478  -0.52425  -0.52009
 Alpha  occ. eigenvalues --   -0.51462  -0.51189  -0.51015  -0.50871  -0.50773
 Alpha  occ. eigenvalues --   -0.50641  -0.50146  -0.49717  -0.49236  -0.49158
 Alpha  occ. eigenvalues --   -0.48966  -0.48654  -0.48121  -0.47823  -0.47627
 Alpha  occ. eigenvalues --   -0.47605  -0.47575  -0.47462  -0.47168  -0.46904
 Alpha  occ. eigenvalues --   -0.46512  -0.46094  -0.45838  -0.45584  -0.45368
 Alpha  occ. eigenvalues --   -0.44905  -0.44710  -0.44460  -0.44277  -0.43753
 Alpha  occ. eigenvalues --   -0.43555  -0.42763  -0.42708  -0.42485  -0.41839
 Alpha  occ. eigenvalues --   -0.41654  -0.41333  -0.40759  -0.40631  -0.40155
 Alpha  occ. eigenvalues --   -0.39657  -0.39302  -0.39049  -0.38938  -0.38834
 Alpha  occ. eigenvalues --   -0.38104  -0.37811  -0.37508  -0.37152  -0.36638
 Alpha  occ. eigenvalues --   -0.36565  -0.35292  -0.34395  -0.34232  -0.33792
 Alpha  occ. eigenvalues --   -0.32984  -0.32648  -0.31809  -0.30978  -0.30606
 Alpha  occ. eigenvalues --   -0.30283  -0.29172  -0.25374
 Alpha virt. eigenvalues --   -0.12724  -0.11628  -0.09094  -0.07217  -0.06320
 Alpha virt. eigenvalues --   -0.05176  -0.04781  -0.04611  -0.02863  -0.02720
 Alpha virt. eigenvalues --   -0.02087  -0.01817  -0.01260  -0.00353   0.00721

 Mulliken charges:
               1
     1  N   -0.760977
     2  H    0.417770
     3  H    0.412737
     4  H    0.436332
     5  C   -0.108507
     6  H    0.210866
     7  C    0.650585
     8  C   -0.111178
     9  H    0.159957
    10  O   -0.542247
    11  C   -0.469905
    12  H    0.186839
    13  H    0.195735
    14  H    0.142168
    15  C   -0.482642
    16  H    0.191157
    17  H    0.165332
    18  H    0.191064
    19  N   -0.601439
    20  H    0.378712
    21  C   -0.094049
    22  H    0.203137
    23  C    0.619542
    24  C   -0.034259
    25  H    0.157556
    26  H    0.168050
    27  O   -0.541638
    28  O   -0.641416
    29  H    0.445749
    30  N   -0.582417
    31  H    0.352949
    32  C   -0.065672
    33  H    0.184926
    34  C    0.656556
    35  C   -0.474545
    36  H    0.183627
    37  H    0.174655
    38  H    0.181574
    39  O   -0.576831
    40  N   -0.587164
    41  H    0.359605
    42  C   -0.079034
    43  H    0.181382
    44  C    0.633632
    45  C   -0.251727
    46  H    0.149475
    47  H    0.147343
    48  O   -0.549022
    49  C   -0.087280
    50  H    0.146446
    51  C   -0.440374
    52  H    0.149668
    53  H    0.119755
    54  H    0.145252
    55  C   -0.462141
    56  H    0.141347
    57  H    0.125494
    58  H    0.177978
    59  N   -0.619549
    60  H    0.351713
    61  C   -0.029794
    62  H    0.175420
    63  C    0.612899
    64  C   -0.354033
    65  H    0.153083
    66  H    0.176361
    67  O   -0.560501
    68  C    0.145269
    69  C   -0.189525
    70  H    0.133976
    71  C   -0.211927
    72  H    0.134361
    73  C   -0.167597
    74  H    0.143380
    75  C   -0.166782
    76  H    0.129394
    77  O   -0.639453
    78  H    0.414811
    79  C    0.371298
    80  N   -0.619323
    81  H    0.370331
    82  C   -0.046366
    83  H    0.183717
    84  C    0.595754
    85  C   -0.286917
    86  H    0.174901
    87  H    0.145733
    88  O   -0.616528
    89  C   -0.271517
    90  H    0.167214
    91  H    0.134692
    92  C   -0.281174
    93  H    0.142375
    94  H    0.149105
    95  C   -0.138889
    96  H    0.160028
    97  H    0.145680
    98  N   -0.770249
    99  H    0.336230
   100  H    0.477408
   101  H    0.325355
   102  O   -0.480855
 Sum of Mulliken charges =   1.00000

 Dipole moment (field-independent basis, Debye):
    X=            -19.7672    Y=             -0.1769    Z=             16.8803  Tot=             25.9946
 Quadrupole moment (field-independent basis, Debye-Ang):
   XX=            -28.7727   YY=           -240.0991   ZZ=           -180.1567
   XY=            -85.8098   XZ=           -134.6974   YZ=             14.6032

 Normal termination of Gaussian 16 at Mon Jun 27 02:25:56 2022.
