 Gaussian 16, Revision C.01,
 Gaussian 16:  ES64L-G16RevC.01  3-Jul-2019

 ----------------------------------------------------------------------
 # B3LYP/6-31G* empiricaldispersion=gd3 guess=read geom=check nosymm in
 tegral(ultrafinegrid)
 ----------------------------------------------------------------------

 ------------------------------------------------------
 Candidate Structure: Conf:112 Charge calc in gas phase
 ------------------------------------------------------
 Structure from the checkpoint file:  "conf-112.chk"
 Charge =  1 Multiplicity = 1

                          Input orientation:
 ---------------------------------------------------------------------
 Center     Atomic      Atomic             Coordinates (Angstroms)
 Number     Number       Type             X           Y           Z
 ---------------------------------------------------------------------
      1          7           0       -7.682219    2.668658    4.902229
      2          1           0       -7.336774    2.892253    5.840208
      3          1           0       -8.704864    2.643984    4.929563
      4          1           0       -7.327089    3.408124    4.231564
      5          6           0       -7.070163    1.402041    4.327054
      6          1           0       -6.722534    0.780007    5.156568
      7          6           0       -5.891144    1.976494    3.495901
      8          6           0       -8.123997    0.638817    3.484933
      9          1           0       -8.482483    1.334143    2.711945
     10          8           0       -5.961640    3.166290    3.153333
     11          6           0       -7.497102   -0.579922    2.786739
     12          1           0       -7.043720   -1.265456    3.513777
     13          1           0       -8.277414   -1.134625    2.258405
     14          1           0       -6.737187   -0.300801    2.054022
     15          6           0       -9.309243    0.190026    4.358799
     16          1           0       -8.977691   -0.496031    5.146983
     17          1           0       -9.854045    1.015174    4.837824
     18          1           0      -10.042191   -0.337952    3.742498
     19          7           0       -4.894014    1.149619    3.204294
     20          1           0       -4.887683    0.168708    3.485785
     21          6           0       -3.775627    1.493313    2.333553
     22          1           0       -4.114388    2.174287    1.547770
     23          6           0       -3.262472    0.158452    1.777715
     24          6           0       -2.647840    2.178505    3.160303
     25          1           0       -2.344766    1.496860    3.966765
     26          1           0       -3.061397    3.088111    3.605253
     27          8           0       -3.465806   -0.876755    2.418159
     28          8           0       -1.549279    2.557275    2.362081
     29          1           0       -1.003037    1.761059    2.145023
     30          7           0       -2.556687    0.236100    0.632744
     31          1           0       -2.409825    1.155046    0.207949
     32          6           0       -1.670014   -0.840554    0.227148
     33          1           0       -2.085290   -1.765937    0.638664
     34          6           0       -0.280871   -0.612133    0.875784
     35          6           0       -1.588910   -0.929212   -1.304148
     36          1           0       -1.016210   -1.803591   -1.627315
     37          1           0       -1.110432   -0.038097   -1.721371
     38          1           0       -2.596455   -1.018016   -1.719504
     39          8           0       -0.044306    0.358159    1.605160
     40          7           0        0.650529   -1.546848    0.587895
     41          1           0        0.412932   -2.295435   -0.051136
     42          6           0        2.081570   -1.401414    0.891997
     43          1           0        2.174759   -0.480550    1.468790
     44          6           0        2.768764   -1.257028   -0.482760
     45          6           0        2.625268   -2.588820    1.688586
     46          1           0        2.597466   -3.476143    1.042962
     47          1           0        3.685453   -2.385011    1.899638
     48          8           0        3.013059   -2.263207   -1.166895
     49          6           0        1.887705   -2.879289    3.008443
     50          1           0        0.846180   -3.128357    2.758983
     51          6           0        2.516952   -4.100062    3.694470
     52          1           0        3.556497   -3.894559    3.980733
     53          1           0        1.969139   -4.364117    4.605607
     54          1           0        2.516580   -4.977361    3.036307
     55          6           0        1.871924   -1.665734    3.950498
     56          1           0        2.893629   -1.326439    4.166750
     57          1           0        1.403233   -1.928017    4.905644
     58          1           0        1.313891   -0.823482    3.527658
     59          7           0        2.942148    0.009234   -0.886059
     60          1           0        2.618919    0.740141   -0.264390
     61          6           0        3.314336    0.421417   -2.235911
     62          1           0        2.606262   -0.039433   -2.935777
     63          6           0        4.731283   -0.069285   -2.612596
     64          6           0        3.203242    1.966946   -2.359640
     65          1           0        3.383919    2.234631   -3.405737
     66          1           0        4.008425    2.422701   -1.771220
     67          8           0        5.467023   -0.586627   -1.737710
     68          6           0        1.855399    2.447678   -1.876541
     69          6           0        0.699308    2.244402   -2.645089
     70          1           0        0.793080    1.877714   -3.664516
     71          6           0        1.703077    2.963695   -0.583358
     72          1           0        2.585969    3.175739    0.016918
     73          6           0       -0.567646    2.485866   -2.118688
     74          1           0       -1.463373    2.326512   -2.711705
     75          6           0        0.441818    3.198748   -0.035705
     76          1           0        0.343174    3.571571    0.979203
     77          8           0       -1.966016    3.026116   -0.269750
     78          1           0       -1.874908    3.194181    0.696739
     79          6           0       -0.696804    2.920982   -0.795075
     80          7           0        4.987684    0.095551   -3.901438
     81          1           0        4.380857    0.675804   -4.543574
     82          6           0        6.215523   -0.060438   -4.693837
     83          1           0        7.072393    0.300527   -4.114250
     84          6           0        5.976727    0.874225   -5.955693
     85          6           0        6.479013   -1.525449   -5.133523
     86          1           0        5.785159   -1.808468   -5.934958
     87          1           0        7.491106   -1.574279   -5.543733
     88          8           0        6.908194    0.905566   -6.764433
     89          6           0        6.254780   -2.377871   -3.891562
     90          1           0        5.216106   -2.155843   -3.630315
     91          1           0        6.872529   -1.939427   -3.101837
     92          6           0        6.361706   -3.899162   -3.774289
     93          1           0        6.001952   -4.420628   -4.669328
     94          1           0        7.389261   -4.237598   -3.595591
     95          6           0        5.428752   -4.303383   -2.615226
     96          1           0        5.600005   -5.314861   -2.237335
     97          1           0        4.386378   -4.216572   -2.930927
     98          7           0        5.532067   -3.361601   -1.418893
     99          1           0        4.681326   -3.425561   -0.844316
    100          1           0        6.360674   -3.550956   -0.850201
    101          1           0        5.551065   -2.331374   -1.680141
    102          8           0        4.831868    1.429707   -5.964364
 ---------------------------------------------------------------------

 SCF Done:  E(RB3LYP) =  -2312.18630528     A.U. after    2 cycles

 Alpha  occ. eigenvalues --  -19.28218 -19.25657 -19.25351 -19.23517 -19.23459
 Alpha  occ. eigenvalues --  -19.21096 -19.16769 -19.07471 -19.05856 -14.61505
 Alpha  occ. eigenvalues --  -14.52175 -14.51226 -14.47185 -14.46719 -14.44805
 Alpha  occ. eigenvalues --  -14.38342 -10.45106 -10.42176 -10.40413 -10.40094
 Alpha  occ. eigenvalues --  -10.37933 -10.36047 -10.35753 -10.35202 -10.34245
 Alpha  occ. eigenvalues --  -10.33711 -10.33206 -10.32687 -10.32562 -10.32379
 Alpha  occ. eigenvalues --  -10.31366 -10.30343 -10.28359 -10.27360 -10.27002
 Alpha  occ. eigenvalues --  -10.26557 -10.26552 -10.26500 -10.26365 -10.26297
 Alpha  occ. eigenvalues --  -10.26229 -10.26142 -10.25046 -10.24789 -10.24635
 Alpha  occ. eigenvalues --  -10.23094 -10.23009 -10.21313  -1.20775  -1.15905
 Alpha  occ. eigenvalues --   -1.15317  -1.14670  -1.13699  -1.12524  -1.12397
 Alpha  occ. eigenvalues --   -1.07831  -1.07710  -1.06740  -1.03718  -1.03464
 Alpha  occ. eigenvalues --   -1.01196  -1.00389  -0.96781  -0.95386  -0.92827
 Alpha  occ. eigenvalues --   -0.91529  -0.90666  -0.89764  -0.87698  -0.87148
 Alpha  occ. eigenvalues --   -0.86278  -0.85641  -0.83208  -0.82913  -0.82295
 Alpha  occ. eigenvalues --   -0.81461  -0.79620  -0.77997  -0.76545  -0.76040
 Alpha  occ. eigenvalues --   -0.75691  -0.75286  -0.74903  -0.74409  -0.73000
 Alpha  occ. eigenvalues --   -0.72072  -0.71596  -0.70634  -0.69582  -0.69431
 Alpha  occ. eigenvalues --   -0.69036  -0.68012  -0.67580  -0.66276  -0.66165
 Alpha  occ. eigenvalues --   -0.65432  -0.65232  -0.64939  -0.63821  -0.62908
 Alpha  occ. eigenvalues --   -0.61816  -0.61679  -0.60694  -0.60047  -0.59833
 Alpha  occ. eigenvalues --   -0.59553  -0.59104  -0.58502  -0.57976  -0.57790
 Alpha  occ. eigenvalues --   -0.56985  -0.56762  -0.56654  -0.56358  -0.55494
 Alpha  occ. eigenvalues --   -0.55131  -0.54850  -0.54643  -0.54434  -0.53944
 Alpha  occ. eigenvalues --   -0.53558  -0.53224  -0.52977  -0.52376  -0.52142
 Alpha  occ. eigenvalues --   -0.51494  -0.51150  -0.51014  -0.50910  -0.50431
 Alpha  occ. eigenvalues --   -0.49863  -0.49572  -0.49474  -0.49290  -0.48990
 Alpha  occ. eigenvalues --   -0.48884  -0.48722  -0.48589  -0.48528  -0.48073
 Alpha  occ. eigenvalues --   -0.47863  -0.47803  -0.47592  -0.47225  -0.47149
 Alpha  occ. eigenvalues --   -0.46405  -0.45950  -0.45702  -0.45564  -0.44599
 Alpha  occ. eigenvalues --   -0.44458  -0.44336  -0.43586  -0.43043  -0.42849
 Alpha  occ. eigenvalues --   -0.42647  -0.41892  -0.41526  -0.40787  -0.40669
 Alpha  occ. eigenvalues --   -0.40556  -0.40462  -0.40401  -0.39908  -0.38591
 Alpha  occ. eigenvalues --   -0.38354  -0.37967  -0.37531  -0.37436  -0.37298
 Alpha  occ. eigenvalues --   -0.36971  -0.36176  -0.36144  -0.34836  -0.34420
 Alpha  occ. eigenvalues --   -0.34048  -0.32665  -0.30895  -0.29617  -0.29268
 Alpha  occ. eigenvalues --   -0.22605  -0.22224  -0.20073
 Alpha virt. eigenvalues --   -0.14096  -0.12375  -0.09887  -0.09418  -0.08251
 Alpha virt. eigenvalues --   -0.07875  -0.06932  -0.06366  -0.06010  -0.04129
 Alpha virt. eigenvalues --   -0.03304  -0.02975  -0.02596  -0.02368  -0.01203

 Mulliken charges:
               1
     1  N   -0.757010
     2  H    0.418769
     3  H    0.412688
     4  H    0.434399
     5  C   -0.105498
     6  H    0.206677
     7  C    0.649779
     8  C   -0.109871
     9  H    0.173370
    10  O   -0.537404
    11  C   -0.474844
    12  H    0.168202
    13  H    0.192842
    14  H    0.182914
    15  C   -0.472955
    16  H    0.178746
    17  H    0.140372
    18  H    0.205272
    19  N   -0.605347
    20  H    0.375024
    21  C   -0.093423
    22  H    0.206196
    23  C    0.603710
    24  C   -0.030456
    25  H    0.159981
    26  H    0.177513
    27  O   -0.542251
    28  O   -0.669768
    29  H    0.467074
    30  N   -0.619764
    31  H    0.390623
    32  C   -0.089588
    33  H    0.207384
    34  C    0.662342
    35  C   -0.480445
    36  H    0.161271
    37  H    0.189888
    38  H    0.182737
    39  O   -0.558554
    40  N   -0.592222
    41  H    0.348625
    42  C   -0.080490
    43  H    0.193835
    44  C    0.643091
    45  C   -0.272951
    46  H    0.140897
    47  H    0.143403
    48  O   -0.591857
    49  C   -0.069341
    50  H    0.127442
    51  C   -0.444781
    52  H    0.146455
    53  H    0.154576
    54  H    0.140896
    55  C   -0.468202
    56  H    0.145420
    57  H    0.149724
    58  H    0.162753
    59  N   -0.596134
    60  H    0.354711
    61  C   -0.034672
    62  H    0.175953
    63  C    0.637271
    64  C   -0.417420
    65  H    0.221109
    66  H    0.172467
    67  O   -0.613025
    68  C    0.170052
    69  C   -0.188345
    70  H    0.159458
    71  C   -0.230737
    72  H    0.146068
    73  C   -0.174139
    74  H    0.150377
    75  C   -0.176082
    76  H    0.156954
    77  O   -0.699798
    78  H    0.445467
    79  C    0.328318
    80  N   -0.608620
    81  H    0.376872
    82  C   -0.079348
    83  H    0.155262
    84  C    0.595235
    85  C   -0.261279
    86  H    0.146287
    87  H    0.171249
    88  O   -0.566767
    89  C   -0.305336
    90  H    0.145168
    91  H    0.151976
    92  C   -0.264413
    93  H    0.175013
    94  H    0.158529
    95  C   -0.196674
    96  H    0.181349
    97  H    0.212902
    98  N   -0.783751
    99  H    0.407230
   100  H    0.384775
   101  H    0.465979
   102  O   -0.627355
 Sum of Mulliken charges =   1.00000

 Dipole moment (field-independent basis, Debye):
    X=            -31.5452    Y=             -6.3010    Z=             30.5800  Tot=             44.3840
 Quadrupole moment (field-independent basis, Debye-Ang):
   XX=            -61.3154   YY=           -235.9166   ZZ=           -288.1036
   XY=           -120.2704   XZ=            -60.6026   YZ=             77.0605

 Normal termination of Gaussian 16 at Mon Jun 27 02:26:24 2022.
