 Gaussian 16, Revision C.01,
 Gaussian 16:  ES64L-G16RevC.01  3-Jul-2019

 ----------------------------------------------------------------------
 # B3LYP/6-31G* empiricaldispersion=gd3 guess=read geom=check nosymm in
 tegral(ultrafinegrid)
 ----------------------------------------------------------------------

 ------------------------------------------------------
 Candidate Structure: Conf:126 Charge calc in gas phase
 ------------------------------------------------------
 Structure from the checkpoint file:  "conf-126.chk"
 Charge =  1 Multiplicity = 1

                          Input orientation:
 ---------------------------------------------------------------------
 Center     Atomic      Atomic             Coordinates (Angstroms)
 Number     Number       Type             X           Y           Z
 ---------------------------------------------------------------------
      1          7           0       -7.733676    1.584867    3.833806
      2          1           0       -7.591841    1.727673    4.842982
      3          1           0       -8.743397    1.494075    3.655898
      4          1           0       -7.360137    2.425202    3.349104
      5          6           0       -6.939191    0.402517    3.297464
      6          1           0       -7.119928   -0.464307    3.941569
      7          6           0       -5.489740    0.897938    3.379887
      8          6           0       -7.385503    0.064522    1.853083
      9          1           0       -7.304909    0.991577    1.262171
     10          8           0       -5.307663    2.087021    3.095521
     11          6           0       -6.444959   -0.987045    1.241426
     12          1           0       -6.452612   -1.916003    1.826957
     13          1           0       -6.790155   -1.236102    0.233660
     14          1           0       -5.410750   -0.645957    1.162622
     15          6           0       -8.849386   -0.422980    1.815543
     16          1           0       -8.972673   -1.344857    2.399030
     17          1           0       -9.577284    0.313165    2.193075
     18          1           0       -9.142290   -0.642515    0.784969
     19          7           0       -4.536362    0.015873    3.777166
     20          1           0       -4.756050   -0.972673    3.654827
     21          6           0       -3.112644    0.329890    3.536785
     22          1           0       -2.971159    1.387242    3.774647
     23          6           0       -2.814740    0.026421    2.062763
     24          6           0       -2.230800   -0.510022    4.476154
     25          1           0       -1.181765   -0.306925    4.248502
     26          1           0       -2.411407   -1.578992    4.276589
     27          8           0       -2.938537   -1.120475    1.655504
     28          8           0       -2.430286   -0.177051    5.834297
     29          1           0       -3.385253   -0.212631    6.021112
     30          7           0       -2.479614    1.061987    1.279631
     31          1           0       -2.380737    1.988523    1.683390
     32          6           0       -2.211437    0.908126   -0.162714
     33          1           0       -2.839608    0.076247   -0.497302
     34          6           0       -0.725591    0.526873   -0.352780
     35          6           0       -2.560910    2.193967   -0.906025
     36          1           0       -2.381024    2.066512   -1.976506
     37          1           0       -1.928723    3.019403   -0.562581
     38          1           0       -3.614859    2.452719   -0.752906
     39          8           0        0.113939    1.383952   -0.614614
     40          7           0       -0.449920   -0.794862   -0.195764
     41          1           0       -1.203942   -1.386501    0.141007
     42          6           0        0.929987   -1.297826   -0.034322
     43          1           0        1.525401   -0.460579    0.347024
     44          6           0        1.569698   -1.695406   -1.399183
     45          6           0        0.951249   -2.464651    0.956285
     46          1           0        0.293007   -3.262464    0.579604
     47          1           0        1.967956   -2.874465    0.945235
     48          8           0        2.100754   -2.799296   -1.556863
     49          6           0        0.543211   -2.110854    2.406551
     50          1           0       -0.531497   -1.885074    2.404386
     51          6           0        0.771086   -3.331824    3.313405
     52          1           0        1.845559   -3.551213    3.402877
     53          1           0        0.387805   -3.157198    4.326750
     54          1           0        0.274331   -4.226987    2.916096
     55          6           0        1.304295   -0.884056    2.947775
     56          1           0        2.375954   -0.949278    2.716158
     57          1           0        1.214209   -0.811772    4.039419
     58          1           0        0.933581    0.055103    2.520037
     59          7           0        1.468828   -0.727132   -2.326119
     60          1           0        1.202142    0.194906   -1.991583
     61          6           0        2.039438   -0.786845   -3.670731
     62          1           0        1.658879   -1.676919   -4.181916
     63          6           0        3.584279   -0.866410   -3.608160
     64          6           0        1.601968    0.486607   -4.435598
     65          1           0        2.026245    1.354830   -3.910078
     66          1           0        0.505252    0.563753   -4.378422
     67          8           0        4.193150   -0.192710   -2.760573
     68          6           0        2.066000    0.462395   -5.874788
     69          6           0        3.353791    0.911973   -6.219386
     70          1           0        4.006574    1.302829   -5.442343
     71          6           0        1.257441   -0.065818   -6.885414
     72          1           0        0.250456   -0.410824   -6.647627
     73          6           0        3.826378    0.821692   -7.518373
     74          1           0        4.828267    1.144764   -7.779477
     75          6           0        1.718452   -0.162796   -8.199203
     76          1           0        1.078242   -0.581049   -8.975980
     77          8           0        3.526009    0.202736   -9.778964
     78          1           0        2.870789   -0.208908  -10.367897
     79          6           0        3.010118    0.274897   -8.517408
     80          7           0        4.124339   -1.689189   -4.516036
     81          1           0        3.668239   -1.893503   -5.426872
     82          6           0        5.559996   -1.871708   -4.706673
     83          1           0        6.097869   -0.985574   -4.359344
     84          6           0        5.814250   -2.093632   -6.257726
     85          6           0        6.051511   -3.109146   -3.944032
     86          1           0        5.568334   -3.997056   -4.381188
     87          1           0        7.130606   -3.202444   -4.115283
     88          8           0        7.025078   -2.214352   -6.555347
     89          6           0        5.704652   -3.036068   -2.453956
     90          1           0        4.615026   -2.937705   -2.355675
     91          1           0        6.138347   -2.132515   -2.004051
     92          6           0        6.140349   -4.287328   -1.672901
     93          1           0        5.737350   -5.184321   -2.173039
     94          1           0        7.238074   -4.388319   -1.655229
     95          6           0        5.582663   -4.204744   -0.257846
     96          1           0        4.490842   -4.135313   -0.264877
     97          1           0        5.970494   -3.342227    0.292340
     98          7           0        5.958705   -5.460199    0.543700
     99          1           0        5.585436   -5.450468    1.503161
    100          1           0        5.595463   -6.299641    0.070459
    101          1           0        6.981981   -5.560889    0.601781
    102          8           0        4.767652   -2.161797   -6.956683
 ---------------------------------------------------------------------

 SCF Done:  E(RB3LYP) =  -2312.09094852     A.U. after    3 cycles

 Alpha  occ. eigenvalues --  -19.28825 -19.25672 -19.23900 -19.20040 -19.17593
 Alpha  occ. eigenvalues --  -19.16267 -19.10869 -19.04018 -19.03265 -14.63977
 Alpha  occ. eigenvalues --  -14.60884 -14.52553 -14.48489 -14.44116 -14.39376
 Alpha  occ. eigenvalues --  -14.33623 -10.45756 -10.43102 -10.40955 -10.37020
 Alpha  occ. eigenvalues --  -10.36617 -10.36457 -10.36413 -10.35141 -10.33397
 Alpha  occ. eigenvalues --  -10.33208 -10.33139 -10.31790 -10.29793 -10.28086
 Alpha  occ. eigenvalues --  -10.27972 -10.27201 -10.27010 -10.25907 -10.25508
 Alpha  occ. eigenvalues --  -10.25382 -10.24995 -10.24739 -10.22142 -10.22000
 Alpha  occ. eigenvalues --  -10.21596 -10.19707 -10.19480 -10.19147 -10.19139
 Alpha  occ. eigenvalues --  -10.19004 -10.18801 -10.18040  -1.21326  -1.17301
 Alpha  occ. eigenvalues --   -1.16482  -1.14493  -1.13248  -1.11874  -1.08304
 Alpha  occ. eigenvalues --   -1.07459  -1.05569  -1.04431  -1.02128  -1.00246
 Alpha  occ. eigenvalues --   -0.97634  -0.96726  -0.95863  -0.90858  -0.90646
 Alpha  occ. eigenvalues --   -0.89389  -0.88781  -0.88105  -0.87763  -0.85973
 Alpha  occ. eigenvalues --   -0.85591  -0.83466  -0.82232  -0.80618  -0.79726
 Alpha  occ. eigenvalues --   -0.78041  -0.77084  -0.76819  -0.76229  -0.75272
 Alpha  occ. eigenvalues --   -0.75180  -0.74765  -0.74408  -0.73829  -0.73165
 Alpha  occ. eigenvalues --   -0.72552  -0.72360  -0.71504  -0.70546  -0.68555
 Alpha  occ. eigenvalues --   -0.67648  -0.66943  -0.66449  -0.65534  -0.64195
 Alpha  occ. eigenvalues --   -0.63932  -0.63279  -0.62576  -0.62309  -0.62090
 Alpha  occ. eigenvalues --   -0.61804  -0.60302  -0.59629  -0.59509  -0.58944
 Alpha  occ. eigenvalues --   -0.58710  -0.58437  -0.56929  -0.56753  -0.56389
 Alpha  occ. eigenvalues --   -0.55977  -0.55857  -0.55621  -0.54367  -0.54334
 Alpha  occ. eigenvalues --   -0.53956  -0.53298  -0.52958  -0.52829  -0.52657
 Alpha  occ. eigenvalues --   -0.52254  -0.51205  -0.51082  -0.50201  -0.50103
 Alpha  occ. eigenvalues --   -0.50034  -0.49968  -0.49373  -0.49275  -0.48984
 Alpha  occ. eigenvalues --   -0.48672  -0.48387  -0.47996  -0.47557  -0.47301
 Alpha  occ. eigenvalues --   -0.46994  -0.46667  -0.46212  -0.45817  -0.45385
 Alpha  occ. eigenvalues --   -0.45228  -0.44742  -0.44572  -0.44316  -0.44035
 Alpha  occ. eigenvalues --   -0.43637  -0.43404  -0.42480  -0.42446  -0.42323
 Alpha  occ. eigenvalues --   -0.41758  -0.41405  -0.40708  -0.40584  -0.40173
 Alpha  occ. eigenvalues --   -0.40003  -0.39853  -0.39445  -0.39069  -0.38938
 Alpha  occ. eigenvalues --   -0.38434  -0.37442  -0.37060  -0.36924  -0.36325
 Alpha  occ. eigenvalues --   -0.35898  -0.35144  -0.34722  -0.34494  -0.33673
 Alpha  occ. eigenvalues --   -0.33308  -0.33144  -0.32523  -0.31247  -0.29882
 Alpha  occ. eigenvalues --   -0.29016  -0.25552  -0.24732  -0.24210  -0.21605
 Alpha  occ. eigenvalues --   -0.18971  -0.18666  -0.17098
 Alpha virt. eigenvalues --   -0.16436  -0.13542  -0.11753  -0.10584  -0.08795
 Alpha virt. eigenvalues --   -0.08088  -0.06564  -0.06270  -0.05262  -0.04837
 Alpha virt. eigenvalues --   -0.04299  -0.03225  -0.02978  -0.02683  -0.01903

 Mulliken charges:
               1
     1  N   -0.733553
     2  H    0.422545
     3  H    0.415835
     4  H    0.430937
     5  C   -0.121498
     6  H    0.201639
     7  C    0.636762
     8  C   -0.098308
     9  H    0.172544
    10  O   -0.523559
    11  C   -0.490026
    12  H    0.161184
    13  H    0.196162
    14  H    0.198753
    15  C   -0.474652
    16  H    0.177883
    17  H    0.137904
    18  H    0.208197
    19  N   -0.609521
    20  H    0.358516
    21  C   -0.109456
    22  H    0.194384
    23  C    0.647504
    24  C   -0.043545
    25  H    0.194476
    26  H    0.153195
    27  O   -0.558192
    28  O   -0.597569
    29  H    0.392803
    30  N   -0.585211
    31  H    0.353938
    32  C   -0.071446
    33  H    0.179346
    34  C    0.627722
    35  C   -0.464514
    36  H    0.192884
    37  H    0.185857
    38  H    0.146090
    39  O   -0.518852
    40  N   -0.601920
    41  H    0.356656
    42  C   -0.089826
    43  H    0.196255
    44  C    0.652750
    45  C   -0.281261
    46  H    0.146647
    47  H    0.140321
    48  O   -0.557962
    49  C   -0.085308
    50  H    0.127427
    51  C   -0.442298
    52  H    0.127849
    53  H    0.145171
    54  H    0.145389
    55  C   -0.466774
    56  H    0.150781
    57  H    0.148950
    58  H    0.150830
    59  N   -0.622561
    60  H    0.372187
    61  C   -0.012049
    62  H    0.158271
    63  C    0.621994
    64  C   -0.393312
    65  H    0.163672
    66  H    0.128415
    67  O   -0.591307
    68  C    0.145249
    69  C   -0.185693
    70  H    0.142533
    71  C   -0.187559
    72  H    0.101314
    73  C   -0.122355
    74  H    0.152102
    75  C   -0.188106
    76  H    0.107140
    77  O   -0.636484
    78  H    0.403457
    79  C    0.377680
    80  N   -0.599875
    81  H    0.360687
    82  C   -0.074253
    83  H    0.147270
    84  C    0.585847
    85  C   -0.250875
    86  H    0.128683
    87  H    0.156381
    88  O   -0.587737
    89  C   -0.288979
    90  H    0.192401
    91  H    0.156870
    92  C   -0.285796
    93  H    0.155521
    94  H    0.154047
    95  C   -0.223777
    96  H    0.245991
    97  H    0.218999
    98  N   -0.729910
    99  H    0.414645
   100  H    0.421736
   101  H    0.420939
   102  O   -0.604234
 Sum of Mulliken charges =   1.00000

 Dipole moment (field-independent basis, Debye):
    X=            -33.3226    Y=             -9.9960    Z=             36.7306  Tot=             50.5910
 Quadrupole moment (field-independent basis, Debye-Ang):
   XX=            -13.1450   YY=           -183.5101   ZZ=           -340.1757
   XY=           -113.6154   XZ=             28.9085   YZ=            -37.5577

 Normal termination of Gaussian 16 at Mon Jun 27 02:26:42 2022.
