 Gaussian 16, Revision C.01,
 Gaussian 16:  ES64L-G16RevC.01  3-Jul-2019

 ----------------------------------------------------------------------
 # B3LYP/6-31G* empiricaldispersion=gd3 guess=read geom=check nosymm in
 tegral(ultrafinegrid)
 ----------------------------------------------------------------------

 ------------------------------------------------------
 Candidate Structure: Conf:662 Charge calc in gas phase
 ------------------------------------------------------
 Structure from the checkpoint file:  "conf-662.chk"
 Charge =  1 Multiplicity = 1

                          Input orientation:
 ---------------------------------------------------------------------
 Center     Atomic      Atomic             Coordinates (Angstroms)
 Number     Number       Type             X           Y           Z
 ---------------------------------------------------------------------
      1          7           0       -4.333850    1.982976    4.513635
      2          1           0       -4.669455    2.689276    5.156994
      3          1           0       -5.016648    1.926908    3.766988
      4          6           0       -3.030466    2.388268    3.983173
      5          1           0       -3.060483    3.395855    3.527116
      6          6           0       -2.650678    1.397514    2.884505
      7          6           0       -1.993140    2.376059    5.096365
      8          1           0       -1.967698    1.382392    5.545218
      9          1           0       -1.004491    2.568208    4.674771
     10          8           0       -2.025900    0.367979    3.103116
     11          6           0       -2.255688    3.415627    6.184202
     12          1           0       -3.178873    3.196622    6.728036
     13          1           0       -2.300986    4.420551    5.761080
     14          6           0       -1.051872    3.304427    7.140800
     15          8           0       -0.072962    4.020070    6.861376
     16          8           0       -1.176186    2.490350    8.074604
     17          7           0       -3.138603    1.686404    1.642057
     18          1           0       -3.250475    2.660830    1.395781
     19          6           0       -2.674707    0.849259    0.551511
     20          1           0       -2.860541   -0.184569    0.856436
     21          6           0       -1.170659    1.023755    0.373724
     22          6           0       -3.489608    1.118478   -0.723983
     23          1           0       -4.532710    0.893143   -0.487095
     24          1           0       -3.166287    0.429892   -1.509369
     25          8           0       -0.559599    2.022287    0.719986
     26          6           0       -3.384624    2.541741   -1.183247
     27          6           0       -4.183949    3.571247   -0.768566
     28          1           0       -5.038537    3.558152   -0.112406
     29          6           0       -2.403251    3.118292   -2.068833
     30          6           0       -2.657671    4.501077   -2.130882
     31          6           0       -1.334692    2.586351   -2.803403
     32          1           0       -1.103690    1.524659   -2.769606
     33          7           0       -3.748811    4.751642   -1.328337
     34          1           0       -4.147565    5.653349   -1.156672
     35          6           0       -0.839334    4.820092   -3.621138
     36          1           0       -0.217980    5.462781   -4.233197
     37          6           0       -1.886407    5.373443   -2.901098
     38          1           0       -2.103284    6.435381   -2.931719
     39          6           0       -0.564882    3.441376   -3.574562
     40          1           0        0.259103    3.042785   -4.151690
     41          7           0       -0.553603   -0.022911   -0.236644
     42          1           0       -1.048401   -0.882956   -0.400514
     43          6           0        0.891349   -0.123031   -0.258360
     44          1           0        1.282068    0.827848   -0.628802
     45          6           0        1.235607   -1.259035   -1.212871
     46          6           0        1.483192   -0.330298    1.170970
     47          1           0        1.385502    0.618766    1.692878
     48          8           0        0.602779   -2.305447   -1.217502
     49          6           0        0.818101   -1.441927    1.958970
     50          1           0       -0.221881   -1.187446    2.171311
     51          1           0        1.334727   -1.582704    2.907809
     52          1           0        0.841146   -2.373807    1.392021
     53          8           0        2.939633   -0.622607    1.112271
     54          1           0        3.106711   -1.507801    0.684533
     55          7           0        2.304654   -1.041623   -2.014509
     56          1           0        2.811407   -0.179530   -1.923632
     57          6           0        2.909683   -2.131678   -2.760952
     58          1           0        2.124003   -2.885551   -2.853581
     59          6           0        4.029127   -2.796688   -1.982733
     60          6           0        3.360839   -1.666017   -4.144546
     61          1           0        4.304304   -1.122838   -4.054030
     62          1           0        2.613852   -0.954695   -4.503365
     63          8           0        4.997529   -3.328875   -2.459931
     64          6           0        3.489099   -2.787930   -5.166678
     65          1           0        4.235961   -3.513052   -4.844412
     66          1           0        2.534359   -3.313921   -5.236333
     67          6           0        3.848173   -2.248936   -6.540100
     68          1           0        3.089625   -1.525235   -6.851464
     69          1           0        4.808807   -1.720579   -6.495878
     70          7           0        3.897840   -3.351789   -7.519040
     71          1           0        4.247247   -4.224796   -7.152243
     72          7           0        4.319958   -1.892991   -9.300369
     73          1           0        4.251066   -1.745409  -10.293987
     74          1           0        4.031859   -1.125323   -8.718108
     75          7           0        4.424430   -4.219181   -9.599438
     76          1           0        3.997591   -5.089133   -9.312285
     77          1           0        4.432055   -4.067832  -10.596027
     78          6           0        4.197609   -3.140768   -8.811690
     79          8           0        3.825399   -2.753665   -0.639430
     80          1           0        4.549736   -3.283748   -0.265780
     81          1           0        3.444171    0.037900    0.598119
 ---------------------------------------------------------------------

 SCF Done:  E(RB3LYP) =  -2053.80091346     A.U. after    3 cycles

 Alpha  occ. eigenvalues --  -19.45234 -19.36853 -19.29973 -19.26443 -19.20644
 Alpha  occ. eigenvalues --  -19.16361 -19.04685 -19.04468 -14.54979 -14.54785
 Alpha  occ. eigenvalues --  -14.54222 -14.52140 -14.46812 -14.44424 -14.40943
 Alpha  occ. eigenvalues --  -14.33470 -10.49630 -10.47793 -10.43564 -10.41252
 Alpha  occ. eigenvalues --  -10.39669 -10.39513 -10.37843 -10.37485 -10.34807
 Alpha  occ. eigenvalues --  -10.34591 -10.32459 -10.30330 -10.29825 -10.28564
 Alpha  occ. eigenvalues --  -10.28352 -10.27256 -10.25556 -10.25407 -10.25067
 Alpha  occ. eigenvalues --  -10.25055 -10.25006 -10.24974 -10.23861 -10.21749
 Alpha  occ. eigenvalues --  -10.17134 -10.14702  -1.32167  -1.27365  -1.19407
 Alpha  occ. eigenvalues --   -1.19079  -1.17974  -1.13303  -1.09109  -1.08965
 Alpha  occ. eigenvalues --   -1.08379  -1.07969  -1.04796  -1.04045  -0.98256
 Alpha  occ. eigenvalues --   -0.97862  -0.96940  -0.94040  -0.91891  -0.91147
 Alpha  occ. eigenvalues --   -0.90815  -0.89012  -0.87706  -0.86216  -0.84742
 Alpha  occ. eigenvalues --   -0.82620  -0.81614  -0.81351  -0.80450  -0.79218
 Alpha  occ. eigenvalues --   -0.78786  -0.78325  -0.76913  -0.76674  -0.75458
 Alpha  occ. eigenvalues --   -0.74476  -0.73601  -0.73077  -0.71485  -0.70142
 Alpha  occ. eigenvalues --   -0.69230  -0.68327  -0.68210  -0.67419  -0.67086
 Alpha  occ. eigenvalues --   -0.66308  -0.65811  -0.65067  -0.64614  -0.64038
 Alpha  occ. eigenvalues --   -0.63595  -0.63272  -0.62885  -0.61745  -0.60670
 Alpha  occ. eigenvalues --   -0.60502  -0.60316  -0.59029  -0.58262  -0.57890
 Alpha  occ. eigenvalues --   -0.57336  -0.56951  -0.55642  -0.55437  -0.54834
 Alpha  occ. eigenvalues --   -0.54465  -0.54225  -0.53933  -0.53788  -0.52942
 Alpha  occ. eigenvalues --   -0.52420  -0.51886  -0.51247  -0.51001  -0.50314
 Alpha  occ. eigenvalues --   -0.50250  -0.50098  -0.49894  -0.49688  -0.49645
 Alpha  occ. eigenvalues --   -0.49154  -0.48715  -0.48280  -0.48156  -0.47605
 Alpha  occ. eigenvalues --   -0.46353  -0.46232  -0.45253  -0.44827  -0.44547
 Alpha  occ. eigenvalues --   -0.44318  -0.43917  -0.43512  -0.42335  -0.41848
 Alpha  occ. eigenvalues --   -0.40865  -0.40788  -0.40322  -0.40272  -0.40122
 Alpha  occ. eigenvalues --   -0.39189  -0.36638  -0.36288  -0.35066  -0.34967
 Alpha  occ. eigenvalues --   -0.34610  -0.33989  -0.32271  -0.32032  -0.31073
 Alpha  occ. eigenvalues --   -0.29339  -0.29059  -0.27072  -0.25611  -0.19730
 Alpha  occ. eigenvalues --   -0.18065  -0.17098
 Alpha virt. eigenvalues --   -0.16451  -0.15941  -0.15398  -0.12514  -0.11108
 Alpha virt. eigenvalues --   -0.08387  -0.07952  -0.07849  -0.07400  -0.06429
 Alpha virt. eigenvalues --   -0.05814  -0.05596  -0.05048  -0.03983  -0.03474

 Mulliken charges:
               1
     1  N   -0.711129
     2  H    0.315919
     3  H    0.283470
     4  C   -0.062430
     5  H    0.097263
     6  C    0.634637
     7  C   -0.245150
     8  H    0.174566
     9  H    0.131314
    10  O   -0.536310
    11  C   -0.338881
    12  H    0.125211
    13  H    0.111691
    14  C    0.553793
    15  O   -0.545054
    16  O   -0.527070
    17  N   -0.599459
    18  H    0.342849
    19  C   -0.074280
    20  H    0.173297
    21  C    0.667611
    22  C   -0.359434
    23  H    0.179755
    24  H    0.146513
    25  O   -0.521980
    26  C    0.045542
    27  C   -0.006797
    28  H    0.169973
    29  C    0.097625
    30  C    0.319243
    31  C   -0.204967
    32  H    0.098503
    33  N   -0.686294
    34  H    0.339514
    35  C   -0.150429
    36  H    0.128714
    37  C   -0.152407
    38  H    0.140950
    39  C   -0.137875
    40  H    0.092049
    41  N   -0.625744
    42  H    0.360048
    43  C   -0.049075
    44  H    0.184350
    45  C    0.581758
    46  C    0.013709
    47  H    0.271210
    48  O   -0.500047
    49  C   -0.508416
    50  H    0.264945
    51  H    0.207644
    52  H    0.178108
    53  O   -0.576852
    54  H    0.481950
    55  N   -0.618777
    56  H    0.325718
    57  C   -0.060330
    58  H    0.239065
    59  C    0.610205
    60  C   -0.290203
    61  H    0.166332
    62  H    0.176425
    63  O   -0.426863
    64  C   -0.316958
    65  H    0.195140
    66  H    0.178208
    67  C   -0.155740
    68  H    0.178345
    69  H    0.189188
    70  N   -0.596398
    71  H    0.364774
    72  N   -0.733278
    73  H    0.378814
    74  H    0.384328
    75  N   -0.732218
    76  H    0.377359
    77  H    0.373493
    78  C    0.739303
    79  O   -0.605853
    80  H    0.443342
    81  H    0.422936
 Sum of Mulliken charges =   1.00000

 Dipole moment (field-independent basis, Debye):
    X=             22.3943    Y=            -18.6809    Z=            -56.2093  Tot=             63.3243
 Quadrupole moment (field-independent basis, Debye-Ang):
   XX=           -124.9236   YY=           -193.9908   ZZ=           -103.9025
   XY=            -82.2598   XZ=           -123.0203   YZ=             34.6979

 Normal termination of Gaussian 16 at Sun May 15 14:55:33 2022.
