 Gaussian 16, Revision C.01,
 Gaussian 16:  ES64L-G16RevC.01  3-Jul-2019

 ----------------------------------------------------------------------
 # B3LYP/6-31G* empiricaldispersion=gd3 guess=read geom=check nosymm in
 tegral(ultrafinegrid)
 ----------------------------------------------------------------------

 ------------------------------------------------------
 Candidate Structure: Conf:669 Charge calc in gas phase
 ------------------------------------------------------
 Structure from the checkpoint file:  "conf-669.chk"
 Charge =  1 Multiplicity = 1

                          Input orientation:
 ---------------------------------------------------------------------
 Center     Atomic      Atomic             Coordinates (Angstroms)
 Number     Number       Type             X           Y           Z
 ---------------------------------------------------------------------
      1          7           0       -5.715540    2.811013    3.292358
      2          1           0       -5.801971    1.844832    3.587223
      3          1           0       -5.881433    3.392969    4.102859
      4          6           0       -4.371876    3.025825    2.794713
      5          1           0       -4.387054    3.904053    2.140706
      6          6           0       -3.947285    1.815740    1.960530
      7          6           0       -3.325540    3.307172    3.890201
      8          1           0       -2.349407    3.496766    3.427437
      9          1           0       -3.613373    4.220317    4.421842
     10          8           0       -4.419984    0.703325    2.140889
     11          6           0       -3.153549    2.189188    4.915460
     12          1           0       -2.799654    1.271281    4.447387
     13          1           0       -4.098842    1.995054    5.427208
     14          6           0       -2.105421    2.730248    5.915368
     15          8           0       -2.564727    3.388865    6.865363
     16          8           0       -0.921103    2.475900    5.638250
     17          7           0       -2.979616    2.077449    1.035873
     18          1           0       -2.478544    2.950996    1.092500
     19          6           0       -2.295271    1.025574    0.314227
     20          1           0       -2.735229    0.075072    0.601997
     21          6           0       -0.828078    1.023979    0.710690
     22          6           0       -2.398010    1.197892   -1.211538
     23          1           0       -1.587852    0.629084   -1.683697
     24          1           0       -2.196310    2.244970   -1.449946
     25          8           0       -0.198527    2.044235    0.922286
     26          6           0       -3.738175    0.795695   -1.770162
     27          6           0       -4.721980    0.035205   -1.193804
     28          1           0       -4.783716   -0.381610   -0.205581
     29          6           0       -4.216353    1.117616   -3.097138
     30          6           0       -5.478680    0.524986   -3.249381
     31          6           0       -3.674855    1.862739   -4.152624
     32          1           0       -2.704858    2.339172   -4.066202
     33          7           0       -5.770778   -0.121515   -2.072933
     34          1           0       -6.595122   -0.666186   -1.904259
     35          6           0       -5.668363    1.373370   -5.457176
     36          1           0       -6.214313    1.484974   -6.386090
     37          6           0       -6.226087    0.636844   -4.423914
     38          1           0       -7.198859    0.166709   -4.516407
     39          6           0       -4.406114    1.980648   -5.321818
     40          1           0       -4.003122    2.551755   -6.149895
     41          7           0       -0.250908   -0.223171    0.749853
     42          1           0       -0.776903   -0.908798    0.234608
     43          6           0        1.190817   -0.297502    0.552841
     44          1           0        1.634689    0.376159    1.280704
     45          6           0        1.551508    0.162563   -0.876794
     46          6           0        1.768722   -1.705891    0.787592
     47          1           0        2.854520   -1.631884    0.684103
     48          8           0        0.820599   -0.060675   -1.870996
     49          6           0        1.419927   -2.304516    2.131443
     50          1           0        1.780843   -1.662936    2.937021
     51          1           0        1.892606   -3.282174    2.229603
     52          1           0        0.344277   -2.427236    2.249272
     53          8           0        1.355893   -2.649245   -0.291424
     54          1           0        0.439438   -2.944571   -0.123877
     55          7           0        2.781323    0.753851   -0.956589
     56          1           0        3.404123    0.718560   -0.166688
     57          6           0        3.347112    1.170207   -2.221883
     58          1           0        2.786089    0.691474   -3.030129
     59          6           0        4.776090    0.690560   -2.290026
     60          6           0        3.280679    2.685768   -2.432388
     61          1           0        3.679064    2.890347   -3.425864
     62          1           0        3.926190    3.193249   -1.712648
     63          8           0        5.435662    0.321708   -1.352054
     64          6           0        1.860242    3.228198   -2.327847
     65          1           0        1.198957    2.632648   -2.960518
     66          1           0        1.491484    3.122410   -1.310462
     67          6           0        1.801342    4.687487   -2.742755
     68          1           0        2.516030    5.270476   -2.147674
     69          1           0        2.101766    4.776566   -3.790388
     70          7           0        0.434596    5.215472   -2.576179
     71          1           0       -0.066123    4.833668   -1.789088
     72          7           0        0.961592    7.235091   -3.624737
     73          1           0        0.830818    8.234342   -3.617733
     74          1           0        1.921393    6.931371   -3.670012
     75          7           0       -1.082657    6.980043   -2.499357
     76          1           0       -1.795926    6.291862   -2.296302
     77          1           0       -1.429095    7.759738   -3.039719
     78          6           0        0.116780    6.480932   -2.894254
     79          8           0        5.250921    0.744648   -3.549699
     80          1           0        6.166872    0.442734   -3.500292
     81          1           0        1.331320   -2.189270   -1.161513
 ---------------------------------------------------------------------

 SCF Done:  E(RB3LYP) =  -2053.80882294     A.U. after    1 cycles

 Alpha  occ. eigenvalues --  -19.47416 -19.32799 -19.28504 -19.27916 -19.24456
 Alpha  occ. eigenvalues --  -19.17149 -19.04939 -19.04892 -14.55408 -14.55329
 Alpha  occ. eigenvalues --  -14.54655 -14.52176 -14.49644 -14.44284 -14.42590
 Alpha  occ. eigenvalues --  -14.33018 -10.50932 -10.45789 -10.45356 -10.45131
 Alpha  occ. eigenvalues --  -10.40625 -10.40004 -10.39493 -10.38407 -10.33952
 Alpha  occ. eigenvalues --  -10.33922 -10.33841 -10.33760 -10.32440 -10.28717
 Alpha  occ. eigenvalues --  -10.28331 -10.28187 -10.25496 -10.25386 -10.25306
 Alpha  occ. eigenvalues --  -10.24919 -10.24851 -10.24827 -10.24728 -10.22495
 Alpha  occ. eigenvalues --  -10.19709 -10.15871  -1.34726  -1.24531  -1.19978
 Alpha  occ. eigenvalues --   -1.19169  -1.16646  -1.15654  -1.09500  -1.09319
 Alpha  occ. eigenvalues --   -1.08665  -1.08405  -1.07089  -1.04726  -0.99890
 Alpha  occ. eigenvalues --   -0.98469  -0.97706  -0.96185  -0.91931  -0.91385
 Alpha  occ. eigenvalues --   -0.90753  -0.89679  -0.88986  -0.87642  -0.84610
 Alpha  occ. eigenvalues --   -0.84488  -0.82841  -0.81343  -0.81042  -0.80318
 Alpha  occ. eigenvalues --   -0.78911  -0.77971  -0.77854  -0.76980  -0.75349
 Alpha  occ. eigenvalues --   -0.75040  -0.74238  -0.73161  -0.72631  -0.71532
 Alpha  occ. eigenvalues --   -0.69819  -0.69010  -0.67957  -0.67786  -0.67158
 Alpha  occ. eigenvalues --   -0.67021  -0.66192  -0.65376  -0.65354  -0.64228
 Alpha  occ. eigenvalues --   -0.63705  -0.63450  -0.62572  -0.62286  -0.61221
 Alpha  occ. eigenvalues --   -0.60747  -0.60713  -0.59948  -0.59746  -0.58620
 Alpha  occ. eigenvalues --   -0.57992  -0.57620  -0.56537  -0.56321  -0.55702
 Alpha  occ. eigenvalues --   -0.55264  -0.54875  -0.54668  -0.54354  -0.53846
 Alpha  occ. eigenvalues --   -0.53773  -0.53533  -0.52579  -0.52107  -0.51832
 Alpha  occ. eigenvalues --   -0.51013  -0.50806  -0.50331  -0.50045  -0.49717
 Alpha  occ. eigenvalues --   -0.49384  -0.49084  -0.48571  -0.47950  -0.47315
 Alpha  occ. eigenvalues --   -0.46837  -0.46645  -0.46178  -0.45360  -0.45219
 Alpha  occ. eigenvalues --   -0.44620  -0.43893  -0.43558  -0.42583  -0.42519
 Alpha  occ. eigenvalues --   -0.42039  -0.41938  -0.41175  -0.40729  -0.40541
 Alpha  occ. eigenvalues --   -0.40044  -0.39935  -0.37639  -0.37451  -0.36964
 Alpha  occ. eigenvalues --   -0.36653  -0.34003  -0.33788  -0.32195  -0.32154
 Alpha  occ. eigenvalues --   -0.30342  -0.28903  -0.27092  -0.25453  -0.20395
 Alpha  occ. eigenvalues --   -0.18765  -0.18019
 Alpha virt. eigenvalues --   -0.16950  -0.16797  -0.15054  -0.12805  -0.11129
 Alpha virt. eigenvalues --   -0.10266  -0.09066  -0.07953  -0.07568  -0.07148
 Alpha virt. eigenvalues --   -0.06432  -0.06218  -0.05142  -0.04635  -0.03860

 Mulliken charges:
               1
     1  N   -0.728091
     2  H    0.321303
     3  H    0.307630
     4  C   -0.054238
     5  H    0.111532
     6  C    0.644352
     7  C   -0.290322
     8  H    0.116098
     9  H    0.159665
    10  O   -0.534947
    11  C   -0.314501
    12  H    0.105319
    13  H    0.118823
    14  C    0.549243
    15  O   -0.544309
    16  O   -0.576762
    17  N   -0.590818
    18  H    0.332611
    19  C   -0.091499
    20  H    0.183997
    21  C    0.646255
    22  C   -0.350860
    23  H    0.160689
    24  H    0.119755
    25  O   -0.518899
    26  C    0.070140
    27  C   -0.006423
    28  H    0.191750
    29  C    0.077143
    30  C    0.320654
    31  C   -0.211575
    32  H    0.082532
    33  N   -0.697791
    34  H    0.339044
    35  C   -0.152724
    36  H    0.135962
    37  C   -0.156559
    38  H    0.139322
    39  C   -0.137862
    40  H    0.114905
    41  N   -0.569091
    42  H    0.311313
    43  C   -0.098660
    44  H    0.240432
    45  C    0.587251
    46  C    0.007971
    47  H    0.231076
    48  O   -0.539258
    49  C   -0.478070
    50  H    0.238238
    51  H    0.208328
    52  H    0.204942
    53  O   -0.538997
    54  H    0.417125
    55  N   -0.580410
    56  H    0.364460
    57  C   -0.061935
    58  H    0.217894
    59  C    0.581357
    60  C   -0.280795
    61  H    0.184310
    62  H    0.172554
    63  O   -0.448303
    64  C   -0.324892
    65  H    0.192205
    66  H    0.191860
    67  C   -0.164892
    68  H    0.186923
    69  H    0.191995
    70  N   -0.588255
    71  H    0.378051
    72  N   -0.728520
    73  H    0.389113
    74  H    0.389003
    75  N   -0.721238
    76  H    0.385895
    77  H    0.382585
    78  C    0.748155
    79  O   -0.554710
    80  H    0.436579
    81  H    0.447864
 Sum of Mulliken charges =   1.00000

 Dipole moment (field-independent basis, Debye):
    X=             14.3449    Y=              9.5805    Z=            -31.6068  Tot=             36.0077
 Quadrupole moment (field-independent basis, Debye-Ang):
   XX=           -203.3864   YY=            -61.7667   ZZ=           -325.0778
   XY=             29.3459   XZ=             19.3295   YZ=           -143.6918

 Normal termination of Gaussian 16 at Sun May 15 14:54:57 2022.
