 Gaussian 16, Revision C.01,
 Gaussian 16:  ES64L-G16RevC.01  3-Jul-2019

 ----------------------------------------------------------------------
 # B3LYP/6-31G* empiricaldispersion=gd3 guess=read geom=check nosymm in
 tegral(ultrafinegrid)
 ----------------------------------------------------------------------

 ------------------------------------------------------
 Candidate Structure: Conf:197 Charge calc in gas phase
 ------------------------------------------------------
 Structure from the checkpoint file:  "conf-197.chk"
 Charge =  1 Multiplicity = 1

                          Input orientation:
 ---------------------------------------------------------------------
 Center     Atomic      Atomic             Coordinates (Angstroms)
 Number     Number       Type             X           Y           Z
 ---------------------------------------------------------------------
      1          7           0       -5.264423    0.740737    3.992176
      2          1           0       -5.207690    1.580415    3.427144
      3          1           0       -5.853677    0.079008    3.492726
      4          6           0       -3.930135    0.157275    4.177222
      5          1           0       -3.266542    0.942543    4.547414
      6          6           0       -3.396640   -0.375004    2.849898
      7          6           0       -3.980074   -0.952507    5.225368
      8          1           0       -4.735592   -1.687139    4.933337
      9          1           0       -3.009098   -1.456441    5.264134
     10          8           0       -3.752603   -1.460800    2.383473
     11          6           0       -4.256658   -0.353363    6.603516
     12          1           0       -4.225799   -1.130673    7.374021
     13          1           0       -5.222021    0.156199    6.635242
     14          6           0       -3.114440    0.650997    6.882350
     15          8           0       -3.432303    1.839057    7.108558
     16          8           0       -1.961003    0.173708    6.847653
     17          7           0       -2.612921    0.508216    2.162330
     18          1           0       -2.166064    1.255775    2.677491
     19          6           0       -1.956816    0.145143    0.930817
     20          1           0       -2.309115   -0.851031    0.663908
     21          6           0       -0.443355    0.150813    1.155920
     22          6           0       -2.268047    1.117993   -0.220568
     23          1           0       -1.613546    0.865960   -1.067403
     24          1           0       -1.989601    2.131911    0.085832
     25          8           0        0.099406    0.855236    1.988789
     26          6           0       -3.699788    1.092276   -0.673634
     27          6           0       -4.702869    0.224701   -0.323868
     28          1           0       -4.684617   -0.588501    0.383838
     29          6           0       -4.273598    2.005033   -1.630804
     30          6           0       -5.623354    1.640137   -1.808159
     31          6           0       -3.756619    3.097860   -2.340511
     32          1           0       -2.720359    3.400996   -2.215112
     33          7           0       -5.860523    0.556257   -0.994977
     34          1           0       -6.734326    0.066075   -0.919999
     35          6           0       -5.941787    3.405369   -3.368425
     36          1           0       -6.573566    3.966024   -4.048180
     37          6           0       -6.476236    2.328077   -2.675114
     38          1           0       -7.512754    2.031681   -2.796985
     39          6           0       -4.596118    3.786897   -3.202316
     40          1           0       -4.218487    4.640314   -3.756469
     41          7           0        0.269188   -0.652947    0.298191
     42          1           0       -0.221140   -1.078699   -0.474390
     43          6           0        1.709663   -0.460930    0.127903
     44          1           0        1.958687    0.537824    0.480082
     45          6           0        2.009679   -0.649812   -1.341705
     46          6           0        2.534485   -1.499825    0.908297
     47          1           0        3.586447   -1.380575    0.643211
     48          8           0        1.776880   -1.762564   -1.867062
     49          6           0        2.337276   -1.453881    2.405163
     50          1           0        2.675117   -0.490130    2.794436
     51          1           0        2.907488   -2.249426    2.887334
     52          1           0        1.284102   -1.565333    2.664306
     53          8           0        2.145088   -2.849032    0.390627
     54          1           0        1.255220   -3.042228    0.760816
     55          7           0        2.446368    0.400268   -2.058029
     56          1           0        2.832190    1.182397   -1.548519
     57          6           0        2.987507    0.187912   -3.394852
     58          1           0        2.328766   -0.515786   -3.912881
     59          6           0        4.352462   -0.476697   -3.286770
     60          6           0        3.039021    1.511172   -4.158973
     61          1           0        3.556927    1.351606   -5.106776
     62          1           0        3.633692    2.227114   -3.584560
     63          8           0        4.936520   -0.677408   -2.252343
     64          6           0        1.638206    2.060044   -4.414440
     65          1           0        1.060593    1.317834   -4.974093
     66          1           0        1.120439    2.218324   -3.466287
     67          6           0        1.648328    3.362971   -5.199242
     68          1           0        2.224107    4.127183   -4.660661
     69          1           0        2.134232    3.202896   -6.167179
     70          7           0        0.262260    3.812498   -5.423560
     71          1           0       -0.374022    3.607828   -4.664253
     72          7           0        0.921815    5.639215   -6.735227
     73          1           0        0.663130    6.287551   -7.463050
     74          1           0        1.847536    5.248761   -6.802532
     75          7           0       -1.317409    5.369078   -6.097826
     76          1           0       -2.039264    4.681047   -5.928668
     77          1           0       -1.574939    6.090613   -6.754896
     78          6           0       -0.035299    4.934034   -6.104902
     79          8           0        4.828135   -0.814630   -4.500635
     80          1           0        5.690144   -1.232937   -4.357397
     81          1           0        1.986268   -2.663802   -0.614947
 ---------------------------------------------------------------------

 SCF Done:  E(RB3LYP) =  -2053.83249236     A.U. after    3 cycles

 Alpha  occ. eigenvalues --  -19.42847 -19.33042 -19.29797 -19.27886 -19.23940
 Alpha  occ. eigenvalues --  -19.16334 -19.05165 -19.04419 -14.55171 -14.55020
 Alpha  occ. eigenvalues --  -14.54308 -14.52895 -14.50090 -14.44895 -14.41878
 Alpha  occ. eigenvalues --  -14.33965 -10.50012 -10.45843 -10.45055 -10.42510
 Alpha  occ. eigenvalues --  -10.40465 -10.40061 -10.39538 -10.39134 -10.35391
 Alpha  occ. eigenvalues --  -10.35255 -10.32634 -10.32260 -10.31541 -10.29062
 Alpha  occ. eigenvalues --  -10.28998 -10.28605 -10.26703 -10.26282 -10.26194
 Alpha  occ. eigenvalues --  -10.25929 -10.25731 -10.25668 -10.23251 -10.21903
 Alpha  occ. eigenvalues --  -10.17406 -10.14238  -1.30236  -1.24458  -1.21067
 Alpha  occ. eigenvalues --   -1.19487  -1.16284  -1.15683  -1.09771  -1.09231
 Alpha  occ. eigenvalues --   -1.08112  -1.07969  -1.06694  -1.05173  -0.99151
 Alpha  occ. eigenvalues --   -0.97973  -0.97290  -0.95326  -0.91940  -0.91631
 Alpha  occ. eigenvalues --   -0.91143  -0.88958  -0.88739  -0.87272  -0.84674
 Alpha  occ. eigenvalues --   -0.83840  -0.81361  -0.81272  -0.80794  -0.79241
 Alpha  occ. eigenvalues --   -0.78289  -0.77324  -0.76992  -0.76379  -0.75575
 Alpha  occ. eigenvalues --   -0.75056  -0.74222  -0.73281  -0.72979  -0.69904
 Alpha  occ. eigenvalues --   -0.69605  -0.68400  -0.67908  -0.67391  -0.67142
 Alpha  occ. eigenvalues --   -0.66649  -0.65993  -0.65686  -0.65164  -0.65098
 Alpha  occ. eigenvalues --   -0.63822  -0.63766  -0.62917  -0.61873  -0.61401
 Alpha  occ. eigenvalues --   -0.60671  -0.59884  -0.59355  -0.59130  -0.58465
 Alpha  occ. eigenvalues --   -0.57997  -0.56733  -0.56374  -0.55919  -0.55599
 Alpha  occ. eigenvalues --   -0.55276  -0.55146  -0.54782  -0.54139  -0.54026
 Alpha  occ. eigenvalues --   -0.53286  -0.52914  -0.52387  -0.52045  -0.51724
 Alpha  occ. eigenvalues --   -0.51288  -0.51124  -0.50869  -0.50528  -0.50334
 Alpha  occ. eigenvalues --   -0.50037  -0.49698  -0.48124  -0.47747  -0.47417
 Alpha  occ. eigenvalues --   -0.46932  -0.46404  -0.45601  -0.45475  -0.45192
 Alpha  occ. eigenvalues --   -0.44652  -0.44446  -0.44000  -0.43346  -0.43131
 Alpha  occ. eigenvalues --   -0.42146  -0.41409  -0.41281  -0.40977  -0.40672
 Alpha  occ. eigenvalues --   -0.39609  -0.38441  -0.37515  -0.36277  -0.35638
 Alpha  occ. eigenvalues --   -0.34749  -0.34459  -0.32219  -0.31818  -0.30992
 Alpha  occ. eigenvalues --   -0.30780  -0.29775  -0.27687  -0.25307  -0.20099
 Alpha  occ. eigenvalues --   -0.18369  -0.17329
 Alpha virt. eigenvalues --   -0.16502  -0.16165  -0.12997  -0.11730  -0.11344
 Alpha virt. eigenvalues --   -0.08907  -0.08648  -0.08196  -0.07882  -0.07000
 Alpha virt. eigenvalues --   -0.06247  -0.05723  -0.04810  -0.04716  -0.04308

 Mulliken charges:
               1
     1  N   -0.680994
     2  H    0.293974
     3  H    0.293177
     4  C   -0.087773
     5  H    0.179506
     6  C    0.606564
     7  C   -0.245852
     8  H    0.119069
     9  H    0.140433
    10  O   -0.553343
    11  C   -0.320687
    12  H    0.125571
    13  H    0.144382
    14  C    0.541818
    15  O   -0.536369
    16  O   -0.565329
    17  N   -0.588433
    18  H    0.356744
    19  C   -0.088290
    20  H    0.179834
    21  C    0.620073
    22  C   -0.342429
    23  H    0.105369
    24  H    0.165661
    25  O   -0.488363
    26  C    0.071091
    27  C   -0.006773
    28  H    0.207375
    29  C    0.078835
    30  C    0.322974
    31  C   -0.211717
    32  H    0.080889
    33  N   -0.702671
    34  H    0.341670
    35  C   -0.151580
    36  H    0.132545
    37  C   -0.155172
    38  H    0.143795
    39  C   -0.144797
    40  H    0.087967
    41  N   -0.639695
    42  H    0.352810
    43  C   -0.090372
    44  H    0.212582
    45  C    0.627699
    46  C    0.047826
    47  H    0.233025
    48  O   -0.592272
    49  C   -0.479720
    50  H    0.226412
    51  H    0.206395
    52  H    0.206860
    53  O   -0.594906
    54  H    0.480363
    55  N   -0.586857
    56  H    0.355089
    57  C   -0.064894
    58  H    0.223743
    59  C    0.601049
    60  C   -0.307585
    61  H    0.199141
    62  H    0.164051
    63  O   -0.453423
    64  C   -0.303785
    65  H    0.184517
    66  H    0.166952
    67  C   -0.152369
    68  H    0.186695
    69  H    0.183532
    70  N   -0.598854
    71  H    0.365850
    72  N   -0.736285
    73  H    0.381493
    74  H    0.386164
    75  N   -0.735931
    76  H    0.384361
    77  H    0.376447
    78  C    0.750414
    79  O   -0.558033
    80  H    0.437817
    81  H    0.484952
 Sum of Mulliken charges =   1.00000

 Dipole moment (field-independent basis, Debye):
    X=             15.3403    Y=             10.9480    Z=            -47.4483  Tot=             51.0542
 Quadrupole moment (field-independent basis, Debye-Ang):
   XX=           -195.8446   YY=           -142.5725   ZZ=           -216.0855
   XY=              4.4034   XZ=             43.5091   YZ=           -155.8918

 Normal termination of Gaussian 16 at Sun May 15 14:55:28 2022.
