 Gaussian 16, Revision C.01,
 Gaussian 16:  ES64L-G16RevC.01  3-Jul-2019

 ----------------------------------------------------------------------
 # B3LYP/6-31G* empiricaldispersion=gd3 guess=read geom=check nosymm in
 tegral(ultrafinegrid)
 ----------------------------------------------------------------------

 ------------------------------------------------------
 Candidate Structure: Conf:472 Charge calc in gas phase
 ------------------------------------------------------
 Structure from the checkpoint file:  "conf-472.chk"
 Charge =  1 Multiplicity = 1

                          Input orientation:
 ---------------------------------------------------------------------
 Center     Atomic      Atomic             Coordinates (Angstroms)
 Number     Number       Type             X           Y           Z
 ---------------------------------------------------------------------
      1          7           0       -1.686569   -2.071736    3.181899
      2          1           0       -1.151400   -2.820236    2.750948
      3          1           0       -1.059050   -1.525367    3.767281
      4          6           0       -2.391435   -1.244944    2.195401
      5          1           0       -2.925170   -1.948790    1.540889
      6          6           0       -1.437703   -0.478993    1.264966
      7          6           0       -3.426066   -0.352726    2.918963
      8          1           0       -3.583415   -0.815751    3.897301
      9          1           0       -3.013208    0.645008    3.105331
     10          8           0       -0.354986   -1.208509    0.836404
     11          6           0       -4.805734   -0.250525    2.242852
     12          1           0       -5.493892    0.234577    2.949257
     13          1           0       -5.214331   -1.247811    2.052720
     14          6           0       -4.950288    0.551094    0.949399
     15          8           0       -5.772884    0.279817    0.103475
     16          8           0       -4.185726    1.662714    0.845744
     17          7           0       -1.663863    0.704296    0.853292
     18          1           0       -3.256057    1.462032    1.137829
     19          6           0       -0.740873    1.413507   -0.052360
     20          1           0       -0.322549    0.714071   -0.788760
     21          6           0        0.430417    1.953760    0.805411
     22          6           0       -1.473907    2.545993   -0.797752
     23          1           0       -0.735466    3.315949   -1.048657
     24          1           0       -2.177792    3.024242   -0.111378
     25          8           0        0.515156    3.089560    1.238232
     26          6           0       -2.161813    2.093377   -2.055139
     27          6           0       -3.431773    1.582980   -2.200838
     28          1           0       -4.201922    1.416298   -1.460213
     29          6           0       -1.598134    2.153645   -3.379108
     30          6           0       -2.588070    1.670315   -4.288945
     31          6           0       -0.382861    2.633782   -3.901789
     32          1           0        0.379219    3.032299   -3.235582
     33          7           0       -3.675845    1.306318   -3.533224
     34          1           0       -4.571162    1.011748   -3.894303
     35          6           0       -1.194769    2.184553   -6.165293
     36          1           0       -1.031080    2.237643   -7.237836
     37          6           0       -2.394160    1.670092   -5.675944
     38          1           0       -3.174895    1.329508   -6.351425
     39          6           0       -0.193485    2.659252   -5.285122
     40          1           0        0.720134    3.077649   -5.699059
     41          7           0        1.377586    0.979077    1.005728
     42          1           0        1.100947    0.045267    0.721657
     43          6           0        2.405451    1.003100    2.037665
     44          1           0        2.513876    2.033930    2.388346
     45          6           0        3.628579    0.512640    1.256079
     46          6           0        2.030640    0.069049    3.213849
     47          1           0        2.910895   -0.029055    3.865121
     48          8           0        3.851101   -0.696672    1.140979
     49          6           0        0.853796    0.598711    4.015713
     50          1           0        1.099572    1.560385    4.475916
     51          1           0        0.598395   -0.108950    4.810342
     52          1           0       -0.022541    0.749519    3.375886
     53          8           0        1.679553   -1.239067    2.717090
     54          1           0        0.156270   -1.513028    1.622742
     55          7           0        4.297308    1.448344    0.520421
     56          1           0        4.005821    2.414842    0.615950
     57          6           0        4.779793    1.056746   -0.803232
     58          1           0        5.150006    0.032018   -0.708790
     59          6           0        5.935074    1.895686   -1.326177
     60          6           0        3.602294    1.094961   -1.815977
     61          1           0        3.449342    2.129974   -2.150938
     62          1           0        2.702695    0.814203   -1.257937
     63          8           0        6.412137    1.716034   -2.425670
     64          6           0        3.737119    0.162362   -3.023248
     65          1           0        4.604624    0.440244   -3.629942
     66          1           0        3.892897   -0.863419   -2.661422
     67          6           0        2.445853    0.225214   -3.840980
     68          1           0        1.581403    0.072551   -3.181364
     69          1           0        2.334548    1.208313   -4.312417
     70          7           0        2.413588   -0.816478   -4.880029
     71          1           0        3.239493   -1.388492   -4.992477
     72          7           0        0.165154   -0.499380   -5.307468
     73          1           0       -0.659946   -0.680419   -5.862063
     74          1           0        0.177106    0.441298   -4.913300
     75          7           0        1.292902   -2.246880   -6.330070
     76          1           0        2.109877   -2.826348   -6.448796
     77          1           0        0.464390   -2.519383   -6.837805
     78          6           0        1.293453   -1.179741   -5.510854
     79          8           0        6.327487    2.861758   -0.478461
     80          1           0        7.060365    3.345421   -0.907670
     81          1           0        2.469156   -1.536407    2.214822
 ---------------------------------------------------------------------

 SCF Done:  E(RB3LYP) =  -2054.01761685     A.U. after    2 cycles

 Alpha  occ. eigenvalues --  -19.29909 -19.27310 -19.25005 -19.23891 -19.23381
 Alpha  occ. eigenvalues --  -19.22555 -19.21083 -19.18844 -14.53203 -14.53061
 Alpha  occ. eigenvalues --  -14.51689 -14.46756 -14.46397 -14.45107 -14.42869
 Alpha  occ. eigenvalues --  -14.40317 -10.49138 -10.42358 -10.39932 -10.38012
 Alpha  occ. eigenvalues --  -10.37996 -10.37111 -10.36582 -10.34763 -10.34092
 Alpha  occ. eigenvalues --  -10.33417 -10.31881 -10.31553 -10.31469 -10.31256
 Alpha  occ. eigenvalues --  -10.30900 -10.29314 -10.28857 -10.28751 -10.28419
 Alpha  occ. eigenvalues --  -10.28290 -10.27737 -10.26882 -10.26788 -10.26608
 Alpha  occ. eigenvalues --  -10.26384 -10.26257  -1.20753  -1.17757  -1.16430
 Alpha  occ. eigenvalues --   -1.15266  -1.14124  -1.12812  -1.11723  -1.11657
 Alpha  occ. eigenvalues --   -1.07168  -1.06412  -1.06221  -1.05581  -1.03788
 Alpha  occ. eigenvalues --   -1.02233  -1.00890  -0.97404  -0.93549  -0.92800
 Alpha  occ. eigenvalues --   -0.89307  -0.88210  -0.86750  -0.86025  -0.84570
 Alpha  occ. eigenvalues --   -0.83062  -0.82286  -0.81234  -0.80050  -0.78981
 Alpha  occ. eigenvalues --   -0.77871  -0.75856  -0.74074  -0.73385  -0.72097
 Alpha  occ. eigenvalues --   -0.71520  -0.71325  -0.70788  -0.70079  -0.68587
 Alpha  occ. eigenvalues --   -0.68252  -0.67829  -0.66900  -0.65967  -0.65411
 Alpha  occ. eigenvalues --   -0.64515  -0.64449  -0.64323  -0.63067  -0.62757
 Alpha  occ. eigenvalues --   -0.62116  -0.61322  -0.61053  -0.59431  -0.59342
 Alpha  occ. eigenvalues --   -0.58821  -0.58661  -0.57892  -0.57650  -0.57285
 Alpha  occ. eigenvalues --   -0.56753  -0.56455  -0.56202  -0.55537  -0.55209
 Alpha  occ. eigenvalues --   -0.54623  -0.54145  -0.52992  -0.52712  -0.52596
 Alpha  occ. eigenvalues --   -0.52352  -0.52175  -0.51395  -0.51084  -0.50578
 Alpha  occ. eigenvalues --   -0.50475  -0.50068  -0.49945  -0.49404  -0.49145
 Alpha  occ. eigenvalues --   -0.48616  -0.47970  -0.47891  -0.47480  -0.47211
 Alpha  occ. eigenvalues --   -0.47072  -0.46777  -0.46487  -0.46394  -0.46225
 Alpha  occ. eigenvalues --   -0.46032  -0.45783  -0.44142  -0.44039  -0.43742
 Alpha  occ. eigenvalues --   -0.43703  -0.42835  -0.42734  -0.42301  -0.41763
 Alpha  occ. eigenvalues --   -0.41647  -0.41645  -0.40684  -0.38706  -0.38379
 Alpha  occ. eigenvalues --   -0.38208  -0.37572  -0.37139  -0.36800  -0.35905
 Alpha  occ. eigenvalues --   -0.35822  -0.34638  -0.33715  -0.32255  -0.32158
 Alpha  occ. eigenvalues --   -0.31732  -0.28998
 Alpha virt. eigenvalues --   -0.12575  -0.10879  -0.10276  -0.10126  -0.09360
 Alpha virt. eigenvalues --   -0.08991  -0.07802  -0.06040  -0.05323  -0.05044
 Alpha virt. eigenvalues --   -0.04466  -0.03954  -0.02716  -0.02162  -0.01898

 Mulliken charges:
               1
     1  N   -0.726740
     2  H    0.312758
     3  H    0.320186
     4  C   -0.033237
     5  H    0.182420
     6  C    0.522504
     7  C   -0.306750
     8  H    0.186159
     9  H    0.160678
    10  O   -0.661999
    11  C   -0.365382
    12  H    0.194512
    13  H    0.177900
    14  C    0.586849
    15  O   -0.463682
    16  O   -0.624428
    17  N   -0.499191
    18  H    0.457630
    19  C   -0.067522
    20  H    0.148606
    21  C    0.602173
    22  C   -0.375341
    23  H    0.165975
    24  H    0.196015
    25  O   -0.495772
    26  C    0.043163
    27  C    0.002695
    28  H    0.235234
    29  C    0.080544
    30  C    0.321366
    31  C   -0.244802
    32  H    0.134753
    33  N   -0.685927
    34  H    0.346895
    35  C   -0.169774
    36  H    0.143529
    37  C   -0.198249
    38  H    0.146679
    39  C   -0.196242
    40  H    0.138875
    41  N   -0.626702
    42  H    0.361566
    43  C   -0.095918
    44  H    0.191520
    45  C    0.631274
    46  C    0.134756
    47  H    0.159273
    48  O   -0.538764
    49  C   -0.484671
    50  H    0.178926
    51  H    0.177644
    52  H    0.160169
    53  O   -0.674343
    54  H    0.443860
    55  N   -0.580775
    56  H    0.352293
    57  C   -0.073351
    58  H    0.222987
    59  C    0.593799
    60  C   -0.293308
    61  H    0.160653
    62  H    0.170465
    63  O   -0.455446
    64  C   -0.318679
    65  H    0.204607
    66  H    0.161607
    67  C   -0.144610
    68  H    0.186650
    69  H    0.193359
    70  N   -0.617239
    71  H    0.363349
    72  N   -0.765879
    73  H    0.372262
    74  H    0.414799
    75  N   -0.768138
    76  H    0.382005
    77  H    0.384145
    78  C    0.831474
    79  O   -0.552454
    80  H    0.430538
    81  H    0.433241
 Sum of Mulliken charges =   1.00000

 Dipole moment (field-independent basis, Debye):
    X=              9.2410    Y=             -4.3500    Z=            -17.8727  Tot=             20.5852
 Quadrupole moment (field-independent basis, Debye-Ang):
   XX=           -214.6323   YY=           -230.5987   ZZ=            -97.5735
   XY=             13.6660   XZ=            -13.9948   YZ=             32.7960

 Normal termination of Gaussian 16 at Sun May 15 14:55:28 2022.
