 Gaussian 16, Revision C.01,
 Gaussian 16:  ES64L-G16RevC.01  3-Jul-2019

 ----------------------------------------------------------------------
 # B3LYP/6-31G* empiricaldispersion=gd3 guess=read geom=check nosymm in
 tegral(ultrafinegrid)
 ----------------------------------------------------------------------

 ------------------------------------------------------
 Candidate Structure: Conf:428 Charge calc in gas phase
 ------------------------------------------------------
 Structure from the checkpoint file:  "conf-428.chk"
 Charge =  1 Multiplicity = 1

                          Input orientation:
 ---------------------------------------------------------------------
 Center     Atomic      Atomic             Coordinates (Angstroms)
 Number     Number       Type             X           Y           Z
 ---------------------------------------------------------------------
      1          7           0       -6.448416    2.723786    2.873378
      2          1           0       -7.026554    2.445231    2.086953
      3          1           0       -6.477253    1.938537    3.518832
      4          6           0       -5.067869    2.892030    2.449291
      5          1           0       -5.036222    3.645717    1.653142
      6          6           0       -4.459865    1.583384    1.940660
      7          6           0       -4.259512    3.421377    3.641587
      8          1           0       -4.798515    4.285260    4.039640
      9          1           0       -4.260005    2.661396    4.428192
     10          8           0       -4.773039    0.503811    2.419048
     11          6           0       -2.820706    3.843260    3.351481
     12          1           0       -2.786020    4.618543    2.581822
     13          1           0       -2.193941    3.000033    3.054775
     14          6           0       -2.313186    4.421644    4.696360
     15          8           0       -2.462006    5.646616    4.846745
     16          8           0       -1.841872    3.585716    5.484408
     17          7           0       -3.529608    1.722314    0.959112
     18          1           0       -3.134106    2.627432    0.752257
     19          6           0       -2.722904    0.613864    0.509780
     20          1           0       -2.811492   -0.191433    1.243796
     21          6           0       -1.288321    1.120506    0.397695
     22          6           0       -3.195983    0.074879   -0.859503
     23          1           0       -2.463570   -0.650738   -1.223300
     24          1           0       -3.224449    0.900358   -1.574444
     25          8           0       -1.039614    2.308008    0.304956
     26          6           0       -4.556798   -0.551293   -0.766986
     27          6           0       -5.735047    0.021041   -1.157517
     28          1           0       -5.907108    0.971582   -1.638079
     29          6           0       -4.897144   -1.827093   -0.187704
     30          6           0       -6.297100   -1.952873   -0.242846
     31          6           0       -4.137430   -2.860371    0.376664
     32          1           0       -3.053133   -2.798762    0.429149
     33          7           0       -6.787247   -0.810146   -0.836871
     34          1           0       -7.753057   -0.617454   -1.018765
     35          6           0       -6.196733   -4.083548    0.797048
     36          1           0       -6.681330   -4.971066    1.186278
     37          6           0       -6.971695   -3.073430    0.246827
     38          1           0       -8.052120   -3.144875    0.194670
     39          6           0       -4.796013   -3.981478    0.858614
     40          1           0       -4.223679   -4.791238    1.294105
     41          7           0       -0.317148    0.152631    0.391514
     42          1           0       -0.642289   -0.782644    0.202599
     43          6           0        0.960111    0.464085   -0.230177
     44          1           0        1.095532    1.539851   -0.122008
     45          6           0        0.894631    0.101368   -1.711310
     46          6           0        2.132636   -0.231447    0.498888
     47          1           0        2.233144    0.248949    1.473165
     48          8           0        0.375754   -0.935851   -2.098392
     49          6           0        1.988155   -1.727831    0.656799
     50          1           0        1.129009   -1.964227    1.283643
     51          1           0        2.878726   -2.140166    1.132153
     52          1           0        1.846383   -2.202821   -0.315713
     53          8           0        3.415652    0.011313   -0.215657
     54          1           0        3.424976   -0.436260   -1.116608
     55          7           0        1.497881    0.961470   -2.569779
     56          1           0        1.967364    1.769598   -2.193466
     57          6           0        1.880128    0.486116   -3.886954
     58          1           0        1.030241   -0.065124   -4.289391
     59          6           0        3.006625   -0.518136   -3.795212
     60          6           0        2.205115    1.646112   -4.833323
     61          1           0        1.325622    2.293449   -4.861354
     62          1           0        2.322575    1.231130   -5.837157
     63          8           0        3.592563   -0.818892   -2.772476
     64          6           0        3.438885    2.452753   -4.470529
     65          1           0        3.345356    2.872588   -3.468769
     66          1           0        4.316263    1.802288   -4.466287
     67          6           0        3.662573    3.589807   -5.451664
     68          1           0        3.773570    3.193082   -6.468599
     69          1           0        2.785764    4.243349   -5.448470
     70          7           0        4.853356    4.367097   -5.058097
     71          1           0        5.599566    3.820815   -4.653882
     72          7           0        4.536665    5.922599   -6.777655
     73          1           0        4.705891    6.862360   -7.096951
     74          1           0        3.599379    5.577507   -6.894777
     75          7           0        6.479973    5.963968   -5.460983
     76          1           0        6.821443    5.811132   -4.522098
     77          1           0        6.687551    6.876322   -5.836079
     78          6           0        5.272026    5.430815   -5.763805
     79          8           0        3.314588   -1.058902   -4.978273
     80          1           0        4.029691   -1.688841   -4.823901
     81          1           0        3.611511    0.957168   -0.365294
 ---------------------------------------------------------------------

 SCF Done:  E(RB3LYP) =  -2053.80315502     A.U. after    3 cycles

 Alpha  occ. eigenvalues --  -19.45648 -19.36249 -19.32414 -19.26796 -19.22028
 Alpha  occ. eigenvalues --  -19.13545 -19.05633 -19.05531 -14.55839 -14.55578
 Alpha  occ. eigenvalues --  -14.54898 -14.52386 -14.47720 -14.41887 -14.38991
 Alpha  occ. eigenvalues --  -14.31862 -10.50232 -10.49154 -10.43755 -10.43673
 Alpha  occ. eigenvalues --  -10.41137 -10.40131 -10.38495 -10.38387 -10.37142
 Alpha  occ. eigenvalues --  -10.36034 -10.32756 -10.30040 -10.29350 -10.26120
 Alpha  occ. eigenvalues --  -10.25851 -10.25545 -10.22666 -10.22642 -10.22545
 Alpha  occ. eigenvalues --  -10.22513 -10.22491 -10.22125 -10.22015 -10.21789
 Alpha  occ. eigenvalues --  -10.17236 -10.15470  -1.32730  -1.28209  -1.20200
 Alpha  occ. eigenvalues --   -1.19784  -1.19001  -1.14564  -1.10052  -1.09220
 Alpha  occ. eigenvalues --   -1.08623  -1.05906  -1.05208  -1.02109  -0.98900
 Alpha  occ. eigenvalues --   -0.98478  -0.96639  -0.95876  -0.93142  -0.90147
 Alpha  occ. eigenvalues --   -0.89637  -0.87913  -0.87400  -0.85953  -0.85233
 Alpha  occ. eigenvalues --   -0.82691  -0.82121  -0.81041  -0.80407  -0.79934
 Alpha  occ. eigenvalues --   -0.77886  -0.77487  -0.76827  -0.76515  -0.75841
 Alpha  occ. eigenvalues --   -0.75024  -0.73969  -0.72624  -0.70624  -0.70279
 Alpha  occ. eigenvalues --   -0.69099  -0.69049  -0.67842  -0.67756  -0.67162
 Alpha  occ. eigenvalues --   -0.66492  -0.66182  -0.65733  -0.64857  -0.63529
 Alpha  occ. eigenvalues --   -0.63469  -0.63354  -0.62540  -0.61547  -0.61148
 Alpha  occ. eigenvalues --   -0.61126  -0.59927  -0.59277  -0.58457  -0.58328
 Alpha  occ. eigenvalues --   -0.58013  -0.57273  -0.56562  -0.56035  -0.55690
 Alpha  occ. eigenvalues --   -0.54692  -0.54516  -0.53666  -0.53011  -0.52607
 Alpha  occ. eigenvalues --   -0.52399  -0.52260  -0.51966  -0.51902  -0.51397
 Alpha  occ. eigenvalues --   -0.50634  -0.50076  -0.49906  -0.49235  -0.48433
 Alpha  occ. eigenvalues --   -0.47608  -0.47207  -0.47118  -0.47009  -0.46481
 Alpha  occ. eigenvalues --   -0.46220  -0.45378  -0.45327  -0.44936  -0.44161
 Alpha  occ. eigenvalues --   -0.43408  -0.43233  -0.42220  -0.42036  -0.41714
 Alpha  occ. eigenvalues --   -0.40661  -0.39675  -0.39283  -0.38630  -0.37783
 Alpha  occ. eigenvalues --   -0.37666  -0.37155  -0.37110  -0.35777  -0.35323
 Alpha  occ. eigenvalues --   -0.34092  -0.32847  -0.31789  -0.31391  -0.28938
 Alpha  occ. eigenvalues --   -0.27562  -0.26062  -0.24468  -0.24333  -0.20726
 Alpha  occ. eigenvalues --   -0.18802  -0.18135
 Alpha virt. eigenvalues --   -0.17267  -0.16907  -0.16309  -0.13717  -0.11932
 Alpha virt. eigenvalues --   -0.08950  -0.08759  -0.07954  -0.07843  -0.06984
 Alpha virt. eigenvalues --   -0.06486  -0.05591  -0.04881  -0.04694  -0.03806

 Mulliken charges:
               1
     1  N   -0.691010
     2  H    0.282308
     3  H    0.311004
     4  C   -0.084930
     5  H    0.115431
     6  C    0.603767
     7  C   -0.257690
     8  H    0.176535
     9  H    0.157002
    10  O   -0.526410
    11  C   -0.336408
    12  H    0.103536
    13  H    0.100850
    14  C    0.554942
    15  O   -0.525619
    16  O   -0.535040
    17  N   -0.607601
    18  H    0.352426
    19  C   -0.068318
    20  H    0.204473
    21  C    0.628396
    22  C   -0.365764
    23  H    0.135072
    24  H    0.143692
    25  O   -0.502383
    26  C    0.082178
    27  C    0.008412
    28  H    0.146970
    29  C    0.112140
    30  C    0.321914
    31  C   -0.196495
    32  H    0.082795
    33  N   -0.693175
    34  H    0.331038
    35  C   -0.149074
    36  H    0.131036
    37  C   -0.154326
    38  H    0.131112
    39  C   -0.136071
    40  H    0.118972
    41  N   -0.594069
    42  H    0.361539
    43  C   -0.111631
    44  H    0.194437
    45  C    0.606893
    46  C    0.036405
    47  H    0.247333
    48  O   -0.495329
    49  C   -0.497021
    50  H    0.230354
    51  H    0.205563
    52  H    0.200825
    53  O   -0.601004
    54  H    0.502679
    55  N   -0.599183
    56  H    0.319340
    57  C   -0.057297
    58  H    0.250444
    59  C    0.623605
    60  C   -0.302881
    61  H    0.192157
    62  H    0.198083
    63  O   -0.527283
    64  C   -0.321659
    65  H    0.151548
    66  H    0.165804
    67  C   -0.151591
    68  H    0.195355
    69  H    0.190442
    70  N   -0.600854
    71  H    0.356410
    72  N   -0.733378
    73  H    0.382230
    74  H    0.385811
    75  N   -0.733114
    76  H    0.375371
    77  H    0.376596
    78  C    0.737348
    79  O   -0.537719
    80  H    0.442734
    81  H    0.429017
 Sum of Mulliken charges =   1.00000

 Dipole moment (field-independent basis, Debye):
    X=             35.9504    Y=              8.2577    Z=            -44.7883  Tot=             58.0225
 Quadrupole moment (field-independent basis, Debye-Ang):
   XX=            -87.0012   YY=           -178.5305   ZZ=           -177.6745
   XY=            143.7317   XZ=            -76.4732   YZ=           -208.3757

 Normal termination of Gaussian 16 at Sun May 15 14:55:34 2022.
