 Gaussian 16, Revision C.01,
 Gaussian 16:  ES64L-G16RevC.01  3-Jul-2019

 -------------------------------------------------------------------
 # B3LYP/6-31G* guess=read geom=check nosymm integral(ultrafinegrid)
 -------------------------------------------------------------------

 ------------------------------------------------------
 Candidate Structure: Conf:669 Charge calc in gas phase
 ------------------------------------------------------
 Structure from the checkpoint file:  "conf-669.chk"
 Charge =  1 Multiplicity = 1

                          Input orientation:
 ---------------------------------------------------------------------
 Center     Atomic      Atomic             Coordinates (Angstroms)
 Number     Number       Type             X           Y           Z
 ---------------------------------------------------------------------
      1          7           0       -0.535194    3.180383   -4.067314
      2          1           0       -0.397144    2.968691   -5.075360
      3          1           0       -0.713184    4.184683   -3.983606
      4          1           0        0.350464    2.919821   -3.462440
      5          6           0       -1.723310    2.368318   -3.663427
      6          1           0       -1.329239    1.489641   -3.144221
      7          6           0       -2.398584    1.901421   -4.979391
      8          6           0       -2.612916    3.129904   -2.660896
      9          1           0       -3.095221    3.982970   -3.153508
     10          1           0       -1.969440    3.494745   -1.852891
     11          8           0       -1.795198    2.069873   -6.045395
     12          8           0       -3.654700    2.309571   -2.173369
     13          1           0       -3.280165    1.580993   -1.640087
     14          7           0       -3.574380    1.289552   -4.784810
     15          1           0       -3.969611    1.354797   -3.840606
     16          6           0       -4.412557    0.525280   -5.721340
     17          1           0       -5.219102    1.179082   -6.084120
     18          6           0       -5.077205   -0.513136   -4.783209
     19          6           0       -3.664181   -0.054445   -6.921466
     20          1           0       -4.371938   -0.565220   -7.584210
     21          1           0       -2.892398   -0.765231   -6.609534
     22          1           0       -3.179859    0.739334   -7.489583
     23          8           0       -5.462871   -0.143540   -3.667945
     24          7           0       -5.117837   -1.805655   -5.162654
     25          1           0       -5.006657   -2.053714   -6.137300
     26          6           0       -5.738189   -2.825640   -4.307959
     27          1           0       -6.581112   -2.350596   -3.791034
     28          6           0       -4.729922   -3.340133   -3.238509
     29          6           0       -6.240167   -3.999983   -5.174710
     30          1           0       -5.386273   -4.658065   -5.384691
     31          8           0       -4.506379   -4.539404   -3.085217
     32          6           0       -7.330441   -4.802453   -4.470812
     33          1           0       -6.952202   -5.224144   -3.536105
     34          1           0       -8.199196   -4.168165   -4.262726
     35          1           0       -7.658426   -5.635514   -5.104463
     36          8           0       -6.716223   -3.415215   -6.394601
     37          1           0       -7.030999   -4.137803   -6.959577
     38          7           0       -4.104170   -2.375684   -2.514325
     39          1           0       -4.388773   -1.402176   -2.612618
     40          6           0       -3.037524   -2.698362   -1.580989
     41          1           0       -3.381020   -3.504682   -0.920027
     42          6           0       -2.740302   -1.439171   -0.757692
     43          6           0       -1.756334   -3.218500   -2.324078
     44          1           0       -2.150608   -3.972081   -3.012803
     45          8           0       -2.924790   -0.308940   -1.213220
     46          6           0       -1.060767   -2.125253   -3.145267
     47          1           0       -0.579011   -1.376630   -2.503527
     48          1           0       -1.771573   -1.603142   -3.793997
     49          1           0       -0.285164   -2.565685   -3.781587
     50          6           0       -0.777083   -3.939648   -1.386551
     51          1           0       -0.281132   -3.258377   -0.684808
     52          1           0       -1.281922   -4.725850   -0.810489
     53          1           0        0.008528   -4.427142   -1.974777
     54          7           0       -2.231583   -1.661989    0.485865
     55          1           0       -2.014450   -2.614968    0.748071
     56          6           0       -1.659142   -0.607226    1.320372
     57          1           0       -2.014311    0.337334    0.901654
     58          6           0       -0.128458   -0.700655    1.190355
     59          6           0       -2.109360   -0.719929    2.799146
     60          1           0       -1.775365   -1.707218    3.159260
     61          8           0        0.461981   -1.763521    1.474454
     62          6           0       -3.646076   -0.662729    2.913539
     63          1           0       -4.082296   -1.360883    2.190044
     64          1           0       -3.985669    0.339083    2.615077
     65          6           0       -1.425670    0.365619    3.648433
     66          1           0       -1.756061    1.364564    3.337896
     67          1           0       -0.333656    0.343300    3.562444
     68          1           0       -1.683158    0.250906    4.705574
     69          6           0       -4.186816   -0.994939    4.309102
     70          1           0       -5.281621   -1.000766    4.302949
     71          1           0       -3.854294   -1.987400    4.639215
     72          1           0       -3.870153   -0.266553    5.063051
     73          7           0        0.482577    0.398942    0.734979
     74          1           0       -0.074447    1.159188    0.305563
     75          6           0        1.885153    0.475525    0.365160
     76          1           0        2.127128   -0.360145   -0.308028
     77          6           0        2.811276    0.395383    1.594847
     78          6           0        2.157276    1.823110   -0.366211
     79          1           0        2.161824    2.626392    0.381365
     80          1           0        3.140813    1.788936   -0.839933
     81          8           0        2.449967    0.631535    2.738362
     82          6           0        1.099414    2.203326   -1.428910
     83          8           0       -0.103752    2.237979   -1.051439
     84          8           0        1.527345    2.481607   -2.583468
     85          7           0        4.126388    0.097506    1.290324
     86          1           0        4.356126   -0.198604    0.349261
     87          6           0        5.158889    0.013144    2.309645
     88          1           0        4.800009    0.638685    3.135784
     89          6           0        6.512577    0.599027    1.846165
     90          6           0        5.368877   -1.438799    2.849424
     91          1           0        6.146111   -1.420243    3.617468
     92          1           0        5.742335   -2.078623    2.043779
     93          8           0        7.558610    0.207088    2.391361
     94          6           0        4.077727   -1.982862    3.357178
     95          6           0        3.039525   -2.535360    2.663821
     96          1           0        2.957320   -2.838765    1.634289
     97          7           0        3.569427   -1.721219    4.626186
     98          1           0        4.081628   -1.296308    5.389293
     99          6           0        2.275162   -2.059103    4.682997
    100          1           0        1.623985   -1.940499    5.534752
    101          7           0        1.946531   -2.570448    3.499958
    102          7           0        6.447116    1.506205    0.867840
    103          1           0        5.525227    1.851752    0.630492
    104          6           0        7.580888    2.268263    0.334544
    105          1           0        8.383126    1.553748    0.129745
    106          6           0        8.077300    3.310322    1.377899
    107          6           0        7.102619    2.935323   -0.981756
    108          1           0        6.468674    2.201833   -1.504029
    109          1           0        6.451643    3.779568   -0.712140
    110          8           0        7.345419    3.644144    2.328615
    111          6           0        8.179351    3.416331   -1.978443
    112          1           0        8.857752    4.120316   -1.484407
    113          6           0        9.033928    2.259358   -2.516104
    114          1           0        8.415460    1.510427   -3.030674
    115          1           0        9.771966    2.638310   -3.229449
    116          1           0        9.599418    1.752392   -1.725725
    117          6           0        7.491138    4.161607   -3.132700
    118          1           0        6.808381    3.502191   -3.686032
    119          1           0        8.235335    4.541373   -3.840157
    120          1           0        6.910961    5.018049   -2.768954
    121          7           0        9.301718    3.766503    1.117177
    122          1           0        9.815793    3.506861    0.245380
    123          6           0        9.929427    5.028309    1.530883
    124          1           0        9.193395    5.837597    1.456512
    125          6           0       11.079456    5.272934    0.453724
    126          6           0       10.519613    5.031669    2.942599
    127          1           0        9.704578    4.926629    3.671067
    128          1           0       10.966845    6.019338    3.083935
    129          8           0       11.843936    6.210465    0.710034
    130          6           0       11.591004    3.941665    3.136793
    131          1           0       11.387690    3.104375    2.457670
    132          1           0       12.571834    4.332791    2.848319
    133          6           0       11.669497    3.402594    4.568993
    134          1           0       12.400450    2.591273    4.665058
    135          1           0       11.973982    4.176649    5.278264
    136          7           0       10.349226    2.925900    5.052639
    137          1           0        9.803048    3.597344    5.577678
    138          7           0       10.157244    0.940345    3.832961
    139          1           0        9.603045    0.455902    3.132514
    140          1           0       11.158422    0.808992    3.829626
    141          7           0        8.255147    2.089061    4.508876
    142          1           0        7.792011    1.318741    4.030318
    143          1           0        7.882624    2.978416    4.153935
    144          6           0        9.605665    1.997071    4.443608
    145          8           0       11.065948    4.445179   -0.508113
    146          1           0        1.002353   -2.663244    3.112562
 ---------------------------------------------------------------------

 SCF Done:  E(RB3LYP) =  -3503.36599248     A.U. after    3 cycles

 Alpha  occ. eigenvalues --  -19.23877 -19.23758 -19.22762 -19.22129 -19.21529
 Alpha  occ. eigenvalues --  -19.21511 -19.20167 -19.19279 -19.18836 -19.18344
 Alpha  occ. eigenvalues --  -19.18249 -19.17739 -19.08998 -19.07638 -14.56855
 Alpha  occ. eigenvalues --  -14.55647 -14.49706 -14.48839 -14.48223 -14.47862
 Alpha  occ. eigenvalues --  -14.47233 -14.45845 -14.45508 -14.45355 -14.43934
 Alpha  occ. eigenvalues --  -14.43195 -14.42016 -14.39360 -10.43666 -10.43647
 Alpha  occ. eigenvalues --  -10.40981 -10.40849 -10.39109 -10.38630 -10.38428
 Alpha  occ. eigenvalues --  -10.37310 -10.37264 -10.36755 -10.36749 -10.36511
 Alpha  occ. eigenvalues --  -10.35469 -10.34718 -10.34628 -10.33938 -10.32543
 Alpha  occ. eigenvalues --  -10.32457 -10.31714 -10.31633 -10.31542 -10.31289
 Alpha  occ. eigenvalues --  -10.31176 -10.30688 -10.30288 -10.28892 -10.28658
 Alpha  occ. eigenvalues --  -10.26938 -10.26655 -10.26111 -10.25996 -10.25988
 Alpha  occ. eigenvalues --  -10.25343 -10.25264 -10.24852 -10.24771 -10.24472
 Alpha  occ. eigenvalues --  -10.24335 -10.23596 -10.23450 -10.22735 -10.21822
 Alpha  occ. eigenvalues --  -10.21779  -1.21016  -1.15883  -1.15129  -1.13875
 Alpha  occ. eigenvalues --   -1.13023  -1.12402  -1.12328  -1.11971  -1.11537
 Alpha  occ. eigenvalues --   -1.10003  -1.09582  -1.08823  -1.08752  -1.07710
 Alpha  occ. eigenvalues --   -1.05517  -1.04865  -1.03463  -1.02944  -1.02217
 Alpha  occ. eigenvalues --   -1.02058  -1.01917  -1.01898  -1.00214  -0.99937
 Alpha  occ. eigenvalues --   -0.99864  -0.98749  -0.96373  -0.95091  -0.93103
 Alpha  occ. eigenvalues --   -0.90541  -0.89746  -0.87696  -0.87413  -0.87169
 Alpha  occ. eigenvalues --   -0.86352  -0.85659  -0.84046  -0.82940  -0.82740
 Alpha  occ. eigenvalues --   -0.82517  -0.81947  -0.80409  -0.80029  -0.79176
 Alpha  occ. eigenvalues --   -0.78312  -0.76935  -0.76341  -0.76016  -0.75580
 Alpha  occ. eigenvalues --   -0.75037  -0.74578  -0.73040  -0.72749  -0.72467
 Alpha  occ. eigenvalues --   -0.72367  -0.71544  -0.71332  -0.70691  -0.69594
 Alpha  occ. eigenvalues --   -0.69202  -0.68995  -0.68440  -0.68043  -0.67179
 Alpha  occ. eigenvalues --   -0.67022  -0.66727  -0.66395  -0.65568  -0.65115
 Alpha  occ. eigenvalues --   -0.65063  -0.63982  -0.63895  -0.63259  -0.63108
 Alpha  occ. eigenvalues --   -0.62484  -0.62201  -0.62116  -0.61783  -0.61462
 Alpha  occ. eigenvalues --   -0.61228  -0.60887  -0.60765  -0.60519  -0.59801
 Alpha  occ. eigenvalues --   -0.59229  -0.59100  -0.58960  -0.58642  -0.58402
 Alpha  occ. eigenvalues --   -0.57895  -0.57484  -0.57290  -0.56989  -0.56725
 Alpha  occ. eigenvalues --   -0.56410  -0.56278  -0.55653  -0.55487  -0.55251
 Alpha  occ. eigenvalues --   -0.55111  -0.54567  -0.54022  -0.53617  -0.53457
 Alpha  occ. eigenvalues --   -0.53174  -0.52888  -0.52683  -0.52527  -0.52464
 Alpha  occ. eigenvalues --   -0.52103  -0.51776  -0.51664  -0.51414  -0.51206
 Alpha  occ. eigenvalues --   -0.50995  -0.50949  -0.50509  -0.50326  -0.50005
 Alpha  occ. eigenvalues --   -0.49939  -0.49765  -0.49636  -0.49514  -0.48984
 Alpha  occ. eigenvalues --   -0.48917  -0.48653  -0.48583  -0.48426  -0.48228
 Alpha  occ. eigenvalues --   -0.48128  -0.47739  -0.47640  -0.47509  -0.47366
 Alpha  occ. eigenvalues --   -0.47306  -0.46964  -0.46610  -0.46547  -0.46311
 Alpha  occ. eigenvalues --   -0.46136  -0.45889  -0.45803  -0.45657  -0.45510
 Alpha  occ. eigenvalues --   -0.45105  -0.44820  -0.44516  -0.44387  -0.44164
 Alpha  occ. eigenvalues --   -0.44090  -0.43992  -0.43523  -0.43310  -0.42998
 Alpha  occ. eigenvalues --   -0.42714  -0.42541  -0.41701  -0.41520  -0.41433
 Alpha  occ. eigenvalues --   -0.41036  -0.41021  -0.40860  -0.40700  -0.40577
 Alpha  occ. eigenvalues --   -0.40501  -0.39850  -0.39804  -0.39710  -0.39611
 Alpha  occ. eigenvalues --   -0.39050  -0.38838  -0.38425  -0.37968  -0.37895
 Alpha  occ. eigenvalues --   -0.37629  -0.37508  -0.37226  -0.37151  -0.36726
 Alpha  occ. eigenvalues --   -0.36428  -0.36089  -0.35970  -0.35589  -0.35240
 Alpha  occ. eigenvalues --   -0.34861  -0.34349  -0.34248  -0.34101  -0.33762
 Alpha  occ. eigenvalues --   -0.33659  -0.33369  -0.32636  -0.32328  -0.31739
 Alpha  occ. eigenvalues --   -0.31665  -0.30944  -0.30445  -0.24013  -0.23817
 Alpha  occ. eigenvalues --   -0.21889
 Alpha virt. eigenvalues --   -0.15788  -0.11826  -0.10187  -0.10006  -0.09622
 Alpha virt. eigenvalues --   -0.09075  -0.07345  -0.06973  -0.06935  -0.05142
 Alpha virt. eigenvalues --   -0.04781  -0.04456  -0.03913  -0.03821  -0.03640

 Mulliken charges:
               1
     1  N   -0.795962
     2  H    0.401754
     3  H    0.377650
     4  H    0.447772
     5  C   -0.112330
     6  H    0.220479
     7  C    0.624910
     8  C   -0.054531
     9  H    0.155204
    10  H    0.184005
    11  O   -0.548270
    12  O   -0.629051
    13  H    0.443705
    14  N   -0.651611
    15  H    0.414520
    16  C   -0.007220
    17  H    0.191098
    18  C    0.601412
    19  C   -0.487816
    20  H    0.158774
    21  H    0.162976
    22  H    0.210394
    23  O   -0.540237
    24  N   -0.606254
    25  H    0.363119
    26  C   -0.067273
    27  H    0.197483
    28  C    0.631212
    29  C    0.128886
    30  H    0.149945
    31  O   -0.531846
    32  C   -0.478006
    33  H    0.183765
    34  H    0.160356
    35  H    0.147321
    36  O   -0.648924
    37  H    0.405678
    38  N   -0.658306
    39  H    0.397652
    40  C   -0.020205
    41  H    0.164365
    42  C    0.624774
    43  C   -0.082179
    44  H    0.184539
    45  O   -0.550292
    46  C   -0.463784
    47  H    0.139031
    48  H    0.157141
    49  H    0.152856
    50  C   -0.487186
    51  H    0.144803
    52  H    0.148843
    53  H    0.157940
    54  N   -0.602016
    55  H    0.342998
    56  C   -0.061694
    57  H    0.186870
    58  C    0.650731
    59  C   -0.084677
    60  H    0.104451
    61  O   -0.624971
    62  C   -0.255084
    63  H    0.149698
    64  H    0.148461
    65  C   -0.485706
    66  H    0.163548
    67  H    0.162495
    68  H    0.156203
    69  C   -0.452909
    70  H    0.165845
    71  H    0.138158
    72  H    0.153173
    73  N   -0.605579
    74  H    0.404694
    75  C   -0.050467
    76  H    0.163474
    77  C    0.643003
    78  C   -0.389233
    79  H    0.190086
    80  H    0.161997
    81  O   -0.522165
    82  C    0.616745
    83  O   -0.587713
    84  O   -0.591289
    85  N   -0.648042
    86  H    0.342038
    87  C   -0.060635
    88  H    0.212472
    89  C    0.653235
    90  C   -0.353240
    91  H    0.194201
    92  H    0.194005
    93  O   -0.587452
    94  C    0.327103
    95  C    0.020331
    96  H    0.219979
    97  N   -0.586370
    98  H    0.385451
    99  C    0.324769
   100  H    0.251882
   101  N   -0.515480
   102  N   -0.590559
   103  H    0.356145
   104  C   -0.048359
   105  H    0.175095
   106  C    0.606001
   107  C   -0.298238
   108  H    0.127144
   109  H    0.153225
   110  O   -0.600609
   111  C   -0.098027
   112  H    0.189837
   113  C   -0.444839
   114  H    0.121591
   115  H    0.176749
   116  H    0.140177
   117  C   -0.448423
   118  H    0.129798
   119  H    0.166193
   120  H    0.143482
   121  N   -0.614065
   122  H    0.377608
   123  C   -0.082066
   124  H    0.155947
   125  C    0.593081
   126  C   -0.257352
   127  H    0.089684
   128  H    0.186767
   129  O   -0.568597
   130  C   -0.278653
   131  H    0.146830
   132  H    0.199491
   133  C   -0.187978
   134  H    0.165526
   135  H    0.188136
   136  N   -0.559243
   137  H    0.365166
   138  N   -0.747266
   139  H    0.402645
   140  H    0.374527
   141  N   -0.770136
   142  H    0.362278
   143  H    0.397178
   144  C    0.728922
   145  O   -0.612362
   146  H    0.411092
 Sum of Mulliken charges =   1.00000

 Dipole moment (field-independent basis, Debye):
    X=              3.3573    Y=            -13.8231    Z=             13.6850  Tot=             19.7390
 Quadrupole moment (field-independent basis, Debye-Ang):
   XX=           -403.4781   YY=           -439.2029   ZZ=           -263.0403
   XY=            -94.5134   XZ=            163.2096   YZ=              0.7810

 Normal termination of Gaussian 16 at Sun Jun 19 12:01:34 2022.
