 Gaussian 16, Revision C.01,
 Gaussian 16:  ES64L-G16RevC.01  3-Jul-2019

 -------------------------------------------------------------------
 # B3LYP/6-31G* guess=read geom=check nosymm integral(ultrafinegrid)
 -------------------------------------------------------------------

 ------------------------------------------------------
 Candidate Structure: Conf:981 Charge calc in gas phase
 ------------------------------------------------------
 Structure from the checkpoint file:  "conf-981.chk"
 Charge =  1 Multiplicity = 1

                          Input orientation:
 ---------------------------------------------------------------------
 Center     Atomic      Atomic             Coordinates (Angstroms)
 Number     Number       Type             X           Y           Z
 ---------------------------------------------------------------------
      1          7           0       -8.793173    0.028515  -10.549211
      2          1           0       -7.971552    0.338511  -11.084699
      3          1           0       -8.899496   -1.003128  -10.628194
      4          1           0       -9.635878    0.458715  -10.962366
      5          6           0       -8.683447    0.318493   -9.058763
      6          1           0       -8.787481    1.396004   -8.893768
      7          6           0       -7.304907   -0.158639   -8.557457
      8          6           0       -9.825322   -0.471046   -8.399585
      9          1           0      -10.793026   -0.078866   -8.734503
     10          1           0       -9.773245   -0.362828   -7.309925
     11          8           0       -7.170362   -1.324365   -8.159244
     12          8           0       -9.756779   -1.817215   -8.826009
     13          1           0       -8.905233   -2.165576   -8.474248
     14          7           0       -6.295701    0.738205   -8.651066
     15          1           0       -6.500842    1.714223   -8.844172
     16          6           0       -4.885725    0.423811   -8.313544
     17          1           0       -4.710733   -0.601710   -8.654037
     18          6           0       -4.664138    0.498254   -6.777100
     19          6           0       -3.966643    1.403506   -9.038638
     20          1           0       -2.925291    1.198963   -8.782350
     21          1           0       -4.182170    2.433258   -8.736246
     22          1           0       -4.085190    1.309338  -10.123778
     23          8           0       -4.154835    1.499363   -6.277603
     24          7           0       -5.067283   -0.581540   -6.066535
     25          1           0       -5.554629   -1.347255   -6.522506
     26          6           0       -4.978081   -0.640140   -4.601767
     27          1           0       -5.115253    0.377688   -4.218385
     28          6           0       -3.578784   -1.157276   -4.180138
     29          6           0       -6.071952   -1.575849   -4.049648
     30          1           0       -5.885171   -1.686830   -2.972462
     31          8           0       -3.441048   -2.299677   -3.716455
     32          6           0       -7.487647   -1.052343   -4.266574
     33          1           0       -7.626757   -0.078425   -3.783676
     34          1           0       -7.700180   -0.947505   -5.336944
     35          1           0       -8.208489   -1.760737   -3.847663
     36          8           0       -5.976058   -2.840561   -4.695690
     37          1           0       -5.110787   -3.198442   -4.399500
     38          7           0       -2.561830   -0.296195   -4.404115
     39          1           0       -2.768227    0.638219   -4.752870
     40          6           0       -1.182718   -0.545658   -3.992424
     41          1           0       -1.187814   -1.431199   -3.349757
     42          6           0       -0.711977    0.689349   -3.210236
     43          6           0       -0.256131   -0.825716   -5.214767
     44          1           0       -0.401321    0.013482   -5.911349
     45          8           0       -0.961661    1.818591   -3.638871
     46          6           0        1.230355   -0.875811   -4.823878
     47          1           0        1.418440   -1.635443   -4.055293
     48          1           0        1.593872    0.082724   -4.443480
     49          1           0        1.837087   -1.134682   -5.698511
     50          6           0       -0.669849   -2.134485   -5.906321
     51          1           0       -0.484205   -2.991896   -5.248201
     52          1           0       -1.732951   -2.142566   -6.169232
     53          1           0       -0.088021   -2.282766   -6.823697
     54          7           0       -0.009943    0.437693   -2.071705
     55          1           0        0.313277   -0.513319   -1.907254
     56          6           0        0.851178    1.440381   -1.444107
     57          1           0        0.815371    2.338469   -2.067416
     58          6           0        2.270040    0.827876   -1.458379
     59          6           0        0.368453    1.799548   -0.006497
     60          1           0        0.369626    0.855512    0.559707
     61          8           0        2.402722   -0.396726   -1.328746
     62          6           0       -1.091159    2.320054   -0.001545
     63          1           0       -1.399179    2.400164    1.051215
     64          1           0       -1.740113    1.560049   -0.453674
     65          6           0        1.309621    2.790635    0.698942
     66          1           0        1.487332    3.685765    0.090600
     67          1           0        2.286199    2.364264    0.936817
     68          1           0        0.858471    3.126585    1.640756
     69          6           0       -1.335714    3.668496   -0.694977
     70          1           0       -2.396573    3.939089   -0.633767
     71          1           0       -0.764618    4.477506   -0.224897
     72          1           0       -1.069182    3.629636   -1.755632
     73          7           0        3.302405    1.690613   -1.666783
     74          1           0        3.102210    2.673010   -1.507942
     75          6           0        4.711584    1.317184   -1.430068
     76          1           0        4.817118    0.260509   -1.671436
     77          6           0        5.009567    1.537285    0.059871
     78          6           0        5.649733    2.107832   -2.334186
     79          1           0        5.328989    1.988403   -3.375907
     80          1           0        5.631851    3.177773   -2.095279
     81          8           0        4.846795    2.634565    0.580682
     82          6           0        7.116833    1.573227   -2.207595
     83          8           0        7.949783    2.154101   -2.952991
     84          8           0        7.303750    0.624489   -1.383045
     85          7           0        5.361163    0.443833    0.792215
     86          1           0        5.782325   -0.325765    0.281848
     87          6           0        5.615509    0.623835    2.211282
     88          1           0        4.979317    1.471533    2.479264
     89          6           0        7.109589    0.930891    2.516442
     90          6           0        5.227249   -0.610658    3.044390
     91          1           0        6.021159   -1.358199    2.943813
     92          1           0        4.287471   -1.045656    2.688557
     93          8           0        7.898321    0.011023    2.776279
     94          6           0        4.993377   -0.188100    4.462305
     95          6           0        3.876670   -0.334931    5.244071
     96          1           0        2.972515   -0.896747    5.074550
     97          7           0        5.843625    0.633396    5.188001
     98          1           0        6.760668    1.065615    4.941579
     99          6           0        5.277407    0.997139    6.332744
    100          1           0        5.711964    1.701578    7.026988
    101          7           0        4.090270    0.388621    6.409509
    102          7           0        7.442184    2.240573    2.534627
    103          1           0        6.708445    2.907845    2.318620
    104          6           0        8.758452    2.739555    2.929305
    105          1           0        9.507008    2.021015    2.585903
    106          6           0        8.906983    2.699626    4.472046
    107          6           0        9.026512    4.106403    2.259381
    108          1           0        8.346211    4.851792    2.699200
    109          1           0       10.050660    4.425815    2.487161
    110          8           0        8.056383    2.137042    5.217491
    111          6           0        8.885879    4.066798    0.715890
    112          1           0        7.862502    3.759455    0.464987
    113          6           0        9.112918    5.466086    0.126014
    114          1           0       10.118754    5.834087    0.369568
    115          1           0        9.024854    5.428697   -0.965662
    116          1           0        8.386424    6.196124    0.508381
    117          6           0        9.871754    3.061529    0.094905
    118          1           0       10.899513    3.437064    0.217960
    119          1           0        9.676786    2.906835   -0.970364
    120          1           0        9.825683    2.076639    0.568928
    121          7           0       10.052897    3.201793    4.937568
    122          1           0       10.562282    3.952895    4.432423
    123          6           0       10.411981    3.328230    6.347108
    124          1           0        9.518009    3.274487    6.973478
    125          6           0       11.126726    4.732022    6.534450
    126          6           0       11.416842    2.248627    6.767252
    127          1           0       11.808093    2.559633    7.743606
    128          1           0       12.251975    2.267841    6.052176
    129          8           0       11.351556    5.035050    7.730264
    130          6           0       10.848503    0.824182    6.833228
    131          1           0       10.052491    0.771059    7.593092
    132          1           0       10.369644    0.552599    5.886577
    133          6           0       11.926111   -0.215838    7.142520
    134          1           0       11.522706   -1.238931    7.101567
    135          1           0       12.730847   -0.133609    6.402413
    136          7           0       12.504950    0.050929    8.479398
    137          1           0       11.833211    0.395557    9.160486
    138          7           0       14.320665   -1.382242    8.224461
    139          1           0       14.951150   -2.035499    8.673079
    140          1           0       13.953977   -1.688883    7.331765
    141          7           0       13.865341   -0.435533   10.301171
    142          1           0       14.818753   -0.649328   10.573717
    143          1           0       13.506947    0.397560   10.755894
    144          6           0       13.547008   -0.595624    8.992464
    145          8           0       11.402528    5.320788    5.449841
    146          1           0        3.434816    0.483616    7.170790
 ---------------------------------------------------------------------

 SCF Done:  E(RB3LYP) =  -3503.22496082     A.U. after    3 cycles

 Alpha  occ. eigenvalues --  -19.28494 -19.27149 -19.20186 -19.19469 -19.17627
 Alpha  occ. eigenvalues --  -19.15588 -19.15487 -19.14687 -19.14539 -19.14021
 Alpha  occ. eigenvalues --  -19.05678 -19.04711 -19.03546 -19.03135 -14.63462
 Alpha  occ. eigenvalues --  -14.52240 -14.51644 -14.51373 -14.51200 -14.50996
 Alpha  occ. eigenvalues --  -14.48995 -14.44303 -14.41216 -14.39519 -14.39119
 Alpha  occ. eigenvalues --  -14.38501 -14.38105 -14.36866 -10.47480 -10.44453
 Alpha  occ. eigenvalues --  -10.42236 -10.38884 -10.37966 -10.37543 -10.34817
 Alpha  occ. eigenvalues --  -10.34714 -10.33350 -10.33275 -10.32921 -10.32599
 Alpha  occ. eigenvalues --  -10.31823 -10.31717 -10.31563 -10.30526 -10.30283
 Alpha  occ. eigenvalues --  -10.29937 -10.28077 -10.27692 -10.27483 -10.26344
 Alpha  occ. eigenvalues --  -10.26328 -10.25748 -10.25741 -10.24568 -10.23843
 Alpha  occ. eigenvalues --  -10.23777 -10.23277 -10.22980 -10.22025 -10.21906
 Alpha  occ. eigenvalues --  -10.21884 -10.21519 -10.21227 -10.20815 -10.20735
 Alpha  occ. eigenvalues --  -10.20342 -10.19822 -10.18769 -10.16839 -10.16124
 Alpha  occ. eigenvalues --  -10.15434  -1.19857  -1.17138  -1.16193  -1.15684
 Alpha  occ. eigenvalues --   -1.15185  -1.12142  -1.09345  -1.07310  -1.06808
 Alpha  occ. eigenvalues --   -1.06742  -1.06714  -1.06212  -1.05631  -1.05277
 Alpha  occ. eigenvalues --   -1.05188  -1.04518  -1.02155  -1.00219  -0.98382
 Alpha  occ. eigenvalues --   -0.97432  -0.95916  -0.95821  -0.95434  -0.94753
 Alpha  occ. eigenvalues --   -0.94360  -0.93430  -0.93429  -0.89756  -0.89194
 Alpha  occ. eigenvalues --   -0.88172  -0.87611  -0.87394  -0.85164  -0.84009
 Alpha  occ. eigenvalues --   -0.83459  -0.82713  -0.81546  -0.80953  -0.79851
 Alpha  occ. eigenvalues --   -0.78927  -0.78184  -0.77571  -0.76658  -0.76448
 Alpha  occ. eigenvalues --   -0.76136  -0.76039  -0.75783  -0.75339  -0.74442
 Alpha  occ. eigenvalues --   -0.73550  -0.73445  -0.72725  -0.72150  -0.71929
 Alpha  occ. eigenvalues --   -0.71684  -0.70907  -0.69557  -0.68921  -0.67215
 Alpha  occ. eigenvalues --   -0.67113  -0.66987  -0.66812  -0.66220  -0.65784
 Alpha  occ. eigenvalues --   -0.65110  -0.64410  -0.64242  -0.63932  -0.63469
 Alpha  occ. eigenvalues --   -0.63336  -0.63013  -0.62703  -0.61772  -0.61649
 Alpha  occ. eigenvalues --   -0.61192  -0.61051  -0.61036  -0.60247  -0.59612
 Alpha  occ. eigenvalues --   -0.59519  -0.59437  -0.58531  -0.58383  -0.57824
 Alpha  occ. eigenvalues --   -0.57614  -0.57434  -0.57176  -0.56991  -0.56909
 Alpha  occ. eigenvalues --   -0.56474  -0.55876  -0.55125  -0.54949  -0.54779
 Alpha  occ. eigenvalues --   -0.54240  -0.53864  -0.53306  -0.53160  -0.52975
 Alpha  occ. eigenvalues --   -0.52498  -0.52012  -0.51485  -0.51290  -0.50844
 Alpha  occ. eigenvalues --   -0.50503  -0.50442  -0.49929  -0.49646  -0.49103
 Alpha  occ. eigenvalues --   -0.48861  -0.48818  -0.48334  -0.48291  -0.48142
 Alpha  occ. eigenvalues --   -0.47686  -0.47519  -0.47443  -0.47409  -0.46922
 Alpha  occ. eigenvalues --   -0.46807  -0.46372  -0.46169  -0.45999  -0.45695
 Alpha  occ. eigenvalues --   -0.45376  -0.45043  -0.44880  -0.44622  -0.44397
 Alpha  occ. eigenvalues --   -0.44051  -0.43678  -0.43399  -0.43243  -0.43180
 Alpha  occ. eigenvalues --   -0.43102  -0.43037  -0.42819  -0.42719  -0.42476
 Alpha  occ. eigenvalues --   -0.42395  -0.42308  -0.42166  -0.41846  -0.41584
 Alpha  occ. eigenvalues --   -0.41350  -0.41306  -0.41285  -0.41110  -0.40969
 Alpha  occ. eigenvalues --   -0.40724  -0.40400  -0.40334  -0.40290  -0.39818
 Alpha  occ. eigenvalues --   -0.39222  -0.39054  -0.38925  -0.38372  -0.38317
 Alpha  occ. eigenvalues --   -0.38031  -0.37564  -0.37373  -0.37233  -0.37032
 Alpha  occ. eigenvalues --   -0.36944  -0.36738  -0.36099  -0.35849  -0.35772
 Alpha  occ. eigenvalues --   -0.35299  -0.35180  -0.35138  -0.35133  -0.34414
 Alpha  occ. eigenvalues --   -0.33851  -0.33066  -0.32931  -0.32798  -0.32642
 Alpha  occ. eigenvalues --   -0.32149  -0.32047  -0.31174  -0.30682  -0.30570
 Alpha  occ. eigenvalues --   -0.30431  -0.29999  -0.29935  -0.29277  -0.28872
 Alpha  occ. eigenvalues --   -0.28472  -0.27853  -0.27782  -0.26653  -0.26582
 Alpha  occ. eigenvalues --   -0.20688  -0.20439  -0.19015  -0.18732  -0.17997
 Alpha  occ. eigenvalues --   -0.16860
 Alpha virt. eigenvalues --   -0.16230  -0.12411  -0.12060  -0.10296  -0.08345
 Alpha virt. eigenvalues --   -0.07539  -0.07477  -0.06442  -0.05959  -0.05100
 Alpha virt. eigenvalues --   -0.03999  -0.03360  -0.02848  -0.02390  -0.02388

 Mulliken charges:
               1
     1  N   -0.711577
     2  H    0.414503
     3  H    0.426661
     4  H    0.413439
     5  C   -0.165373
     6  H    0.212229
     7  C    0.629262
     8  C   -0.045987
     9  H    0.181787
    10  H    0.210311
    11  O   -0.520745
    12  O   -0.620412
    13  H    0.445854
    14  N   -0.596000
    15  H    0.347932
    16  C   -0.070112
    17  H    0.193048
    18  C    0.629401
    19  C   -0.466626
    20  H    0.207560
    21  H    0.183132
    22  H    0.147513
    23  O   -0.514789
    24  N   -0.610957
    25  H    0.370815
    26  C   -0.074383
    27  H    0.179988
    28  C    0.636657
    29  C    0.115232
    30  H    0.153328
    31  O   -0.550782
    32  C   -0.457034
    33  H    0.147718
    34  H    0.122323
    35  H    0.174360
    36  O   -0.653172
    37  H    0.423069
    38  N   -0.615502
    39  H    0.376401
    40  C   -0.057559
    41  H    0.171792
    42  C    0.613599
    43  C   -0.068299
    44  H    0.135163
    45  O   -0.539875
    46  C   -0.468835
    47  H    0.157682
    48  H    0.170279
    49  H    0.154871
    50  C   -0.445916
    51  H    0.156103
    52  H    0.136528
    53  H    0.145107
    54  N   -0.597752
    55  H    0.350178
    56  C   -0.077133
    57  H    0.178405
    58  C    0.617821
    59  C   -0.061335
    60  H    0.122602
    61  O   -0.552404
    62  C   -0.252708
    63  H    0.123453
    64  H    0.138738
    65  C   -0.487583
    66  H    0.150608
    67  H    0.175253
    68  H    0.139182
    69  C   -0.466993
    70  H    0.136695
    71  H    0.141706
    72  H    0.181621
    73  N   -0.597826
    74  H    0.338703
    75  C   -0.039700
    76  H    0.179837
    77  C    0.654991
    78  C   -0.381979
    79  H    0.148861
    80  H    0.145384
    81  O   -0.572336
    82  C    0.598947
    83  O   -0.585177
    84  O   -0.629242
    85  N   -0.581252
    86  H    0.363942
    87  C   -0.057186
    88  H    0.167302
    89  C    0.622431
    90  C   -0.357932
    91  H    0.216219
    92  H    0.175206
    93  O   -0.548287
    94  C    0.333915
    95  C   -0.020352
    96  H    0.208250
    97  N   -0.610590
    98  H    0.462635
    99  C    0.294795
   100  H    0.251058
   101  N   -0.550718
   102  N   -0.592943
   103  H    0.355266
   104  C   -0.054708
   105  H    0.202358
   106  C    0.630201
   107  C   -0.304685
   108  H    0.138821
   109  H    0.167199
   110  O   -0.634205
   111  C   -0.076869
   112  H    0.148164
   113  C   -0.447390
   114  H    0.139396
   115  H    0.166679
   116  H    0.129151
   117  C   -0.469892
   118  H    0.117142
   119  H    0.211617
   120  H    0.150303
   121  N   -0.593027
   122  H    0.374185
   123  C   -0.067252
   124  H    0.132998
   125  C    0.581697
   126  C   -0.254632
   127  H    0.150975
   128  H    0.141780
   129  O   -0.605184
   130  C   -0.310577
   131  H    0.135144
   132  H    0.196993
   133  C   -0.176018
   134  H    0.175127
   135  H    0.191181
   136  N   -0.562594
   137  H    0.370972
   138  N   -0.733362
   139  H    0.381632
   140  H    0.393271
   141  N   -0.739859
   142  H    0.378171
   143  H    0.386486
   144  C    0.777941
   145  O   -0.601839
   146  H    0.380221
 Sum of Mulliken charges =   1.00000

 Dipole moment (field-independent basis, Debye):
    X=            -21.1498    Y=            -15.4277    Z=             -3.3057  Tot=             26.3866
 Quadrupole moment (field-independent basis, Debye-Ang):
   XX=            132.0967   YY=           -510.2393   ZZ=            303.4891
   XY=           -263.9992   XZ=            726.4674   YZ=           -135.7431

 Normal termination of Gaussian 16 at Sun Jun 19 12:01:08 2022.
