 Gaussian 16, Revision C.01,
 Gaussian 16:  ES64L-G16RevC.01  3-Jul-2019

 -------------------------------------------------------------------
 # B3LYP/6-31G* guess=read geom=check nosymm integral(ultrafinegrid)
 -------------------------------------------------------------------

 ------------------------------------------------------
 Candidate Structure: Conf:727 Charge calc in gas phase
 ------------------------------------------------------
 Structure from the checkpoint file:  "conf-727.chk"
 Charge =  1 Multiplicity = 1

                          Input orientation:
 ---------------------------------------------------------------------
 Center     Atomic      Atomic             Coordinates (Angstroms)
 Number     Number       Type             X           Y           Z
 ---------------------------------------------------------------------
      1          7           0      -10.648598   -2.137778   -5.604862
      2          1           0      -10.218596   -3.075811   -5.474913
      3          1           0      -10.240083   -1.506486   -4.874858
      4          1           0      -11.668491   -2.164611   -5.539952
      5          6           0      -10.111489   -1.589568   -6.900496
      6          1           0      -10.846787   -1.732795   -7.697391
      7          6           0       -8.826963   -2.420767   -7.142486
      8          6           0       -9.816974   -0.082900   -6.619309
      9          1           0      -10.760945    0.472514   -6.624612
     10          1           0       -9.171041    0.331824   -7.398172
     11          8           0       -8.575227   -3.347965   -6.365548
     12          8           0       -9.252707    0.035295   -5.337340
     13          1           0       -8.277846   -0.111254   -5.410001
     14          7           0       -8.005449   -2.040512   -8.139121
     15          1           0       -8.245223   -1.190765   -8.636350
     16          6           0       -6.552944   -2.247549   -7.954263
     17          1           0       -6.375930   -3.322465   -7.870631
     18          6           0       -6.203552   -1.531351   -6.622301
     19          6           0       -5.784973   -1.663073   -9.139214
     20          1           0       -4.713035   -1.840388   -9.014872
     21          1           0       -5.940263   -0.580471   -9.206131
     22          1           0       -6.102664   -2.132623  -10.074986
     23          8           0       -6.751268   -0.448302   -6.363741
     24          7           0       -5.358862   -2.163980   -5.802977
     25          1           0       -4.857011   -3.007634   -6.076492
     26          6           0       -5.016912   -1.687334   -4.467723
     27          1           0       -5.087982   -0.596616   -4.462389
     28          6           0       -3.583760   -2.191665   -4.212219
     29          6           0       -6.013386   -2.284333   -3.408953
     30          1           0       -5.713215   -3.328004   -3.232580
     31          8           0       -3.217899   -3.238575   -4.751213
     32          6           0       -5.997404   -1.509702   -2.098433
     33          1           0       -5.005390   -1.500549   -1.637406
     34          1           0       -6.316998   -0.474733   -2.266381
     35          1           0       -6.696594   -1.969934   -1.394568
     36          8           0       -7.353648   -2.256152   -3.901431
     37          1           0       -7.420000   -2.910139   -4.616800
     38          7           0       -2.825995   -1.440105   -3.391706
     39          1           0       -3.250411   -0.683405   -2.861767
     40          6           0       -1.554232   -1.886436   -2.832237
     41          1           0       -1.499848   -2.972393   -2.961755
     42          6           0       -1.605224   -1.536014   -1.329429
     43          6           0       -0.318115   -1.240593   -3.527318
     44          1           0        0.562195   -1.608892   -2.982087
     45          8           0       -2.450759   -0.745391   -0.897725
     46          6           0       -0.196826   -1.706683   -4.984368
     47          1           0       -1.038554   -1.346173   -5.586350
     48          1           0       -0.176292   -2.798785   -5.060946
     49          1           0        0.724232   -1.314745   -5.429267
     50          6           0       -0.327249    0.291710   -3.428590
     51          1           0       -1.179719    0.715632   -3.972841
     52          1           0       -0.381140    0.641146   -2.392024
     53          1           0        0.585404    0.703038   -3.871801
     54          7           0       -0.667404   -2.140686   -0.571211
     55          1           0        0.085014   -2.651711   -1.026376
     56          6           0       -0.310713   -1.727578    0.787130
     57          1           0       -0.887365   -0.828297    1.020288
     58          6           0        1.200870   -1.418055    0.707740
     59          6           0       -0.608453   -2.845831    1.827053
     60          1           0        0.009566   -3.704940    1.528933
     61          8           0        1.922366   -2.109013   -0.015547
     62          6           0       -2.080232   -3.315767    1.787292
     63          1           0       -2.158300   -4.188570    2.449684
     64          1           0       -2.305251   -3.681106    0.778028
     65          6           0       -0.177494   -2.430884    3.243811
     66          1           0       -0.671583   -1.507060    3.568325
     67          1           0        0.902246   -2.270160    3.312408
     68          1           0       -0.443512   -3.214474    3.961975
     69          6           0       -3.135713   -2.278379    2.193834
     70          1           0       -4.133821   -2.731196    2.172840
     71          1           0       -2.973492   -1.903327    3.210606
     72          1           0       -3.148599   -1.425597    1.507314
     73          7           0        1.649423   -0.381097    1.442963
     74          1           0        1.024772    0.162734    2.027833
     75          6           0        3.038249    0.049802    1.452443
     76          1           0        3.682629   -0.822345    1.322772
     77          6           0        3.303734    0.746473    2.788727
     78          6           0        3.351240    1.065131    0.306974
     79          1           0        3.318654    0.508226   -0.634837
     80          1           0        2.584422    1.844937    0.299300
     81          8           0        2.400534    1.301112    3.414212
     82          6           0        4.753444    1.687493    0.524951
     83          8           0        5.714422    0.875188    0.562346
     84          8           0        4.781873    2.928604    0.785945
     85          7           0        4.627512    0.801333    3.161090
     86          1           0        5.250390    0.492978    2.402793
     87          6           0        5.076435    2.064999    3.758722
     88          1           0        4.556164    2.880747    3.244558
     89          6           0        6.592233    2.249846    3.528528
     90          6           0        4.752715    2.163946    5.273079
     91          1           0        5.289145    1.388312    5.824150
     92          1           0        3.679632    2.003018    5.402513
     93          8           0        7.414406    1.676164    4.288010
     94          6           0        5.184445    3.510206    5.756917
     95          6           0        6.418253    3.942712    6.149574
     96          1           0        7.328747    3.394156    6.307884
     97          7           0        4.438480    4.670856    5.554685
     98          1           0        3.476017    4.693910    5.239476
     99          6           0        5.189758    5.752558    5.796504
    100          1           0        4.878912    6.780928    5.702965
    101          7           0        6.390236    5.317943    6.177180
    102          7           0        6.921931    3.092274    2.558873
    103          1           0        6.191455    3.246689    1.825378
    104          6           0        8.312481    3.460390    2.284257
    105          1           0        8.866032    2.558539    1.999949
    106          6           0        8.965880    4.042119    3.562880
    107          6           0        8.401215    4.499753    1.150331
    108          1           0        7.865635    5.402936    1.473344
    109          1           0        9.460363    4.779615    1.069870
    110          8           0        8.310684    4.718460    4.377479
    111          6           0        7.898896    4.065239   -0.244494
    112          1           0        6.813196    3.915124   -0.196571
    113          6           0        8.175530    5.198972   -1.244553
    114          1           0        9.253735    5.368571   -1.363278
    115          1           0        7.765725    4.955922   -2.231667
    116          1           0        7.723476    6.144202   -0.918538
    117          6           0        8.527462    2.744234   -0.712852
    118          1           0        9.623543    2.772384   -0.643330
    119          1           0        8.267767    2.551436   -1.760338
    120          1           0        8.150095    1.895998   -0.132860
    121          7           0       10.263584    3.755876    3.686963
    122          1           0       10.859386    3.425062    2.904917
    123          6           0       11.157260    4.264830    4.719425
    124          1           0       10.888433    5.291830    4.984075
    125          6           0       12.621368    4.209875    4.111853
    126          6           0       11.108821    3.367896    5.969663
    127          1           0       10.065697    3.269968    6.309961
    128          1           0       11.669878    3.864564    6.766800
    129          8           0       13.511267    4.623827    4.871669
    130          6           0       11.738305    1.986124    5.681284
    131          1           0       11.744954    1.792113    4.602469
    132          1           0       12.792458    2.011187    5.972221
    133          6           0       11.081199    0.801528    6.381551
    134          1           0       11.697088   -0.092722    6.216649
    135          1           0       10.999761    0.971345    7.464222
    136          7           0        9.730690    0.544503    5.838130
    137          1           0        9.337905    1.202937    5.162800
    138          7           0        9.520961   -1.531085    6.865565
    139          1           0        8.906874   -2.214266    7.282116
    140          1           0       10.448843   -1.452979    7.251986
    141          7           0        7.737957   -0.638202    5.677510
    142          1           0        7.336905   -1.559687    5.573717
    143          1           0        7.385190    0.117686    5.067288
    144          6           0        9.004336   -0.531343    6.116615
    145          8           0       12.677905    3.675486    2.967531
    146          1           0        7.242559    5.870759    6.186053
 ---------------------------------------------------------------------

 SCF Done:  E(RB3LYP) =  -3503.31930631     A.U. after    3 cycles

 Alpha  occ. eigenvalues --  -19.28367 -19.28108 -19.23706 -19.23340 -19.20178
 Alpha  occ. eigenvalues --  -19.18769 -19.18538 -19.18048 -19.16744 -19.13713
 Alpha  occ. eigenvalues --  -19.11174 -19.10200 -19.05223 -19.04040 -14.59331
 Alpha  occ. eigenvalues --  -14.52470 -14.51657 -14.50665 -14.47369 -14.46906
 Alpha  occ. eigenvalues --  -14.45479 -14.44507 -14.43981 -14.42299 -14.41302
 Alpha  occ. eigenvalues --  -14.40323 -14.39818 -14.35797 -10.44971 -10.42119
 Alpha  occ. eigenvalues --  -10.41078 -10.40558 -10.39315 -10.38619 -10.37429
 Alpha  occ. eigenvalues --  -10.36168 -10.35654 -10.34481 -10.34204 -10.33987
 Alpha  occ. eigenvalues --  -10.33607 -10.33284 -10.32570 -10.32505 -10.30547
 Alpha  occ. eigenvalues --  -10.30109 -10.29848 -10.29617 -10.29549 -10.28955
 Alpha  occ. eigenvalues --  -10.28879 -10.27860 -10.27830 -10.25897 -10.25773
 Alpha  occ. eigenvalues --  -10.25429 -10.24900 -10.23137 -10.23082 -10.23075
 Alpha  occ. eigenvalues --  -10.22965 -10.22841 -10.21874 -10.21835 -10.21256
 Alpha  occ. eigenvalues --  -10.20792 -10.20723 -10.20511 -10.19699 -10.18445
 Alpha  occ. eigenvalues --  -10.17531  -1.20675  -1.16565  -1.16532  -1.15246
 Alpha  occ. eigenvalues --   -1.12873  -1.12213  -1.11017  -1.10769  -1.10397
 Alpha  occ. eigenvalues --   -1.09707  -1.09050  -1.08497  -1.07218  -1.04796
 Alpha  occ. eigenvalues --   -1.03881  -1.03349  -1.03314  -1.00505  -0.99878
 Alpha  occ. eigenvalues --   -0.98913  -0.98762  -0.98259  -0.97796  -0.97550
 Alpha  occ. eigenvalues --   -0.96530  -0.94854  -0.92659  -0.92407  -0.90227
 Alpha  occ. eigenvalues --   -0.89452  -0.89021  -0.87634  -0.86355  -0.85473
 Alpha  occ. eigenvalues --   -0.84128  -0.83647  -0.82489  -0.81295  -0.80773
 Alpha  occ. eigenvalues --   -0.80329  -0.79187  -0.78433  -0.78231  -0.77639
 Alpha  occ. eigenvalues --   -0.76399  -0.76159  -0.74783  -0.74456  -0.74051
 Alpha  occ. eigenvalues --   -0.73961  -0.73435  -0.72969  -0.72314  -0.71702
 Alpha  occ. eigenvalues --   -0.70324  -0.70168  -0.69644  -0.68931  -0.68896
 Alpha  occ. eigenvalues --   -0.68431  -0.67767  -0.67538  -0.67273  -0.66568
 Alpha  occ. eigenvalues --   -0.66189  -0.65481  -0.65327  -0.64661  -0.63776
 Alpha  occ. eigenvalues --   -0.63607  -0.63167  -0.62971  -0.62903  -0.62873
 Alpha  occ. eigenvalues --   -0.62312  -0.61937  -0.61825  -0.61320  -0.60780
 Alpha  occ. eigenvalues --   -0.60302  -0.59564  -0.59248  -0.58726  -0.58311
 Alpha  occ. eigenvalues --   -0.57886  -0.57574  -0.57496  -0.57167  -0.56983
 Alpha  occ. eigenvalues --   -0.56198  -0.55889  -0.55297  -0.55042  -0.55001
 Alpha  occ. eigenvalues --   -0.54515  -0.54284  -0.54182  -0.53960  -0.53817
 Alpha  occ. eigenvalues --   -0.53674  -0.53403  -0.53255  -0.53105  -0.52913
 Alpha  occ. eigenvalues --   -0.52478  -0.52214  -0.51890  -0.51643  -0.51063
 Alpha  occ. eigenvalues --   -0.50383  -0.50235  -0.49741  -0.49662  -0.49139
 Alpha  occ. eigenvalues --   -0.48993  -0.48941  -0.48840  -0.48700  -0.48576
 Alpha  occ. eigenvalues --   -0.48230  -0.48116  -0.47864  -0.47715  -0.47299
 Alpha  occ. eigenvalues --   -0.47038  -0.46852  -0.46770  -0.46505  -0.46285
 Alpha  occ. eigenvalues --   -0.46222  -0.45895  -0.45457  -0.45175  -0.44944
 Alpha  occ. eigenvalues --   -0.44739  -0.44633  -0.44541  -0.44203  -0.44161
 Alpha  occ. eigenvalues --   -0.43908  -0.43748  -0.43453  -0.43399  -0.43100
 Alpha  occ. eigenvalues --   -0.42895  -0.42875  -0.42696  -0.42466  -0.42015
 Alpha  occ. eigenvalues --   -0.41942  -0.41583  -0.41435  -0.41296  -0.41027
 Alpha  occ. eigenvalues --   -0.40926  -0.40472  -0.40449  -0.39579  -0.39535
 Alpha  occ. eigenvalues --   -0.39416  -0.39314  -0.39066  -0.38629  -0.38295
 Alpha  occ. eigenvalues --   -0.37913  -0.37759  -0.37648  -0.37610  -0.37546
 Alpha  occ. eigenvalues --   -0.37474  -0.37299  -0.37152  -0.36264  -0.36134
 Alpha  occ. eigenvalues --   -0.35698  -0.34843  -0.34601  -0.34413  -0.34167
 Alpha  occ. eigenvalues --   -0.33789  -0.33535  -0.33510  -0.33317  -0.33014
 Alpha  occ. eigenvalues --   -0.32659  -0.32559  -0.32154  -0.31992  -0.31474
 Alpha  occ. eigenvalues --   -0.30616  -0.30328  -0.29901  -0.27750  -0.26890
 Alpha  occ. eigenvalues --   -0.26526  -0.25271  -0.24337  -0.20350  -0.20068
 Alpha  occ. eigenvalues --   -0.18362
 Alpha virt. eigenvalues --   -0.14920  -0.11535  -0.09908  -0.09715  -0.06674
 Alpha virt. eigenvalues --   -0.06524  -0.06464  -0.05796  -0.05482  -0.04711
 Alpha virt. eigenvalues --   -0.04451  -0.03522  -0.02969  -0.02482  -0.02390

 Mulliken charges:
               1
     1  N   -0.747515
     2  H    0.429395
     3  H    0.439786
     4  H    0.411847
     5  C   -0.145468
     6  H    0.225964
     7  C    0.643454
     8  C   -0.054073
     9  H    0.190092
    10  H    0.188336
    11  O   -0.531278
    12  O   -0.638293
    13  H    0.471779
    14  N   -0.562538
    15  H    0.350185
    16  C   -0.056765
    17  H    0.197211
    18  C    0.628920
    19  C   -0.482607
    20  H    0.196181
    21  H    0.178067
    22  H    0.189748
    23  O   -0.583996
    24  N   -0.607061
    25  H    0.367273
    26  C   -0.065074
    27  H    0.182904
    28  C    0.619047
    29  C    0.126663
    30  H    0.146571
    31  O   -0.541949
    32  C   -0.477448
    33  H    0.183151
    34  H    0.159878
    35  H    0.171118
    36  O   -0.660031
    37  H    0.416623
    38  N   -0.598046
    39  H    0.359785
    40  C   -0.077288
    41  H    0.184915
    42  C    0.626840
    43  C   -0.084376
    44  H    0.154107
    45  O   -0.551458
    46  C   -0.443417
    47  H    0.141929
    48  H    0.157799
    49  H    0.157400
    50  C   -0.462617
    51  H    0.141806
    52  H    0.161945
    53  H    0.164817
    54  N   -0.599279
    55  H    0.358131
    56  C   -0.069466
    57  H    0.172266
    58  C    0.623912
    59  C   -0.071030
    60  H    0.140087
    61  O   -0.547962
    62  C   -0.253874
    63  H    0.136647
    64  H    0.135663
    65  C   -0.471405
    66  H    0.147232
    67  H    0.158953
    68  H    0.153294
    69  C   -0.470445
    70  H    0.140134
    71  H    0.144107
    72  H    0.174737
    73  N   -0.609502
    74  H    0.347429
    75  C   -0.049459
    76  H    0.195956
    77  C    0.585333
    78  C   -0.306613
    79  H    0.169506
    80  H    0.141321
    81  O   -0.548031
    82  C    0.555527
    83  O   -0.587256
    84  O   -0.597861
    85  N   -0.637683
    86  H    0.379700
    87  C   -0.027552
    88  H    0.178444
    89  C    0.618792
    90  C   -0.347859
    91  H    0.175156
    92  H    0.195671
    93  O   -0.621740
    94  C    0.280498
    95  C    0.056960
    96  H    0.233492
    97  N   -0.588355
    98  H    0.388758
    99  C    0.313144
   100  H    0.243720
   101  N   -0.508555
   102  N   -0.604585
   103  H    0.420224
   104  C   -0.031368
   105  H    0.170689
   106  C    0.620202
   107  C   -0.294941
   108  H    0.137394
   109  H    0.163884
   110  O   -0.628003
   111  C   -0.090887
   112  H    0.168042
   113  C   -0.443699
   114  H    0.144454
   115  H    0.140468
   116  H    0.131609
   117  C   -0.463995
   118  H    0.135977
   119  H    0.138585
   120  H    0.174911
   121  N   -0.602414
   122  H    0.359952
   123  C   -0.079002
   124  H    0.137157
   125  C    0.589005
   126  C   -0.263947
   127  H    0.095782
   128  H    0.167161
   129  O   -0.589558
   130  C   -0.310195
   131  H    0.183674
   132  H    0.194652
   133  C   -0.165373
   134  H    0.162382
   135  H    0.166487
   136  N   -0.616017
   137  H    0.407025
   138  N   -0.763182
   139  H    0.367066
   140  H    0.381296
   141  N   -0.800398
   142  H    0.353107
   143  H    0.422375
   144  C    0.794768
   145  O   -0.612518
   146  H    0.406877
 Sum of Mulliken charges =   1.00000

 Dipole moment (field-independent basis, Debye):
    X=            -45.0150    Y=            -10.9270    Z=             -7.9547  Tot=             47.0002
 Quadrupole moment (field-independent basis, Debye-Ang):
   XX=           -262.4814   YY=           -376.7327   ZZ=            -59.6198
   XY=            -48.2288   XZ=            345.6401   YZ=             52.8617

 Normal termination of Gaussian 16 at Sun Jun 19 12:01:08 2022.
