 Gaussian 16, Revision C.01,
 Gaussian 16:  ES64L-G16RevC.01  3-Jul-2019

 -------------------------------------------------------------------
 # B3LYP/6-31G* guess=read geom=check nosymm integral(ultrafinegrid)
 -------------------------------------------------------------------

 ------------------------------------------------------
 Candidate Structure: Conf:950 Charge calc in gas phase
 ------------------------------------------------------
 Structure from the checkpoint file:  "conf-950.chk"
 Charge =  1 Multiplicity = 1

                          Input orientation:
 ---------------------------------------------------------------------
 Center     Atomic      Atomic             Coordinates (Angstroms)
 Number     Number       Type             X           Y           Z
 ---------------------------------------------------------------------
      1          7           0       -9.894905   -1.124796   -6.059805
      2          1           0       -9.953282   -1.788270   -5.252525
      3          1           0       -9.307403   -0.320831   -5.752080
      4          1           0      -10.812106   -0.813645   -6.385458
      5          6           0       -9.053012   -1.830015   -7.090619
      6          1           0       -9.696694   -2.235890   -7.876335
      7          6           0       -8.367214   -2.957878   -6.272486
      8          6           0       -8.058923   -0.761299   -7.631887
      9          1           0       -8.598851   -0.086847   -8.306426
     10          1           0       -7.246127   -1.235335   -8.184722
     11          8           0       -8.676399   -3.086030   -5.087531
     12          8           0       -7.582087    0.000884   -6.545904
     13          1           0       -6.734715   -0.372648   -6.206537
     14          7           0       -7.440809   -3.702457   -6.912581
     15          1           0       -7.179642   -3.369511   -7.835012
     16          6           0       -6.259568   -4.156858   -6.153432
     17          1           0       -6.614895   -4.512694   -5.184319
     18          6           0       -5.381307   -2.889922   -5.983507
     19          6           0       -5.526388   -5.268598   -6.905928
     20          1           0       -4.656744   -5.602454   -6.332304
     21          1           0       -5.169676   -4.912609   -7.879020
     22          1           0       -6.188393   -6.124826   -7.062932
     23          8           0       -5.424883   -2.005857   -6.850799
     24          7           0       -4.627546   -2.820107   -4.882026
     25          1           0       -4.571238   -3.576522   -4.203500
     26          6           0       -3.753399   -1.694843   -4.581250
     27          1           0       -3.413426   -1.261600   -5.526263
     28          6           0       -2.588415   -2.301428   -3.763009
     29          6           0       -4.489955   -0.607386   -3.755046
     30          1           0       -4.677011   -1.024763   -2.754518
     31          8           0       -2.806998   -3.291268   -3.061495
     32          6           0       -3.702514    0.696680   -3.647805
     33          1           0       -2.730957    0.568850   -3.162679
     34          1           0       -3.539344    1.125145   -4.643229
     35          1           0       -4.265860    1.427110   -3.053805
     36          8           0       -5.759536   -0.370570   -4.395778
     37          1           0       -6.168588    0.374609   -3.927976
     38          7           0       -1.397099   -1.692873   -3.893056
     39          1           0       -1.327886   -0.793571   -4.364514
     40          6           0       -0.241608   -1.956625   -3.035331
     41          1           0       -0.584769   -2.566799   -2.193610
     42          6           0        0.208320   -0.553818   -2.559240
     43          6           0        0.880924   -2.721210   -3.800543
     44          1           0        1.252507   -2.042736   -4.581994
     45          8           0       -0.055841    0.434926   -3.255793
     46          6           0        2.054935   -3.094689   -2.881432
     47          1           0        1.722008   -3.748759   -2.064474
     48          1           0        2.546698   -2.225077   -2.438357
     49          1           0        2.811324   -3.645346   -3.450762
     50          6           0        0.320888   -3.980751   -4.478898
     51          1           0       -0.107477   -4.669060   -3.740673
     52          1           0       -0.459007   -3.738233   -5.206665
     53          1           0        1.121501   -4.508121   -5.009131
     54          7           0        0.863047   -0.492559   -1.389722
     55          1           0        1.129821   -1.331113   -0.880326
     56          6           0        1.481460    0.725575   -0.869344
     57          1           0        1.782773    1.339326   -1.722667
     58          6           0        2.716257    0.251709   -0.084430
     59          6           0        0.477384    1.541907    0.004510
     60          1           0       -0.406587    1.655894   -0.639496
     61          8           0        2.769716   -0.901009    0.365220
     62          6           0        0.970363    2.959110    0.363541
     63          1           0        1.838781    2.884028    1.029309
     64          1           0        0.172501    3.425591    0.958076
     65          6           0        0.066366    0.776684    1.271767
     66          1           0        0.910839    0.668924    1.961358
     67          1           0       -0.309179   -0.225698    1.038262
     68          1           0       -0.730314    1.317459    1.795936
     69          6           0        1.297600    3.871897   -0.826612
     70          1           0        1.418229    4.907290   -0.488624
     71          1           0        2.232463    3.598316   -1.326635
     72          1           0        0.493720    3.857584   -1.573623
     73          7           0        3.673885    1.174828    0.097083
     74          1           0        3.781838    2.006383   -0.514362
     75          6           0        4.897684    0.864263    0.797866
     76          1           0        5.429699    0.044148    0.292329
     77          6           0        4.635374    0.467697    2.257270
     78          6           0        5.800011    2.128612    0.865117
     79          1           0        5.402263    2.787405    1.647841
     80          1           0        6.802536    1.840837    1.184547
     81          8           0        3.724485    0.919819    2.935733
     82          6           0        5.918855    3.028077   -0.398931
     83          8           0        4.934917    3.128627   -1.167882
     84          8           0        7.014590    3.657283   -0.478253
     85          7           0        5.627848   -0.323345    2.828787
     86          1           0        6.471568   -0.400413    2.269806
     87          6           0        5.881432   -0.095717    4.248691
     88          1           0        4.975061   -0.342228    4.807096
     89          6           0        6.294133    1.372700    4.437910
     90          6           0        7.068098   -0.973677    4.706992
     91          1           0        7.937304   -0.697342    4.096488
     92          1           0        6.837233   -2.023217    4.500649
     93          8           0        7.230556    1.808748    3.774660
     94          6           0        7.441606   -0.849994    6.156455
     95          6           0        7.484268   -1.832129    7.111013
     96          1           0        7.236349   -2.880321    7.053916
     97          7           0        7.886109    0.315214    6.776426
     98          1           0        7.969518    1.354726    6.424819
     99          6           0        8.182773    0.051789    8.041818
    100          1           0        8.546948    0.771779    8.758739
    101          7           0        7.949741   -1.248941    8.274946
    102          7           0        5.678029    2.082981    5.415191
    103          1           0        4.770276    1.762657    5.726897
    104          6           0        6.017917    3.487830    5.639226
    105          1           0        5.645868    4.086809    4.800143
    106          6           0        7.553119    3.639523    5.694019
    107          6           0        5.400303    3.992420    6.956689
    108          1           0        5.847652    3.424198    7.782878
    109          1           0        5.720978    5.034482    7.083516
    110          8           0        8.260440    2.826856    6.352309
    111          6           0        3.860471    3.936191    7.059383
    112          1           0        3.536840    2.883665    6.998649
    113          6           0        3.422278    4.456873    8.437299
    114          1           0        3.693283    5.512947    8.558737
    115          1           0        2.336712    4.375427    8.560086
    116          1           0        3.896847    3.894879    9.250658
    117          6           0        3.161617    4.710840    5.931949
    118          1           0        3.482981    5.759924    5.920758
    119          1           0        2.075234    4.697493    6.072731
    120          1           0        3.366075    4.285052    4.943526
    121          7           0        8.011463    4.706323    5.073124
    122          1           0        7.387353    5.352194    4.560940
    123          6           0        9.380847    5.188559    4.875857
    124          1           0        9.788288    5.521569    5.839238
    125          6           0        9.218506    6.444290    3.946615
    126          6           0       10.351119    4.146997    4.287925
    127          1           0       10.432011    3.322222    5.004534
    128          1           0       11.329053    4.638243    4.246971
    129          8           0       10.298204    6.934611    3.517074
    130          6           0       10.014533    3.546178    2.905625
    131          1           0       10.623224    2.638427    2.805408
    132          1           0        8.974250    3.206470    2.890420
    133          6           0       10.294782    4.427707    1.660005
    134          1           0       10.907495    5.286686    1.928753
    135          1           0       10.853620    3.838084    0.920461
    136          7           0        9.072396    4.903306    1.003970
    137          1           0        8.411431    4.196886    0.653667
    138          7           0        9.586357    7.189585    0.895923
    139          1           0        9.314346    8.078219    0.498233
    140          1           0        9.925652    7.231077    1.887272
    141          7           0        7.896070    6.261933   -0.428852
    142          1           0        7.423426    7.150207   -0.511104
    143          1           0        7.377989    5.410368   -0.699618
    144          6           0        8.849398    6.129927    0.518918
    145          8           0        8.043981    6.793032    3.680903
    146          1           0        8.099806   -1.719681    9.157569
 ---------------------------------------------------------------------

 SCF Done:  E(RB3LYP) =  -3503.37299249     A.U. after    2 cycles

 Alpha  occ. eigenvalues --  -19.27099 -19.26559 -19.24315 -19.21359 -19.19119
 Alpha  occ. eigenvalues --  -19.18540 -19.17759 -19.16763 -19.16731 -19.14846
 Alpha  occ. eigenvalues --  -19.10664 -19.10381 -19.10021 -19.09631 -14.58286
 Alpha  occ. eigenvalues --  -14.53149 -14.49609 -14.48515 -14.45472 -14.43153
 Alpha  occ. eigenvalues --  -14.42830 -14.41214 -14.40478 -14.39331 -14.37960
 Alpha  occ. eigenvalues --  -14.37506 -14.37383 -14.36757 -10.43100 -10.39632
 Alpha  occ. eigenvalues --  -10.38919 -10.38582 -10.37095 -10.36424 -10.35237
 Alpha  occ. eigenvalues --  -10.34636 -10.34281 -10.34280 -10.34237 -10.34231
 Alpha  occ. eigenvalues --  -10.33844 -10.33394 -10.33010 -10.31854 -10.31490
 Alpha  occ. eigenvalues --  -10.30962 -10.29584 -10.29301 -10.29008 -10.28957
 Alpha  occ. eigenvalues --  -10.28186 -10.27902 -10.26829 -10.26454 -10.25400
 Alpha  occ. eigenvalues --  -10.25112 -10.24998 -10.24795 -10.24077 -10.23991
 Alpha  occ. eigenvalues --  -10.22626 -10.22519 -10.22353 -10.22250 -10.22216
 Alpha  occ. eigenvalues --  -10.21117 -10.20496 -10.20404 -10.20306 -10.20137
 Alpha  occ. eigenvalues --  -10.19320  -1.18976  -1.16428  -1.15128  -1.13543
 Alpha  occ. eigenvalues --   -1.11777  -1.11302  -1.11142  -1.10866  -1.08696
 Alpha  occ. eigenvalues --   -1.08517  -1.08140  -1.06311  -1.05397  -1.03752
 Alpha  occ. eigenvalues --   -1.03560  -1.02794  -1.02496  -1.01711  -0.99376
 Alpha  occ. eigenvalues --   -0.99374  -0.98091  -0.96920  -0.96541  -0.95702
 Alpha  occ. eigenvalues --   -0.94315  -0.94218  -0.92254  -0.90953  -0.90569
 Alpha  occ. eigenvalues --   -0.90336  -0.87729  -0.86948  -0.86304  -0.85059
 Alpha  occ. eigenvalues --   -0.84750  -0.83796  -0.81881  -0.80267  -0.80098
 Alpha  occ. eigenvalues --   -0.79733  -0.79016  -0.77682  -0.77097  -0.75859
 Alpha  occ. eigenvalues --   -0.75598  -0.75155  -0.74524  -0.73558  -0.73465
 Alpha  occ. eigenvalues --   -0.73372  -0.73020  -0.72458  -0.71838  -0.71209
 Alpha  occ. eigenvalues --   -0.70949  -0.69636  -0.69497  -0.68510  -0.67809
 Alpha  occ. eigenvalues --   -0.67541  -0.66436  -0.65849  -0.65572  -0.65203
 Alpha  occ. eigenvalues --   -0.64649  -0.64109  -0.63995  -0.63512  -0.63045
 Alpha  occ. eigenvalues --   -0.62783  -0.61891  -0.61823  -0.61663  -0.61437
 Alpha  occ. eigenvalues --   -0.61004  -0.59819  -0.59485  -0.59294  -0.58921
 Alpha  occ. eigenvalues --   -0.58714  -0.58435  -0.58315  -0.57818  -0.57687
 Alpha  occ. eigenvalues --   -0.57327  -0.57058  -0.56729  -0.56424  -0.56009
 Alpha  occ. eigenvalues --   -0.55568  -0.55513  -0.55026  -0.54553  -0.54468
 Alpha  occ. eigenvalues --   -0.54089  -0.53829  -0.53292  -0.52964  -0.52644
 Alpha  occ. eigenvalues --   -0.52160  -0.51949  -0.51709  -0.51432  -0.51244
 Alpha  occ. eigenvalues --   -0.51229  -0.50786  -0.50564  -0.50417  -0.50137
 Alpha  occ. eigenvalues --   -0.49892  -0.49841  -0.49598  -0.49229  -0.48849
 Alpha  occ. eigenvalues --   -0.48667  -0.48496  -0.48038  -0.47879  -0.47661
 Alpha  occ. eigenvalues --   -0.47431  -0.47148  -0.47041  -0.46947  -0.46870
 Alpha  occ. eigenvalues --   -0.46533  -0.46261  -0.45996  -0.45905  -0.45839
 Alpha  occ. eigenvalues --   -0.45679  -0.45389  -0.45189  -0.44993  -0.44737
 Alpha  occ. eigenvalues --   -0.44298  -0.44142  -0.44090  -0.44038  -0.43942
 Alpha  occ. eigenvalues --   -0.43807  -0.43508  -0.43303  -0.43244  -0.43073
 Alpha  occ. eigenvalues --   -0.42864  -0.42798  -0.42725  -0.42570  -0.42414
 Alpha  occ. eigenvalues --   -0.41969  -0.41437  -0.41315  -0.41143  -0.40943
 Alpha  occ. eigenvalues --   -0.40885  -0.40449  -0.40051  -0.39958  -0.39527
 Alpha  occ. eigenvalues --   -0.38970  -0.38952  -0.38730  -0.38676  -0.38478
 Alpha  occ. eigenvalues --   -0.38312  -0.38282  -0.38172  -0.38052  -0.37852
 Alpha  occ. eigenvalues --   -0.36774  -0.36744  -0.36474  -0.35851  -0.35834
 Alpha  occ. eigenvalues --   -0.35745  -0.35677  -0.35623  -0.35080  -0.34881
 Alpha  occ. eigenvalues --   -0.34639  -0.33418  -0.33192  -0.33146  -0.32452
 Alpha  occ. eigenvalues --   -0.31820  -0.31366  -0.30657  -0.30255  -0.29955
 Alpha  occ. eigenvalues --   -0.29748  -0.29499  -0.28821  -0.27940  -0.27397
 Alpha  occ. eigenvalues --   -0.26136  -0.25497  -0.25269  -0.24700  -0.24531
 Alpha  occ. eigenvalues --   -0.24114
 Alpha virt. eigenvalues --   -0.12906  -0.11105  -0.08715  -0.07773  -0.07545
 Alpha virt. eigenvalues --   -0.05519  -0.05417  -0.04264  -0.03871  -0.03026
 Alpha virt. eigenvalues --   -0.02992  -0.02968  -0.02745  -0.01206  -0.00764

 Mulliken charges:
               1
     1  N   -0.749597
     2  H    0.428388
     3  H    0.425400
     4  H    0.409094
     5  C   -0.140754
     6  H    0.221527
     7  C    0.634038
     8  C   -0.056834
     9  H    0.180712
    10  H    0.210651
    11  O   -0.508419
    12  O   -0.669105
    13  H    0.481237
    14  N   -0.554615
    15  H    0.346320
    16  C   -0.093211
    17  H    0.202668
    18  C    0.645937
    19  C   -0.461256
    20  H    0.185945
    21  H    0.171331
    22  H    0.186648
    23  O   -0.574950
    24  N   -0.597043
    25  H    0.363181
    26  C   -0.071834
    27  H    0.185815
    28  C    0.612748
    29  C    0.158550
    30  H    0.146874
    31  O   -0.541106
    32  C   -0.501163
    33  H    0.196286
    34  H    0.169699
    35  H    0.151730
    36  O   -0.653262
    37  H    0.403915
    38  N   -0.599545
    39  H    0.358848
    40  C   -0.069316
    41  H    0.176924
    42  C    0.627098
    43  C   -0.072127
    44  H    0.142806
    45  O   -0.558301
    46  C   -0.470636
    47  H    0.146797
    48  H    0.171012
    49  H    0.156111
    50  C   -0.444730
    51  H    0.155993
    52  H    0.140848
    53  H    0.151255
    54  N   -0.609592
    55  H    0.359500
    56  C   -0.068526
    57  H    0.188353
    58  C    0.634408
    59  C   -0.067237
    60  H    0.132260
    61  O   -0.575039
    62  C   -0.263683
    63  H    0.160538
    64  H    0.124824
    65  C   -0.470171
    66  H    0.182213
    67  H    0.133897
    68  H    0.134786
    69  C   -0.472086
    70  H    0.144201
    71  H    0.184129
    72  H    0.137751
    73  N   -0.637809
    74  H    0.403992
    75  C   -0.030950
    76  H    0.149629
    77  C    0.633315
    78  C   -0.414840
    79  H    0.171483
    80  H    0.161288
    81  O   -0.527108
    82  C    0.603078
    83  O   -0.569684
    84  O   -0.590907
    85  N   -0.588230
    86  H    0.334826
    87  C   -0.036073
    88  H    0.170547
    89  C    0.615132
    90  C   -0.379182
    91  H    0.203579
    92  H    0.187083
    93  O   -0.523795
    94  C    0.332904
    95  C   -0.017865
    96  H    0.211231
    97  N   -0.612155
    98  H    0.481400
    99  C    0.295260
   100  H    0.245331
   101  N   -0.548793
   102  N   -0.626943
   103  H    0.352217
   104  C   -0.036253
   105  H    0.183920
   106  C    0.688917
   107  C   -0.280990
   108  H    0.135819
   109  H    0.166931
   110  O   -0.651042
   111  C   -0.089731
   112  H    0.111726
   113  C   -0.442145
   114  H    0.155258
   115  H    0.152348
   116  H    0.138093
   117  C   -0.454750
   118  H    0.156780
   119  H    0.153571
   120  H    0.161806
   121  N   -0.606022
   122  H    0.371905
   123  C   -0.043510
   124  H    0.159860
   125  C    0.610397
   126  C   -0.271801
   127  H    0.138291
   128  H    0.161951
   129  O   -0.615719
   130  C   -0.302896
   131  H    0.124705
   132  H    0.188857
   133  C   -0.150290
   134  H    0.203182
   135  H    0.149418
   136  N   -0.618814
   137  H    0.384637
   138  N   -0.772953
   139  H    0.329303
   140  H    0.419079
   141  N   -0.788418
   142  H    0.334903
   143  H    0.403130
   144  C    0.752749
   145  O   -0.592683
   146  H    0.383406
 Sum of Mulliken charges =   1.00000

 Dipole moment (field-independent basis, Debye):
    X=            -23.3630    Y=            -15.8463    Z=             -3.8416  Tot=             28.4903
 Quadrupole moment (field-independent basis, Debye-Ang):
   XX=            -42.5923   YY=           -420.6171   ZZ=            -71.6639
   XY=            -51.0866   XZ=            361.2647   YZ=             10.1327

 Normal termination of Gaussian 16 at Sun Jun 19 12:00:30 2022.
