 Gaussian 16, Revision C.01,
 Gaussian 16:  ES64L-G16RevC.01  3-Jul-2019

 -------------------------------------------------------------------
 # B3LYP/6-31G* guess=read geom=check nosymm integral(ultrafinegrid)
 -------------------------------------------------------------------

 ------------------------------------------------------
 Candidate Structure: Conf:268 Charge calc in gas phase
 ------------------------------------------------------
 Structure from the checkpoint file:  "conf-268.chk"
 Charge =  1 Multiplicity = 1

                          Input orientation:
 ---------------------------------------------------------------------
 Center     Atomic      Atomic             Coordinates (Angstroms)
 Number     Number       Type             X           Y           Z
 ---------------------------------------------------------------------
      1          7           0      -12.430304   -2.336139   -3.631065
      2          1           0      -13.122282   -2.788453   -4.234810
      3          1           0      -11.939774   -3.078448   -3.077765
      4          1           0      -12.891739   -1.624773   -3.037497
      5          6           0      -11.322034   -1.655557   -4.388814
      6          1           0      -11.707501   -1.344568   -5.363017
      7          6           0      -10.197666   -2.707603   -4.466496
      8          6           0      -10.893733   -0.437575   -3.520890
      9          1           0      -10.268417    0.237770   -4.109646
     10          1           0      -10.292141   -0.786007   -2.678208
     11          8           0      -10.227829   -3.626355   -3.646490
     12          8           0      -12.058714    0.186990   -2.996604
     13          1           0      -12.310876    0.946864   -3.544099
     14          7           0       -9.254541   -2.525888   -5.407524
     15          1           0       -9.276075   -1.640538   -5.902250
     16          6           0       -7.907173   -3.062756   -5.191678
     17          1           0       -8.018075   -4.110871   -4.901408
     18          6           0       -7.276036   -2.271855   -4.007046
     19          6           0       -7.083998   -2.950197   -6.479673
     20          1           0       -6.073634   -3.340465   -6.331327
     21          1           0       -6.986207   -1.903772   -6.793353
     22          1           0       -7.555513   -3.517067   -7.287625
     23          8           0       -7.842551   -1.280630   -3.543459
     24          7           0       -6.108318   -2.773175   -3.560925
     25          1           0       -5.593989   -3.447537   -4.133168
     26          6           0       -5.183055   -2.036922   -2.702207
     27          1           0       -5.418563   -0.968531   -2.759528
     28          6           0       -3.781364   -2.319207   -3.301154
     29          6           0       -5.261308   -2.501983   -1.222243
     30          1           0       -4.480543   -1.969271   -0.667921
     31          8           0       -3.650004   -3.175365   -4.181429
     32          6           0       -6.615937   -2.213754   -0.575729
     33          1           0       -6.856823   -1.145982   -0.607267
     34          1           0       -7.419504   -2.753117   -1.091305
     35          1           0       -6.594246   -2.541389    0.467857
     36          8           0       -4.904622   -3.872369   -1.114567
     37          1           0       -5.599621   -4.388877   -1.554934
     38          7           0       -2.786162   -1.569683   -2.802286
     39          1           0       -2.940447   -0.975602   -1.989537
     40          6           0       -1.363250   -1.834896   -3.013809
     41          1           0       -1.264695   -2.858225   -3.390573
     42          6           0       -0.746300   -1.691269   -1.601938
     43          6           0       -0.720251   -0.845324   -4.032030
     44          1           0       -0.721201    0.145167   -3.554827
     45          8           0       -1.267996   -0.915268   -0.794360
     46          6           0        0.731162   -1.231440   -4.359846
     47          1           0        0.774555   -2.222322   -4.831294
     48          1           0        1.383578   -1.249435   -3.483045
     49          1           0        1.156543   -0.514751   -5.070627
     50          6           0       -1.547271   -0.759791   -5.323491
     51          1           0       -1.622858   -1.739249   -5.809626
     52          1           0       -2.562432   -0.399319   -5.132135
     53          1           0       -1.071633   -0.066524   -6.026313
     54          7           0        0.330278   -2.452884   -1.334769
     55          1           0        0.787890   -2.975497   -2.076210
     56          6           0        1.163633   -2.307039   -0.139412
     57          1           0        0.853540   -1.388207    0.367016
     58          6           0        2.603606   -2.190325   -0.681955
     59          6           0        1.002958   -3.516745    0.827730
     60          1           0        1.316074   -4.407946    0.262900
     61          8           0        2.930151   -2.858394   -1.669966
     62          6           0       -0.474161   -3.697235    1.234539
     63          1           0       -1.097346   -3.689820    0.333488
     64          1           0       -0.789323   -2.829965    1.831787
     65          6           0        1.924237   -3.369045    2.049146
     66          1           0        1.664514   -2.470203    2.625502
     67          1           0        2.978951   -3.300421    1.769475
     68          1           0        1.814885   -4.228690    2.718020
     69          6           0       -0.760577   -4.989992    2.008320
     70          1           0       -1.835524   -5.097134    2.193720
     71          1           0       -0.433206   -5.870866    1.441570
     72          1           0       -0.256671   -5.014533    2.980418
     73          7           0        3.407207   -1.316235   -0.053362
     74          1           0        3.126784   -0.791804    0.774656
     75          6           0        4.803972   -1.104420   -0.399330
     76          1           0        4.980614   -1.637749   -1.339032
     77          6           0        5.656531   -1.765063    0.714691
     78          6           0        5.062514    0.405384   -0.544124
     79          1           0        6.004325    0.604730   -1.068047
     80          1           0        4.268640    0.833076   -1.167622
     81          8           0        5.297202   -2.788673    1.281430
     82          6           0        5.088587    1.123062    0.839086
     83          8           0        5.877023    2.078289    0.961027
     84          8           0        4.352861    0.596550    1.746760
     85          7           0        6.827640   -1.129422    1.086349
     86          1           0        7.008823   -0.218983    0.678399
     87          6           0        7.186423   -1.233351    2.500402
     88          1           0        6.306272   -1.622148    3.019322
     89          6           0        7.548474    0.156045    3.064759
     90          6           0        8.366224   -2.190874    2.762909
     91          1           0        9.284106   -1.718345    2.397901
     92          1           0        8.197932   -3.117957    2.209290
     93          8           0        8.724910    0.531307    3.080838
     94          6           0        8.505931   -2.530450    4.217511
     95          6           0        8.633208   -3.758489    4.812092
     96          1           0        8.672539   -4.745523    4.379901
     97          7           0        8.495549   -1.605620    5.258571
     98          1           0        8.372953   -0.547550    5.249261
     99          6           0        8.609308   -2.234661    6.421858
    100          1           0        8.618007   -1.757764    7.389436
    101          7           0        8.701650   -3.549550    6.179086
    102          7           0        6.527784    0.817327    3.656199
    103          1           0        5.595145    0.686873    3.227447
    104          6           0        6.787493    2.107636    4.279172
    105          1           0        7.037586    2.844388    3.506313
    106          6           0        7.980867    1.984921    5.244024
    107          6           0        5.556182    2.578199    5.088552
    108          1           0        5.304360    1.778150    5.798150
    109          1           0        5.867115    3.442856    5.691154
    110          8           0        8.247877    0.939782    5.881946
    111          6           0        4.302501    2.978228    4.280760
    112          1           0        3.993265    2.132685    3.653561
    113          6           0        3.161316    3.292600    5.261122
    114          1           0        3.412058    4.149135    5.901710
    115          1           0        2.241604    3.542319    4.719533
    116          1           0        2.942705    2.439577    5.916120
    117          6           0        4.571369    4.163934    3.342394
    118          1           0        5.005302    5.015178    3.886239
    119          1           0        3.633656    4.506805    2.888438
    120          1           0        5.237243    3.874518    2.524056
    121          7           0        8.667234    3.113977    5.430948
    122          1           0        8.429476    3.977996    4.946836
    123          6           0        9.808659    3.266961    6.325232
    124          1           0        9.626334    2.699444    7.241790
    125          6           0        9.910051    4.784359    6.644041
    126          6           0       11.076888    2.709701    5.608409
    127          1           0       11.313491    3.377320    4.769105
    128          1           0       10.766234    1.761313    5.159939
    129          8           0       10.505916    5.089468    7.740195
    130          6           0       12.342558    2.444825    6.462078
    131          1           0       12.070837    2.281471    7.513563
    132          1           0       12.805577    1.509742    6.123873
    133          6           0       13.450425    3.511280    6.397823
    134          1           0       14.349543    3.133029    6.902615
    135          1           0       13.712709    3.710248    5.350787
    136          7           0       13.000821    4.747977    7.038880
    137          1           0       12.102615    4.670187    7.568898
    138          7           0       14.194371    6.261711    5.714396
    139          1           0       14.365498    7.218542    5.442312
    140          1           0       14.993933    5.646469    5.687656
    141          7           0       12.332427    6.937352    6.973093
    142          1           0       12.381148    7.862133    6.571165
    143          1           0       11.416535    6.580968    7.329552
    144          6           0       13.179571    5.983256    6.570950
    145          8           0        9.469310    5.573944    5.795893
    146          1           0        8.791949   -4.266676    6.885835
 ---------------------------------------------------------------------

 SCF Done:  E(RB3LYP) =  -3503.34699406     A.U. after    1 cycles

 Alpha  occ. eigenvalues --  -19.30499 -19.26732 -19.21329 -19.20380 -19.17990
 Alpha  occ. eigenvalues --  -19.15462 -19.15198 -19.14512 -19.14002 -19.13206
 Alpha  occ. eigenvalues --  -19.12057 -19.11325 -19.08948 -19.08062 -14.59863
 Alpha  occ. eigenvalues --  -14.50788 -14.49545 -14.47515 -14.44761 -14.44217
 Alpha  occ. eigenvalues --  -14.41574 -14.41420 -14.41251 -14.39392 -14.38214
 Alpha  occ. eigenvalues --  -14.37960 -14.37110 -14.36960 -10.43661 -10.40774
 Alpha  occ. eigenvalues --  -10.39253 -10.38689 -10.38212 -10.36550 -10.34986
 Alpha  occ. eigenvalues --  -10.34420 -10.32606 -10.31925 -10.31703 -10.31425
 Alpha  occ. eigenvalues --  -10.30919 -10.30813 -10.30464 -10.30406 -10.30148
 Alpha  occ. eigenvalues --  -10.29476 -10.28622 -10.28567 -10.27639 -10.26666
 Alpha  occ. eigenvalues --  -10.26551 -10.25436 -10.24783 -10.24746 -10.24734
 Alpha  occ. eigenvalues --  -10.24721 -10.24062 -10.23822 -10.23694 -10.22244
 Alpha  occ. eigenvalues --  -10.21449 -10.21251 -10.20902 -10.20166 -10.19964
 Alpha  occ. eigenvalues --  -10.19628 -10.19176 -10.18901 -10.18576 -10.18032
 Alpha  occ. eigenvalues --  -10.16435  -1.19518  -1.17647  -1.14039  -1.13711
 Alpha  occ. eigenvalues --   -1.12882  -1.09903  -1.08065  -1.07980  -1.07337
 Alpha  occ. eigenvalues --   -1.07064  -1.06118  -1.06097  -1.05501  -1.04865
 Alpha  occ. eigenvalues --   -1.04810  -1.01514  -1.00728  -1.00528  -0.97945
 Alpha  occ. eigenvalues --   -0.97790  -0.96236  -0.95776  -0.95773  -0.94824
 Alpha  occ. eigenvalues --   -0.94526  -0.94085  -0.93775  -0.92479  -0.92332
 Alpha  occ. eigenvalues --   -0.87833  -0.87617  -0.85148  -0.83774  -0.83333
 Alpha  occ. eigenvalues --   -0.82829  -0.82026  -0.81037  -0.80304  -0.78639
 Alpha  occ. eigenvalues --   -0.78448  -0.78425  -0.76580  -0.75742  -0.75445
 Alpha  occ. eigenvalues --   -0.74987  -0.74472  -0.74059  -0.73592  -0.72305
 Alpha  occ. eigenvalues --   -0.71959  -0.71865  -0.71392  -0.71182  -0.69717
 Alpha  occ. eigenvalues --   -0.69531  -0.68823  -0.68100  -0.67476  -0.67305
 Alpha  occ. eigenvalues --   -0.66216  -0.66197  -0.65475  -0.65160  -0.64950
 Alpha  occ. eigenvalues --   -0.64354  -0.63992  -0.63470  -0.62820  -0.62431
 Alpha  occ. eigenvalues --   -0.61918  -0.61595  -0.61253  -0.61048  -0.60806
 Alpha  occ. eigenvalues --   -0.60363  -0.60134  -0.59444  -0.58916  -0.58761
 Alpha  occ. eigenvalues --   -0.58377  -0.57745  -0.56760  -0.56536  -0.56492
 Alpha  occ. eigenvalues --   -0.56247  -0.56022  -0.55653  -0.55539  -0.55185
 Alpha  occ. eigenvalues --   -0.54925  -0.54807  -0.53865  -0.53557  -0.53326
 Alpha  occ. eigenvalues --   -0.53192  -0.52549  -0.52316  -0.52119  -0.51945
 Alpha  occ. eigenvalues --   -0.51703  -0.51140  -0.50884  -0.50731  -0.50658
 Alpha  occ. eigenvalues --   -0.50246  -0.50093  -0.49898  -0.49404  -0.49153
 Alpha  occ. eigenvalues --   -0.48916  -0.48712  -0.48637  -0.48250  -0.48228
 Alpha  occ. eigenvalues --   -0.48009  -0.47526  -0.47498  -0.47169  -0.46972
 Alpha  occ. eigenvalues --   -0.46742  -0.46449  -0.46259  -0.46217  -0.45724
 Alpha  occ. eigenvalues --   -0.45668  -0.45019  -0.44909  -0.44534  -0.44398
 Alpha  occ. eigenvalues --   -0.44110  -0.43762  -0.43683  -0.43527  -0.43500
 Alpha  occ. eigenvalues --   -0.43075  -0.42965  -0.42814  -0.42719  -0.42423
 Alpha  occ. eigenvalues --   -0.42393  -0.42376  -0.42013  -0.41856  -0.41571
 Alpha  occ. eigenvalues --   -0.41352  -0.41337  -0.40944  -0.40831  -0.40626
 Alpha  occ. eigenvalues --   -0.40324  -0.39985  -0.39860  -0.39545  -0.39507
 Alpha  occ. eigenvalues --   -0.39429  -0.39119  -0.38996  -0.38784  -0.38596
 Alpha  occ. eigenvalues --   -0.38331  -0.38119  -0.38068  -0.37920  -0.37757
 Alpha  occ. eigenvalues --   -0.37331  -0.37179  -0.37041  -0.36948  -0.36223
 Alpha  occ. eigenvalues --   -0.35456  -0.35351  -0.35152  -0.35144  -0.34976
 Alpha  occ. eigenvalues --   -0.34545  -0.34024  -0.33328  -0.33104  -0.32885
 Alpha  occ. eigenvalues --   -0.32634  -0.32513  -0.31980  -0.31793  -0.31037
 Alpha  occ. eigenvalues --   -0.30021  -0.29564  -0.29332  -0.29047  -0.28995
 Alpha  occ. eigenvalues --   -0.28093  -0.27429  -0.27406  -0.27277  -0.26943
 Alpha  occ. eigenvalues --   -0.26262  -0.26249  -0.25516  -0.24374  -0.23454
 Alpha  occ. eigenvalues --   -0.21934
 Alpha virt. eigenvalues --   -0.12852  -0.10564  -0.08810  -0.07404  -0.06183
 Alpha virt. eigenvalues --   -0.05771  -0.04359  -0.04007  -0.03701  -0.03216
 Alpha virt. eigenvalues --   -0.02544  -0.01776  -0.01524  -0.01444  -0.00861

 Mulliken charges:
               1
     1  N   -0.741039
     2  H    0.416783
     3  H    0.428573
     4  H    0.428744
     5  C   -0.157969
     6  H    0.206072
     7  C    0.663235
     8  C   -0.062374
     9  H    0.201938
    10  H    0.231199
    11  O   -0.519490
    12  O   -0.615486
    13  H    0.430677
    14  N   -0.564183
    15  H    0.343324
    16  C   -0.091604
    17  H    0.209541
    18  C    0.631500
    19  C   -0.479740
    20  H    0.205188
    21  H    0.165330
    22  H    0.184270
    23  O   -0.553204
    24  N   -0.619436
    25  H    0.367535
    26  C   -0.092237
    27  H    0.178557
    28  C    0.646098
    29  C    0.130592
    30  H    0.168416
    31  O   -0.554271
    32  C   -0.460327
    33  H    0.153100
    34  H    0.137935
    35  H    0.172196
    36  O   -0.610527
    37  H    0.390144
    38  N   -0.611077
    39  H    0.358424
    40  C   -0.056107
    41  H    0.173725
    42  C    0.622348
    43  C   -0.072657
    44  H    0.141638
    45  O   -0.554607
    46  C   -0.473778
    47  H    0.146234
    48  H    0.175316
    49  H    0.153567
    50  C   -0.443476
    51  H    0.156517
    52  H    0.136302
    53  H    0.147002
    54  N   -0.602550
    55  H    0.354481
    56  C   -0.068158
    57  H    0.175082
    58  C    0.629493
    59  C   -0.064967
    60  H    0.131524
    61  O   -0.565431
    62  C   -0.249248
    63  H    0.141377
    64  H    0.135395
    65  C   -0.500449
    66  H    0.137135
    67  H    0.209095
    68  H    0.141171
    69  C   -0.448644
    70  H    0.141015
    71  H    0.140355
    72  H    0.145507
    73  N   -0.583163
    74  H    0.363415
    75  C   -0.062209
    76  H    0.191355
    77  C    0.609625
    78  C   -0.389394
    79  H    0.151021
    80  H    0.163966
    81  O   -0.512181
    82  C    0.578130
    83  O   -0.571882
    84  O   -0.626787
    85  N   -0.619443
    86  H    0.357182
    87  C   -0.015510
    88  H    0.181145
    89  C    0.550741
    90  C   -0.341431
    91  H    0.201662
    92  H    0.182059
    93  O   -0.549018
    94  C    0.340254
    95  C   -0.021566
    96  H    0.207628
    97  N   -0.620064
    98  H    0.483861
    99  C    0.295459
   100  H    0.240560
   101  N   -0.551332
   102  N   -0.620729
   103  H    0.401703
   104  C   -0.028939
   105  H    0.188982
   106  C    0.682492
   107  C   -0.284311
   108  H    0.135770
   109  H    0.142118
   110  O   -0.646093
   111  C   -0.087357
   112  H    0.171314
   113  C   -0.442179
   114  H    0.133564
   115  H    0.140441
   116  H    0.129339
   117  C   -0.471023
   118  H    0.119990
   119  H    0.132631
   120  H    0.199340
   121  N   -0.596458
   122  H    0.361824
   123  C   -0.035829
   124  H    0.157488
   125  C    0.588198
   126  C   -0.274805
   127  H    0.148954
   128  H    0.177468
   129  O   -0.649046
   130  C   -0.303595
   131  H    0.162810
   132  H    0.150173
   133  C   -0.145555
   134  H    0.158184
   135  H    0.160574
   136  N   -0.607643
   137  H    0.405449
   138  N   -0.754818
   139  H    0.360947
   140  H    0.366450
   141  N   -0.761427
   142  H    0.345195
   143  H    0.414951
   144  C    0.762558
   145  O   -0.551680
   146  H    0.377891
 Sum of Mulliken charges =   1.00000

 Dipole moment (field-independent basis, Debye):
    X=            -21.5294    Y=             -8.2190    Z=             -5.2904  Tot=             23.6443
 Quadrupole moment (field-independent basis, Debye-Ang):
   XX=            550.7371   YY=           -341.2685   ZZ=           -233.6617
   XY=            111.6016   XZ=            405.6656   YZ=             -2.8470

 Normal termination of Gaussian 16 at Sun Jun 19 11:59:35 2022.
