 Gaussian 16, Revision C.01,
 Gaussian 16:  ES64L-G16RevC.01  3-Jul-2019

 -------------------------------------------------------------------
 # B3LYP/6-31G* guess=read geom=check nosymm integral(ultrafinegrid)
 -------------------------------------------------------------------

 ------------------------------------------------------
 Candidate Structure: Conf:334 Charge calc in gas phase
 ------------------------------------------------------
 Structure from the checkpoint file:  "conf-334.chk"
 Charge =  1 Multiplicity = 1

                          Input orientation:
 ---------------------------------------------------------------------
 Center     Atomic      Atomic             Coordinates (Angstroms)
 Number     Number       Type             X           Y           Z
 ---------------------------------------------------------------------
      1          7           0       -9.058085    2.608619   -6.705340
      2          1           0       -9.258411    1.844584   -7.414370
      3          1           0       -9.885603    2.714191   -6.096345
      4          1           0       -8.822678    3.497247   -7.151823
      5          6           0       -7.954683    2.001682   -5.877173
      6          1           0       -7.003837    2.455727   -6.168750
      7          6           0       -7.970890    0.505498   -6.326753
      8          6           0       -8.252826    2.264561   -4.396369
      9          1           0       -8.018251    3.309156   -4.146079
     10          1           0       -7.623787    1.619458   -3.770933
     11          8           0       -8.670502    0.216582   -7.307962
     12          8           0       -9.635695    1.984488   -4.243462
     13          1           0       -9.911920    2.152202   -3.328762
     14          7           0       -7.194312   -0.321516   -5.643942
     15          1           0       -6.697386   -0.051435   -4.789792
     16          6           0       -7.078313   -1.762393   -5.880364
     17          1           0       -8.086819   -2.188769   -5.941727
     18          6           0       -6.376518   -2.283835   -4.601334
     19          6           0       -6.306138   -2.082357   -7.168896
     20          1           0       -6.265466   -3.162752   -7.337957
     21          1           0       -5.280965   -1.703446   -7.114535
     22          1           0       -6.812220   -1.630567   -8.025825
     23          8           0       -6.041821   -1.480307   -3.719422
     24          7           0       -6.171245   -3.603873   -4.521053
     25          1           0       -6.387303   -4.238038   -5.285137
     26          6           0       -5.493815   -4.246645   -3.390942
     27          1           0       -5.759154   -3.697744   -2.482595
     28          6           0       -3.959611   -4.198021   -3.611052
     29          6           0       -5.974664   -5.713946   -3.325587
     30          1           0       -5.341864   -6.230978   -2.591727
     31          8           0       -3.350776   -5.181092   -4.049028
     32          6           0       -7.435847   -5.854349   -2.921671
     33          1           0       -7.603313   -5.454812   -1.915584
     34          1           0       -8.095325   -5.326986   -3.619321
     35          1           0       -7.714147   -6.911786   -2.927883
     36          8           0       -5.808996   -6.295616   -4.616331
     37          1           0       -4.838096   -6.303385   -4.749683
     38          7           0       -3.385615   -3.016584   -3.319967
     39          1           0       -3.938598   -2.258124   -2.926500
     40          6           0       -1.950722   -2.751706   -3.389840
     41          1           0       -1.430774   -3.711534   -3.305739
     42          6           0       -1.662723   -1.840188   -2.178729
     43          6           0       -1.530003   -2.053123   -4.719599
     44          1           0       -1.998446   -1.058105   -4.707895
     45          8           0       -2.501586   -1.002020   -1.837053
     46          6           0       -0.005380   -1.875193   -4.805796
     47          1           0        0.503100   -2.848089   -4.802607
     48          1           0        0.403992   -1.282623   -3.983420
     49          1           0        0.262449   -1.371647   -5.740967
     50          6           0       -2.040224   -2.816525   -5.950477
     51          1           0       -1.635794   -3.833880   -5.983058
     52          1           0       -3.132022   -2.894123   -5.959301
     53          1           0       -1.731198   -2.298718   -6.865938
     54          7           0       -0.481351   -2.022441   -1.555857
     55          1           0        0.234246   -2.623911   -1.954789
     56          6           0        0.022388   -1.116691   -0.527570
     57          1           0       -0.501647   -0.165332   -0.652824
     58          6           0        1.524610   -0.948866   -0.825116
     59          6           0       -0.270911   -1.666266    0.904370
     60          1           0       -1.349905   -1.877836    0.892629
     61          8           0        2.139683   -1.821502   -1.441664
     62          6           0       -0.008352   -0.644597    2.031223
     63          1           0        1.066226   -0.430211    2.089738
     64          1           0       -0.258701   -1.143633    2.976920
     65          6           0        0.481910   -2.975459    1.185123
     66          1           0        1.560698   -2.801959    1.261309
     67          1           0        0.308859   -3.719320    0.400178
     68          1           0        0.142640   -3.407191    2.133703
     69          6           0       -0.819665    0.655618    1.946670
     70          1           0       -0.667798    1.264508    2.844664
     71          1           0       -0.542941    1.280513    1.087678
     72          1           0       -1.893428    0.449517    1.858757
     73          7           0        2.090576    0.199702   -0.392373
     74          1           0        1.546287    0.808665    0.203012
     75          6           0        3.529612    0.427856   -0.424744
     76          1           0        3.903376    0.163157   -1.415147
     77          6           0        4.238624   -0.439569    0.631917
     78          6           0        3.830051    1.915757   -0.150244
     79          1           0        3.327356    2.509579   -0.925051
     80          1           0        3.404268    2.209858    0.817000
     81          8           0        3.689930   -0.785511    1.683360
     82          6           0        5.356262    2.280198   -0.173469
     83          8           0        6.069972    1.578966   -0.954480
     84          8           0        5.703828    3.219914    0.567921
     85          7           0        5.545026   -0.706350    0.326400
     86          1           0        5.928295   -0.007094   -0.358307
     87          6           0        6.428720   -1.086507    1.416325
     88          1           0        5.810612   -1.590072    2.164894
     89          6           0        7.070196    0.178303    2.021889
     90          6           0        7.555780   -2.022302    0.946217
     91          1           0        8.201189   -1.465032    0.258258
     92          1           0        7.121190   -2.871053    0.406804
     93          8           0        8.203104    0.531424    1.695029
     94          6           0        8.376983   -2.514743    2.102376
     95          6           0        8.866839   -1.895042    3.229560
     96          1           0        8.795698   -0.870886    3.590085
     97          7           0        8.776360   -3.842909    2.210099
     98          1           0        8.566436   -4.561361    1.527705
     99          6           0        9.475172   -4.044297    3.333824
    100          1           0        9.907740   -4.974576    3.665509
    101          7           0        9.529005   -2.865719    3.958689
    102          7           0        6.319605    0.808864    2.949801
    103          1           0        5.358570    0.511128    3.071004
    104          6           0        6.746276    2.080554    3.520301
    105          1           0        6.710106    2.838649    2.727202
    106          6           0        8.191473    1.934186    4.037954
    107          6           0        5.836779    2.467097    4.704408
    108          1           0        5.904511    1.662749    5.449860
    109          1           0        6.266662    3.363006    5.171728
    110          8           0        8.600703    0.920731    4.623010
    111          6           0        4.356105    2.755957    4.374991
    112          1           0        3.930459    1.887025    3.847466
    113          6           0        3.569451    2.917219    5.685894
    114          1           0        3.943322    3.773530    6.262153
    115          1           0        2.506398    3.093592    5.485060
    116          1           0        3.649607    2.026327    6.321203
    117          6           0        4.185803    3.986896    3.471537
    118          1           0        4.628313    4.874428    3.944512
    119          1           0        3.119860    4.198840    3.318367
    120          1           0        4.646358    3.851053    2.485913
    121          7           0        8.943491    3.042328    3.880937
    122          1           0        8.630782    3.798496    3.279831
    123          6           0       10.346755    3.098566    4.266188
    124          1           0       10.441590    2.632128    5.249218
    125          6           0       10.710555    4.593342    4.325543
    126          6           0       11.252310    2.344762    3.223687
    127          1           0       11.905660    3.058714    2.704458
    128          1           0       10.570213    1.958433    2.461349
    129          8           0       11.570923    4.985800    5.267519
    130          6           0       12.085108    1.168121    3.775421
    131          1           0       11.530208    0.680501    4.587026
    132          1           0       12.197223    0.417903    2.979954
    133          6           0       13.506393    1.517476    4.249380
    134          1           0       14.018746    0.608676    4.582438
    135          1           0       14.090972    1.915325    3.412400
    136          7           0       13.580218    2.522979    5.317655
    137          1           0       13.336313    3.458058    5.005817
    138          7           0       13.415366    1.064695    7.132555
    139          1           0       13.169215    0.953442    8.107929
    140          1           0       14.362449    0.764598    6.931569
    141          7           0       12.277944    3.166005    7.111923
    142          1           0       12.068678    2.991222    8.092796
    143          1           0       11.705936    4.313769    6.018654
    144          6           0       13.057217    2.283293    6.573963
    145          8           0       10.267863    5.363278    3.498843
    146          1           0        9.988411   -2.697925    4.845482
 ---------------------------------------------------------------------

 SCF Done:  E(RB3LYP) =  -3503.32141552     A.U. after    2 cycles

 Alpha  occ. eigenvalues --  -19.30850 -19.26668 -19.22425 -19.20267 -19.19211
 Alpha  occ. eigenvalues --  -19.18564 -19.16598 -19.15422 -19.14973 -19.14948
 Alpha  occ. eigenvalues --  -19.14725 -19.14460 -19.06622 -19.06509 -14.59323
 Alpha  occ. eigenvalues --  -14.53502 -14.53466 -14.49135 -14.45949 -14.42149
 Alpha  occ. eigenvalues --  -14.41339 -14.40634 -14.39619 -14.39501 -14.39047
 Alpha  occ. eigenvalues --  -14.38516 -14.37239 -14.35729 -10.43613 -10.41195
 Alpha  occ. eigenvalues --  -10.40256 -10.39898 -10.39330 -10.35593 -10.34988
 Alpha  occ. eigenvalues --  -10.34774 -10.34486 -10.33797 -10.33295 -10.32596
 Alpha  occ. eigenvalues --  -10.32370 -10.31720 -10.31577 -10.31171 -10.30875
 Alpha  occ. eigenvalues --  -10.30720 -10.28775 -10.28347 -10.27636 -10.27222
 Alpha  occ. eigenvalues --  -10.27127 -10.27070 -10.26324 -10.25406 -10.25231
 Alpha  occ. eigenvalues --  -10.25174 -10.25087 -10.24085 -10.23239 -10.23040
 Alpha  occ. eigenvalues --  -10.22821 -10.22354 -10.22343 -10.21585 -10.21559
 Alpha  occ. eigenvalues --  -10.21394 -10.21347 -10.20537 -10.19716 -10.19134
 Alpha  occ. eigenvalues --  -10.17594  -1.19621  -1.17875  -1.17620  -1.14366
 Alpha  occ. eigenvalues --   -1.13129  -1.10553  -1.10517  -1.08619  -1.07720
 Alpha  occ. eigenvalues --   -1.07425  -1.07186  -1.06037  -1.05924  -1.05531
 Alpha  occ. eigenvalues --   -1.04579  -1.03843  -1.02421  -1.02052  -0.99815
 Alpha  occ. eigenvalues --   -0.98574  -0.97096  -0.95892  -0.95741  -0.95119
 Alpha  occ. eigenvalues --   -0.94873  -0.94476  -0.92816  -0.91242  -0.90758
 Alpha  occ. eigenvalues --   -0.90214  -0.88288  -0.86186  -0.84624  -0.84058
 Alpha  occ. eigenvalues --   -0.83613  -0.82941  -0.82587  -0.80842  -0.79928
 Alpha  occ. eigenvalues --   -0.79580  -0.79153  -0.78625  -0.77728  -0.76999
 Alpha  occ. eigenvalues --   -0.76247  -0.75954  -0.74864  -0.74196  -0.73529
 Alpha  occ. eigenvalues --   -0.73271  -0.72727  -0.71331  -0.71015  -0.70970
 Alpha  occ. eigenvalues --   -0.69522  -0.68660  -0.67897  -0.67339  -0.67239
 Alpha  occ. eigenvalues --   -0.67054  -0.66916  -0.66761  -0.66105  -0.65783
 Alpha  occ. eigenvalues --   -0.64850  -0.64131  -0.64052  -0.63557  -0.63060
 Alpha  occ. eigenvalues --   -0.62969  -0.62447  -0.62056  -0.61621  -0.61126
 Alpha  occ. eigenvalues --   -0.60930  -0.60442  -0.59925  -0.59700  -0.59448
 Alpha  occ. eigenvalues --   -0.59142  -0.58977  -0.58370  -0.58327  -0.58154
 Alpha  occ. eigenvalues --   -0.57735  -0.57308  -0.57030  -0.56886  -0.56251
 Alpha  occ. eigenvalues --   -0.55717  -0.55140  -0.54715  -0.54411  -0.53877
 Alpha  occ. eigenvalues --   -0.53524  -0.53391  -0.53065  -0.52466  -0.52442
 Alpha  occ. eigenvalues --   -0.52046  -0.51843  -0.51520  -0.51366  -0.51098
 Alpha  occ. eigenvalues --   -0.50654  -0.50362  -0.50210  -0.50039  -0.49886
 Alpha  occ. eigenvalues --   -0.49737  -0.49189  -0.48863  -0.48776  -0.48741
 Alpha  occ. eigenvalues --   -0.48437  -0.48154  -0.47888  -0.47767  -0.47714
 Alpha  occ. eigenvalues --   -0.47380  -0.46785  -0.46585  -0.46492  -0.46009
 Alpha  occ. eigenvalues --   -0.45766  -0.45507  -0.45413  -0.45377  -0.45242
 Alpha  occ. eigenvalues --   -0.44953  -0.44819  -0.44737  -0.44654  -0.44238
 Alpha  occ. eigenvalues --   -0.44046  -0.43901  -0.43715  -0.43682  -0.43649
 Alpha  occ. eigenvalues --   -0.43500  -0.43485  -0.43417  -0.43133  -0.43087
 Alpha  occ. eigenvalues --   -0.42868  -0.42223  -0.41794  -0.41372  -0.41142
 Alpha  occ. eigenvalues --   -0.41009  -0.40789  -0.40283  -0.40234  -0.40072
 Alpha  occ. eigenvalues --   -0.39945  -0.39739  -0.39708  -0.39535  -0.39269
 Alpha  occ. eigenvalues --   -0.39198  -0.38984  -0.38909  -0.38875  -0.38521
 Alpha  occ. eigenvalues --   -0.38508  -0.38353  -0.37693  -0.37092  -0.36995
 Alpha  occ. eigenvalues --   -0.36668  -0.36595  -0.36326  -0.35845  -0.35599
 Alpha  occ. eigenvalues --   -0.35033  -0.34657  -0.34493  -0.34026  -0.33881
 Alpha  occ. eigenvalues --   -0.33735  -0.33235  -0.32358  -0.32163  -0.31645
 Alpha  occ. eigenvalues --   -0.31398  -0.30833  -0.30736  -0.30223  -0.29819
 Alpha  occ. eigenvalues --   -0.29668  -0.28997  -0.28929  -0.28484  -0.27945
 Alpha  occ. eigenvalues --   -0.27765  -0.27653  -0.27002  -0.22408  -0.21261
 Alpha  occ. eigenvalues --   -0.20617
 Alpha virt. eigenvalues --   -0.12613  -0.12473  -0.09925  -0.08086  -0.06663
 Alpha virt. eigenvalues --   -0.05876  -0.04955  -0.04657  -0.04609  -0.02736
 Alpha virt. eigenvalues --   -0.02559  -0.02337  -0.02085  -0.01829  -0.01571

 Mulliken charges:
               1
     1  N   -0.756923
     2  H    0.436007
     3  H    0.430091
     4  H    0.412877
     5  C   -0.129287
     6  H    0.235668
     7  C    0.669357
     8  C   -0.060931
     9  H    0.178964
    10  H    0.204020
    11  O   -0.537992
    12  O   -0.627136
    13  H    0.442634
    14  N   -0.620880
    15  H    0.382049
    16  C   -0.050620
    17  H    0.202840
    18  C    0.639962
    19  C   -0.464925
    20  H    0.177111
    21  H    0.180161
    22  H    0.193309
    23  O   -0.554020
    24  N   -0.607009
    25  H    0.358951
    26  C   -0.084473
    27  H    0.182521
    28  C    0.640383
    29  C    0.111765
    30  H    0.154661
    31  O   -0.550198
    32  C   -0.450261
    33  H    0.150394
    34  H    0.141404
    35  H    0.179520
    36  O   -0.651924
    37  H    0.424910
    38  N   -0.618237
    39  H    0.372117
    40  C   -0.044066
    41  H    0.172613
    42  C    0.614575
    43  C   -0.071065
    44  H    0.129789
    45  O   -0.555845
    46  C   -0.467352
    47  H    0.152496
    48  H    0.169320
    49  H    0.152768
    50  C   -0.450178
    51  H    0.168845
    52  H    0.129846
    53  H    0.143199
    54  N   -0.606107
    55  H    0.357815
    56  C   -0.081963
    57  H    0.174853
    58  C    0.644806
    59  C   -0.061441
    60  H    0.137241
    61  O   -0.556840
    62  C   -0.287855
    63  H    0.173799
    64  H    0.137230
    65  C   -0.469412
    66  H    0.180429
    67  H    0.139557
    68  H    0.139846
    69  C   -0.460155
    70  H    0.153302
    71  H    0.134398
    72  H    0.149640
    73  N   -0.610489
    74  H    0.341571
    75  C   -0.038992
    76  H    0.190802
    77  C    0.606573
    78  C   -0.395654
    79  H    0.157485
    80  H    0.138816
    81  O   -0.560607
    82  C    0.582905
    83  O   -0.615754
    84  O   -0.559489
    85  N   -0.616141
    86  H    0.398953
    87  C   -0.062324
    88  H    0.172914
    89  C    0.654516
    90  C   -0.356416
    91  H    0.229596
    92  H    0.162390
    93  O   -0.547679
    94  C    0.312357
    95  C    0.004218
    96  H    0.319718
    97  N   -0.601187
    98  H    0.383983
    99  C    0.300934
   100  H    0.241353
   101  N   -0.559766
   102  N   -0.626476
   103  H    0.356750
   104  C   -0.044639
   105  H    0.223675
   106  C    0.654630
   107  C   -0.288697
   108  H    0.140369
   109  H    0.149094
   110  O   -0.595067
   111  C   -0.085815
   112  H    0.121282
   113  C   -0.438201
   114  H    0.142608
   115  H    0.139447
   116  H    0.132680
   117  C   -0.486280
   118  H    0.130658
   119  H    0.124417
   120  H    0.225268
   121  N   -0.612046
   122  H    0.367985
   123  C   -0.035443
   124  H    0.173318
   125  C    0.567798
   126  C   -0.304292
   127  H    0.156006
   128  H    0.205484
   129  O   -0.613362
   130  C   -0.271500
   131  H    0.151860
   132  H    0.133417
   133  C   -0.152087
   134  H    0.139887
   135  H    0.165042
   136  N   -0.588803
   137  H    0.342850
   138  N   -0.744449
   139  H    0.333034
   140  H    0.342219
   141  N   -0.722410
   142  H    0.290795
   143  H    0.461421
   144  C    0.649907
   145  O   -0.461674
   146  H    0.393802
 Sum of Mulliken charges =   1.00000

 Dipole moment (field-independent basis, Debye):
    X=            -16.1147    Y=            -10.5887    Z=             -8.8321  Tot=             21.2087
 Quadrupole moment (field-independent basis, Debye-Ang):
   XX=            140.8728   YY=           -386.3463   ZZ=           -200.1201
   XY=           -268.0061   XZ=            346.0144   YZ=           -106.2574

 Normal termination of Gaussian 16 at Sun Jun 19 12:00:22 2022.
