 Gaussian 16, Revision C.01,
 Gaussian 16:  ES64L-G16RevC.01  3-Jul-2019

 ----------------------------------------------------------------------
 # B3LYP/6-31G* empiricaldispersion=gd3 guess=read geom=check nosymm in
 tegral(ultrafinegrid)
 ----------------------------------------------------------------------

 ------------------------------------------------------
 Candidate Structure: Conf:399 Charge calc in gas phase
 ------------------------------------------------------
 Structure from the checkpoint file:  "conf-399.chk"
 Charge =  1 Multiplicity = 1

                          Input orientation:
 ---------------------------------------------------------------------
 Center     Atomic      Atomic             Coordinates (Angstroms)
 Number     Number       Type             X           Y           Z
 ---------------------------------------------------------------------
      1          7           0       -1.295628   -5.163148   -2.376169
      2          1           0       -1.586012   -6.123310   -2.163689
      3          1           0       -0.902268   -5.119681   -3.323881
      4          6           0       -2.445525   -4.224622   -2.259082
      5          1           0       -3.250168   -4.468961   -2.974320
      6          6           0       -1.943573   -2.844064   -2.702239
      7          6           0       -3.089416   -4.273181   -0.832918
      8          1           0       -3.636240   -3.342035   -0.651566
      9          1           0       -3.834709   -5.076585   -0.840213
     10          8           0       -0.811237   -2.694562   -3.229295
     11          6           0       -2.125749   -4.527637    0.314168
     12          6           0       -1.803502   -5.848293    0.663030
     13          1           0       -2.232494   -6.673744    0.103477
     14          6           0       -1.607580   -3.479157    1.083810
     15          1           0       -1.847472   -2.442894    0.874695
     16          6           0       -0.970352   -6.120076    1.750097
     17          1           0       -0.747060   -7.146550    2.016608
     18          6           0       -0.790461   -3.749660    2.184793
     19          1           0       -0.422273   -2.926467    2.786805
     20          6           0       -0.467680   -5.067053    2.523206
     21          1           0        0.141104   -5.275631    3.395847
     22          7           0       -2.796724   -1.793066   -2.612272
     23          1           0       -3.737570   -1.917674   -2.245575
     24          6           0       -2.522889   -0.534105   -3.362944
     25          1           0       -1.930747   -0.790733   -4.245252
     26          6           0       -1.720237    0.449266   -2.484530
     27          6           0       -3.851954    0.123862   -3.785360
     28          1           0       -4.462665    0.284114   -2.882125
     29          1           0       -4.385932   -0.545821   -4.463259
     30          8           0       -2.146525    1.585412   -2.197933
     31          8           0       -3.580807    1.339338   -4.511356
     32          1           0       -3.219708    1.971459   -3.825758
     33          7           0       -0.544173   -0.058257   -2.003927
     34          1           0       -0.207091   -0.956920   -2.349761
     35          6           0        0.114806    0.596450   -0.872590
     36          1           0       -0.341172    1.582708   -0.777594
     37          6           0        1.622427    0.644884   -0.985051
     38          6           0       -0.194651   -0.261330    0.396793
     39          1           0        0.178265    0.233085    1.291867
     40          1           0        0.330325   -1.219600    0.285275
     41          8           0        2.317994   -0.327017   -1.382746
     42          8           0       -1.636460   -0.432740    0.529124
     43          1           0       -1.954339   -0.750162   -0.362273
     44          7           0        2.217544    1.727934   -0.436211
     45          1           0        1.661140    2.472207   -0.026417
     46          6           0        3.608730    1.570179   -0.013896
     47          1           0        4.202366    1.207106   -0.853635
     48          6           0        3.611881    0.504616    1.120967
     49          6           0        4.232170    2.896421    0.491479
     50          1           0        4.216071    3.628439   -0.320865
     51          1           0        3.714793    3.275794    1.372928
     52          8           0        2.579893    0.228291    1.767202
     53          6           0        5.662265    2.517046    0.846656
     54          8           0        6.397702    1.910060    0.057427
     55          8           0        5.943569    2.719495    2.150939
     56          7           0        4.816322   -0.079316    1.338505
     57          1           0        5.616777    0.186286    0.761315
     58          6           0        5.067545   -0.926484    2.511334
     59          1           0        4.388560   -0.591489    3.308333
     60          6           0        6.482371   -0.626695    2.999970
     61          6           0        4.788717   -2.423467    2.217772
     62          1           0        5.417692   -3.042780    2.858800
     63          1           0        5.073535   -2.608670    1.176003
     64          8           0        7.139123    0.387893    2.755754
     65          6           0        3.285387   -2.764852    2.451439
     66          1           0        2.686790   -1.851148    2.395724
     67          1           0        3.168621   -3.182882    3.457076
     68          6           0        2.718008   -3.766559    1.432607
     69          1           0        3.404873   -4.609798    1.284401
     70          1           0        1.767648   -4.150545    1.809600
     71          7           0        2.462787   -3.076684    0.149214
     72          1           0        2.914591   -2.180392   -0.022257
     73          7           0        0.926897   -4.669279   -0.658525
     74          1           0        0.120477   -4.867994   -1.307275
     75          1           0        0.915318   -5.156631    0.230082
     76          7           0        1.533767   -2.848132   -1.952877
     77          1           0        1.931928   -1.897949   -1.980882
     78          1           0        0.811314   -3.091026   -2.632993
     79          6           0        1.637817   -3.548126   -0.814668
     80          8           0        6.938781   -1.619081    3.810092
     81          1           0        7.842241   -1.386562    4.165305
     82          1           0        6.701295    2.105277    2.420428
 ---------------------------------------------------------------------

 SCF Done:  E(RB3LYP) =  -2166.41470325     A.U. after   13 cycles

 Alpha  occ. eigenvalues --  -19.31232 -19.27591 -19.26366 -19.26117 -19.25467
 Alpha  occ. eigenvalues --  -19.24696 -19.23048 -19.23044 -19.22802 -19.21913
 Alpha  occ. eigenvalues --  -14.50380 -14.48553 -14.47834 -14.47252 -14.47251
 Alpha  occ. eigenvalues --  -14.46153 -14.45730 -14.44886 -10.44600 -10.43125
 Alpha  occ. eigenvalues --  -10.43019 -10.41741 -10.41600 -10.40267 -10.40238
 Alpha  occ. eigenvalues --  -10.36536 -10.35606 -10.35149 -10.34705 -10.34675
 Alpha  occ. eigenvalues --  -10.33939 -10.33392 -10.33096 -10.31813 -10.31006
 Alpha  occ. eigenvalues --  -10.30530 -10.29732 -10.29559 -10.29442 -10.29332
 Alpha  occ. eigenvalues --  -10.29120 -10.29042 -10.28511  -1.21182  -1.17973
 Alpha  occ. eigenvalues --   -1.17128  -1.15935  -1.14153  -1.13744  -1.12635
 Alpha  occ. eigenvalues --   -1.11438  -1.11109  -1.09391  -1.08100  -1.05487
 Alpha  occ. eigenvalues --   -1.04453  -1.03644  -1.03069  -1.02114  -1.01111
 Alpha  occ. eigenvalues --   -0.98923  -0.95911  -0.91658  -0.90197  -0.89530
 Alpha  occ. eigenvalues --   -0.87994  -0.86010  -0.85745  -0.84709  -0.83029
 Alpha  occ. eigenvalues --   -0.79548  -0.78563  -0.77225  -0.76144  -0.74856
 Alpha  occ. eigenvalues --   -0.73859  -0.72586  -0.71811  -0.71261  -0.70919
 Alpha  occ. eigenvalues --   -0.70724  -0.69985  -0.69845  -0.68864  -0.68761
 Alpha  occ. eigenvalues --   -0.68522  -0.65988  -0.65641  -0.64628  -0.63385
 Alpha  occ. eigenvalues --   -0.62583  -0.61857  -0.61635  -0.61562  -0.60987
 Alpha  occ. eigenvalues --   -0.60885  -0.60146  -0.59968  -0.59482  -0.59014
 Alpha  occ. eigenvalues --   -0.58855  -0.58492  -0.58156  -0.57446  -0.56933
 Alpha  occ. eigenvalues --   -0.56730  -0.56293  -0.56210  -0.55873  -0.55721
 Alpha  occ. eigenvalues --   -0.55095  -0.54711  -0.54150  -0.53882  -0.53655
 Alpha  occ. eigenvalues --   -0.53080  -0.52488  -0.52280  -0.52112  -0.52068
 Alpha  occ. eigenvalues --   -0.51813  -0.51291  -0.51051  -0.50734  -0.50491
 Alpha  occ. eigenvalues --   -0.50328  -0.49664  -0.49413  -0.49264  -0.48796
 Alpha  occ. eigenvalues --   -0.48457  -0.47587  -0.47484  -0.47008  -0.46269
 Alpha  occ. eigenvalues --   -0.46020  -0.45575  -0.45249  -0.45083  -0.44497
 Alpha  occ. eigenvalues --   -0.44396  -0.43853  -0.43248  -0.42328  -0.40955
 Alpha  occ. eigenvalues --   -0.40184  -0.40005  -0.39685  -0.39348  -0.38597
 Alpha  occ. eigenvalues --   -0.38496  -0.38152  -0.37196  -0.36842  -0.36751
 Alpha  occ. eigenvalues --   -0.36424  -0.36036  -0.35920  -0.35691  -0.35244
 Alpha  occ. eigenvalues --   -0.34959  -0.34521
 Alpha virt. eigenvalues --   -0.12983  -0.11945  -0.11653  -0.11258  -0.10711
 Alpha virt. eigenvalues --   -0.10273  -0.09886  -0.08878  -0.07261  -0.05709
 Alpha virt. eigenvalues --   -0.04057  -0.03432  -0.02899  -0.02090  -0.01190

 Mulliken charges:
               1
     1  N   -0.776357
     2  H    0.337073
     3  H    0.347510
     4  C   -0.049483
     5  H    0.183511
     6  C    0.639785
     7  C   -0.407765
     8  H    0.164153
     9  H    0.183990
    10  O   -0.567837
    11  C    0.188187
    12  C   -0.191915
    13  H    0.134898
    14  C   -0.199948
    15  H    0.177603
    16  C   -0.150010
    17  H    0.158688
    18  C   -0.147570
    19  H    0.157349
    20  C   -0.156421
    21  H    0.154610
    22  N   -0.624564
    23  H    0.358301
    24  C   -0.075937
    25  H    0.218828
    26  C    0.604707
    27  C   -0.043617
    28  H    0.142845
    29  H    0.164661
    30  O   -0.520250
    31  O   -0.620140
    32  H    0.426002
    33  N   -0.640340
    34  H    0.381465
    35  C   -0.100459
    36  H    0.210816
    37  C    0.664855
    38  C   -0.048457
    39  H    0.204279
    40  H    0.140777
    41  O   -0.586963
    42  O   -0.604928
    43  H    0.397321
    44  N   -0.582814
    45  H    0.359011
    46  C   -0.063180
    47  H    0.226457
    48  C    0.611687
    49  C   -0.355737
    50  H    0.211941
    51  H    0.194728
    52  O   -0.543382
    53  C    0.583004
    54  O   -0.481601
    55  O   -0.573206
    56  N   -0.622601
    57  H    0.386583
    58  C   -0.052311
    59  H    0.224663
    60  C    0.608853
    61  C   -0.286145
    62  H    0.196239
    63  H    0.160553
    64  O   -0.486277
    65  C   -0.340308
    66  H    0.213616
    67  H    0.164844
    68  C   -0.145513
    69  H    0.173750
    70  H    0.166885
    71  N   -0.637733
    72  H    0.374279
    73  N   -0.819739
    74  H    0.442645
    75  H    0.362634
    76  N   -0.834840
    77  H    0.409536
    78  H    0.394910
    79  C    0.789712
    80  O   -0.559488
    81  H    0.439081
    82  H    0.460010
 Sum of Mulliken charges =   1.00000

 Dipole moment (field-independent basis, Debye):
    X=              4.8723    Y=            -15.1837    Z=              1.5901  Tot=             16.0253
 Quadrupole moment (field-independent basis, Debye-Ang):
   XX=           -180.7437   YY=           -161.3815   ZZ=           -227.1508
   XY=             14.5601   XZ=             48.6445   YZ=             11.4096

 Normal termination of Gaussian 16 at Fri Jul  8 17:05:28 2022.
