 Gaussian 16, Revision C.01,
 Gaussian 16:  ES64L-G16RevC.01  3-Jul-2019

 ----------------------------------------------------------------------
 # B3LYP/6-31G* empiricaldispersion=gd3 guess=read geom=check nosymm in
 tegral(ultrafinegrid)
 ----------------------------------------------------------------------

 -----------------------------------------------------
 Candidate Structure: Conf:18 Charge calc in gas phase
 -----------------------------------------------------
 Structure from the checkpoint file:  "conf-18.chk"
 Charge =  1 Multiplicity = 1

                          Input orientation:
 ---------------------------------------------------------------------
 Center     Atomic      Atomic             Coordinates (Angstroms)
 Number     Number       Type             X           Y           Z
 ---------------------------------------------------------------------
      1          7           0       -2.636206   -7.806841    0.921619
      2          1           0       -3.000501   -8.119550    1.824367
      3          1           0       -3.415023   -7.841776    0.186832
      4          1           0       -1.845907   -8.398263    0.655843
      5          6           0       -2.284452   -6.324531    0.884247
      6          1           0       -2.288687   -5.927669    1.900329
      7          6           0       -3.438165   -5.744592    0.028943
      8          6           0       -0.917118   -6.099840    0.230872
      9          1           0       -0.176075   -6.774701    0.678423
     10          1           0       -0.967660   -6.300751   -0.843294
     11          8           0       -4.183794   -6.547758   -0.563162
     12          6           0       -0.365525   -4.639582    0.414231
     13          8           0        0.757350   -4.456922   -0.064601
     14          8           0       -1.122777   -3.825248    1.039392
     15          7           0       -3.499802   -4.418964   -0.016484
     16          1           0       -2.658949   -3.960290    0.411248
     17          6           0       -4.157805   -3.748863   -1.122328
     18          1           0       -5.151905   -4.184602   -1.264827
     19          6           0       -3.317674   -3.989711   -2.406442
     20          6           0       -4.292076   -2.239080   -0.774036
     21          1           0       -3.285816   -1.812302   -0.678872
     22          1           0       -4.754304   -2.189407    0.219084
     23          8           0       -2.210958   -4.535479   -2.355913
     24          6           0       -5.104432   -1.465182   -1.786139
     25          6           0       -4.491480   -0.595077   -2.699060
     26          1           0       -3.423991   -0.406932   -2.630418
     27          6           0       -6.477649   -1.707117   -1.925949
     28          1           0       -6.981092   -2.376856   -1.232053
     29          6           0       -5.206489   -0.015208   -3.741818
     30          1           0       -4.713749    0.616534   -4.472150
     31          6           0       -7.211097   -1.129389   -2.961207
     32          1           0       -8.272544   -1.344630   -3.065500
     33          8           0       -7.212446    0.249596   -4.959931
     34          1           0       -8.154188    0.019519   -4.926111
     35          6           0       -6.570478   -0.292024   -3.882289
     36          7           0       -3.863026   -3.540002   -3.555913
     37          1           0       -4.757316   -3.068063   -3.524237
     38          6           0       -3.120180   -3.476590   -4.818214
     39          1           0       -2.586520   -4.426021   -4.926914
     40          6           0       -2.108888   -2.310662   -4.700503
     41          6           0       -4.080996   -3.241503   -5.998073
     42          1           0       -3.514094   -3.412987   -6.921258
     43          1           0       -4.354900   -2.182523   -5.997718
     44          8           0       -2.392901   -1.174755   -5.098796
     45          6           0       -5.323528   -4.100703   -5.946621
     46          6           0       -6.581390   -3.515888   -5.743374
     47          1           0       -6.662431   -2.434122   -5.673501
     48          6           0       -5.256001   -5.494774   -6.056034
     49          1           0       -4.293748   -5.976533   -6.215173
     50          6           0       -7.734667   -4.290809   -5.646038
     51          1           0       -8.709691   -3.838622   -5.493841
     52          6           0       -6.400265   -6.283772   -5.962328
     53          1           0       -6.327584   -7.366090   -6.052461
     54          8           0       -8.808419   -6.394395   -5.646164
     55          1           0       -8.618793   -7.337187   -5.770703
     56          6           0       -7.647242   -5.681683   -5.753122
     57          7           0       -0.951234   -2.605810   -4.064494
     58          1           0       -0.905527   -3.514759   -3.610647
     59          6           0       -0.107636   -1.540938   -3.495988
     60          1           0       -0.785374   -0.725025   -3.212584
     61          6           0        0.859153   -0.955636   -4.558199
     62          6           0        0.649426   -2.037531   -2.244990
     63          1           0        0.092964   -2.846584   -1.766304
     64          1           0        1.617014   -2.442461   -2.552309
     65          8           0        2.086394   -1.063392   -4.466102
     66          6           0        0.824571   -0.903147   -1.258501
     67          6           0        1.787955    0.093319   -1.461648
     68          1           0        2.491267    0.012412   -2.283893
     69          6           0       -0.042667   -0.796613   -0.159524
     70          1           0       -0.717916   -1.617550    0.070421
     71          6           0        1.839792    1.205692   -0.618460
     72          1           0        2.587484    1.968051   -0.816006
     73          6           0        0.004592    0.319075    0.675589
     74          1           0       -0.685302    0.393749    1.512260
     75          6           0        0.931401    1.339127    0.436376
     76          1           0        0.927020    2.234140    1.055523
     77          7           0        0.250237   -0.289266   -5.562200
     78          1           0       -0.769493   -0.265687   -5.565410
     79          6           0        0.984261    0.307466   -6.681469
     80          1           0        1.858945   -0.327059   -6.864346
     81          6           0        1.479797    1.714635   -6.267885
     82          6           0        0.095333    0.377228   -7.917052
     83          1           0        0.653289    0.793221   -8.759835
     84          1           0       -0.262669   -0.622181   -8.182878
     85          1           0       -0.760725    1.034014   -7.736771
     86          8           0        1.007287    2.748737   -6.728748
     87          7           0        2.469216    1.694440   -5.331640
     88          1           0        2.706385    0.805740   -4.889565
     89          6           0        2.866762    2.917825   -4.651110
     90          1           0        2.974189    3.696246   -5.412423
     91          6           0        4.201999    2.630256   -3.969072
     92          6           0        1.803621    3.351509   -3.614428
     93          1           0        0.889465    3.569696   -4.179011
     94          1           0        1.595617    2.483406   -2.981129
     95          8           0        4.360548    1.608072   -3.290126
     96          6           0        2.169950    4.558313   -2.732472
     97          1           0        3.108697    4.327102   -2.203551
     98          6           0        2.388657    5.840631   -3.549052
     99          1           0        1.489756    6.086703   -4.127350
    100          1           0        2.612308    6.690237   -2.893843
    101          1           0        3.219064    5.751236   -4.258506
    102          6           0        1.077812    4.779405   -1.674950
    103          1           0        0.125314    5.038703   -2.153818
    104          1           0        1.343549    5.600016   -0.997531
    105          1           0        0.911372    3.876652   -1.076912
    106          7           0        5.178685    3.554948   -4.131082
    107          1           0        4.988915    4.369417   -4.698817
    108          6           0        6.555177    3.370838   -3.652330
    109          1           0        6.810067    2.318866   -3.826018
    110          6           0        6.647898    3.640835   -2.130712
    111          6           0        7.498715    4.287335   -4.422062
    112          1           0        8.530832    4.111509   -4.109135
    113          1           0        7.270130    5.336510   -4.211751
    114          1           0        7.420992    4.098808   -5.497453
    115          8           0        7.136272    4.663078   -1.661794
    116          7           0        6.163923    2.622896   -1.363139
    117          1           0        5.567756    1.926007   -1.817103
    118          6           0        6.116325    2.746454    0.079416
    119          1           0        7.047889    3.218248    0.404279
    120          6           0        5.977212    1.341105    0.666248
    121          6           0        4.924705    3.656832    0.528142
    122          1           0        4.091561    3.471841   -0.155641
    123          1           0        5.234857    4.694037    0.379806
    124          8           0        4.918424    0.716978    0.560295
    125          6           0        4.449412    3.436610    1.928265
    126          6           0        4.793759    3.971960    3.141500
    127          1           0        5.500785    4.747572    3.388289
    128          7           0        3.477591    2.484271    2.208093
    129          1           0        3.140855    1.802294    1.530298
    130          6           0        3.263650    2.426268    3.521760
    131          1           0        2.619695    1.737725    4.043108
    132          7           0        4.036548    3.335453    4.106061
    133          7           0        7.050841    0.866501    1.331103
    134          1           0        7.944238    1.339308    1.293412
    135          6           0        7.001032   -0.367809    2.098216
    136          1           0        6.978736   -1.233773    1.423845
    137          6           0        5.744822   -0.315632    2.988746
    138          6           0        8.249563   -0.441616    2.994807
    139          1           0        8.152575    0.359654    3.743798
    140          8           0        5.498305    0.717864    3.614998
    141          6           0        8.377976   -1.794946    3.688590
    142          1           0        7.507462   -2.003718    4.319303
    143          1           0        8.477993   -2.593080    2.945259
    144          1           0        9.268058   -1.810373    4.327761
    145          8           0        9.359073   -0.178609    2.131521
    146          1           0       10.162901   -0.145963    2.672876
    147          7           0        4.986805   -1.429392    3.056331
    148          1           0        5.195044   -2.170945    2.401260
    149          6           0        3.586724   -1.354257    3.513026
    150          1           0        3.232045   -0.361172    3.212035
    151          6           0        3.504542   -1.437438    5.060749
    152          6           0        2.702112   -2.390464    2.797542
    153          1           0        2.980041   -3.385100    3.170481
    154          8           0        3.170477   -2.457596    5.658048
    155          6           0        1.229634   -2.135573    3.161256
    156          1           0        0.945236   -1.109201    2.894348
    157          1           0        1.055594   -2.282985    4.230931
    158          1           0        0.570472   -2.800871    2.595294
    159          6           0        2.895800   -2.326107    1.272814
    160          1           0        2.774811   -1.301403    0.904297
    161          1           0        2.159102   -2.961505    0.774165
    162          1           0        3.887495   -2.669868    0.948789
    163          7           0        3.775491   -0.254988    5.673116
    164          1           0        4.281950    0.457081    5.151497
    165          6           0        3.709922   -0.057533    7.110174
    166          1           0        2.780962   -0.512984    7.471463
    167          6           0        3.656550    1.471566    7.386373
    168          6           0        4.893137   -0.769337    7.820395
    169          1           0        4.957104   -1.762115    7.366414
    170          1           0        5.827930   -0.242526    7.583829
    171          8           0        3.235374    1.852406    8.517258
    172          6           0        4.724466   -0.945476    9.340385
    173          1           0        5.248449   -1.851449    9.670084
    174          1           0        3.662543   -1.113138    9.558890
    175          6           0        5.229345    0.242564   10.176442
    176          1           0        4.956995    1.193920    9.719477
    177          1           0        6.318530    0.224471   10.271572
    178          7           0        4.686833    0.233851   11.548123
    179          1           0        5.131532   -0.391245   12.208244
    180          7           0        2.603894    1.067857   10.920462
    181          1           0        1.733591    1.487833   11.217936
    182          1           0        2.868434    1.232473    9.893761
    183          7           0        2.999890    0.408239   13.123620
    184          1           0        2.085166    0.745017   13.388311
    185          1           0        3.684711    0.405525   13.866815
    186          6           0        3.423707    0.589794   11.840822
    187          8           0        4.070439    2.222884    6.473139
    188          1           0        4.137279    3.315809    5.137453
 ---------------------------------------------------------------------

 SCF Done:  E(RB3LYP) =  -4648.76925195     A.U. after    2 cycles

 Alpha  occ. eigenvalues --  -19.23054 -19.22225 -19.22207 -19.21032 -19.18663
 Alpha  occ. eigenvalues --  -19.18539 -19.18151 -19.18123 -19.17590 -19.17264
 Alpha  occ. eigenvalues --  -19.15854 -19.15463 -19.15357 -19.15114 -19.14583
 Alpha  occ. eigenvalues --  -19.12897 -19.11709 -14.53990 -14.48631 -14.48173
 Alpha  occ. eigenvalues --  -14.47957 -14.47743 -14.45537 -14.43188 -14.42923
 Alpha  occ. eigenvalues --  -14.42483 -14.42126 -14.41572 -14.41121 -14.41001
 Alpha  occ. eigenvalues --  -14.39386 -14.38919 -14.38493 -10.43670 -10.36951
 Alpha  occ. eigenvalues --  -10.35880 -10.35688 -10.35570 -10.34940 -10.34850
 Alpha  occ. eigenvalues --  -10.34136 -10.34131 -10.33599 -10.33326 -10.32618
 Alpha  occ. eigenvalues --  -10.32476 -10.32066 -10.31619 -10.31501 -10.31290
 Alpha  occ. eigenvalues --  -10.31086 -10.30575 -10.30486 -10.30431 -10.30226
 Alpha  occ. eigenvalues --  -10.29897 -10.29395 -10.29378 -10.29179 -10.27729
 Alpha  occ. eigenvalues --  -10.27706 -10.27704 -10.27615 -10.27036 -10.26717
 Alpha  occ. eigenvalues --  -10.25966 -10.25602 -10.25131 -10.24770 -10.24706
 Alpha  occ. eigenvalues --  -10.24630 -10.24502 -10.24468 -10.24152 -10.23891
 Alpha  occ. eigenvalues --  -10.23729 -10.23712 -10.23633 -10.23606 -10.23567
 Alpha  occ. eigenvalues --  -10.23469 -10.23398 -10.23370 -10.23092 -10.23049
 Alpha  occ. eigenvalues --  -10.22947 -10.22904 -10.22552 -10.22209 -10.21987
 Alpha  occ. eigenvalues --  -10.21845 -10.21737 -10.21673 -10.21652 -10.21284
 Alpha  occ. eigenvalues --  -10.19311 -10.18857  -1.13702  -1.13186  -1.12179
 Alpha  occ. eigenvalues --   -1.11402  -1.11063  -1.10254  -1.10132  -1.10079
 Alpha  occ. eigenvalues --   -1.09873  -1.09532  -1.09014  -1.08855  -1.08600
 Alpha  occ. eigenvalues --   -1.07634  -1.07519  -1.07019  -1.06240  -1.05636
 Alpha  occ. eigenvalues --   -1.01722  -1.00614  -1.00037  -0.99939  -0.99457
 Alpha  occ. eigenvalues --   -0.99216  -0.98955  -0.98834  -0.98797  -0.98099
 Alpha  occ. eigenvalues --   -0.97448  -0.97068  -0.96139  -0.95811  -0.95267
 Alpha  occ. eigenvalues --   -0.90978  -0.89840  -0.89203  -0.88377  -0.86613
 Alpha  occ. eigenvalues --   -0.86481  -0.85877  -0.85610  -0.84513  -0.83827
 Alpha  occ. eigenvalues --   -0.83450  -0.83352  -0.82660  -0.81956  -0.80782
 Alpha  occ. eigenvalues --   -0.80579  -0.80114  -0.79255  -0.79078  -0.78365
 Alpha  occ. eigenvalues --   -0.78201  -0.77965  -0.77785  -0.76340  -0.76203
 Alpha  occ. eigenvalues --   -0.75018  -0.74294  -0.74256  -0.73693  -0.72760
 Alpha  occ. eigenvalues --   -0.72125  -0.71615  -0.71125  -0.70606  -0.70455
 Alpha  occ. eigenvalues --   -0.70066  -0.69714  -0.69418  -0.69075  -0.68568
 Alpha  occ. eigenvalues --   -0.68095  -0.67654  -0.67405  -0.66959  -0.66848
 Alpha  occ. eigenvalues --   -0.66760  -0.66307  -0.66021  -0.65790  -0.64885
 Alpha  occ. eigenvalues --   -0.64723  -0.64344  -0.64207  -0.64107  -0.63864
 Alpha  occ. eigenvalues --   -0.63639  -0.63494  -0.62947  -0.61887  -0.61812
 Alpha  occ. eigenvalues --   -0.61616  -0.61460  -0.61351  -0.61123  -0.60678
 Alpha  occ. eigenvalues --   -0.60283  -0.59906  -0.59749  -0.59648  -0.59456
 Alpha  occ. eigenvalues --   -0.59056  -0.58828  -0.58430  -0.57656  -0.57477
 Alpha  occ. eigenvalues --   -0.56973  -0.56490  -0.56100  -0.55822  -0.55755
 Alpha  occ. eigenvalues --   -0.55664  -0.55514  -0.55094  -0.55034  -0.54914
 Alpha  occ. eigenvalues --   -0.54768  -0.54462  -0.54408  -0.53729  -0.53551
 Alpha  occ. eigenvalues --   -0.53433  -0.53276  -0.53199  -0.53141  -0.52878
 Alpha  occ. eigenvalues --   -0.52571  -0.52254  -0.52195  -0.51963  -0.51687
 Alpha  occ. eigenvalues --   -0.51532  -0.51421  -0.51189  -0.51039  -0.50939
 Alpha  occ. eigenvalues --   -0.50763  -0.50536  -0.50217  -0.49580  -0.49363
 Alpha  occ. eigenvalues --   -0.49081  -0.48984  -0.48961  -0.48834  -0.48661
 Alpha  occ. eigenvalues --   -0.48342  -0.48311  -0.48203  -0.47848  -0.47812
 Alpha  occ. eigenvalues --   -0.47601  -0.47435  -0.47414  -0.47306  -0.47064
 Alpha  occ. eigenvalues --   -0.46998  -0.46875  -0.46822  -0.46648  -0.46560
 Alpha  occ. eigenvalues --   -0.46512  -0.46090  -0.46033  -0.45766  -0.45527
 Alpha  occ. eigenvalues --   -0.45483  -0.45386  -0.45190  -0.45104  -0.44986
 Alpha  occ. eigenvalues --   -0.44817  -0.44780  -0.44539  -0.44497  -0.44417
 Alpha  occ. eigenvalues --   -0.44263  -0.44239  -0.44068  -0.43897  -0.43826
 Alpha  occ. eigenvalues --   -0.43736  -0.43629  -0.43478  -0.43319  -0.43257
 Alpha  occ. eigenvalues --   -0.43119  -0.42824  -0.42764  -0.42718  -0.42674
 Alpha  occ. eigenvalues --   -0.42424  -0.42228  -0.41959  -0.41736  -0.41653
 Alpha  occ. eigenvalues --   -0.41449  -0.41203  -0.41013  -0.40928  -0.40868
 Alpha  occ. eigenvalues --   -0.40776  -0.40694  -0.40624  -0.40095  -0.40044
 Alpha  occ. eigenvalues --   -0.39997  -0.39879  -0.39732  -0.39461  -0.39207
 Alpha  occ. eigenvalues --   -0.39147  -0.39081  -0.39008  -0.38827  -0.38395
 Alpha  occ. eigenvalues --   -0.37991  -0.37890  -0.37605  -0.37385  -0.37081
 Alpha  occ. eigenvalues --   -0.36947  -0.36827  -0.36709  -0.36486  -0.36119
 Alpha  occ. eigenvalues --   -0.36032  -0.35671  -0.35409  -0.34757  -0.34169
 Alpha  occ. eigenvalues --   -0.33867  -0.33821  -0.33522  -0.33135  -0.33019
 Alpha  occ. eigenvalues --   -0.32954  -0.32528  -0.32067  -0.31914  -0.31677
 Alpha  occ. eigenvalues --   -0.31385  -0.31108  -0.30915  -0.30683  -0.30555
 Alpha  occ. eigenvalues --   -0.29829  -0.29719  -0.29701  -0.29559  -0.28972
 Alpha  occ. eigenvalues --   -0.28806  -0.28520  -0.28268  -0.28025  -0.27878
 Alpha  occ. eigenvalues --   -0.27679  -0.27432  -0.27076  -0.27070  -0.26180
 Alpha  occ. eigenvalues --   -0.25957
 Alpha virt. eigenvalues --   -0.08280  -0.08088  -0.06130  -0.06107  -0.05904
 Alpha virt. eigenvalues --   -0.05850  -0.05580  -0.05254  -0.05025  -0.04983
 Alpha virt. eigenvalues --   -0.04804  -0.04596  -0.04488  -0.04209  -0.03921

 Mulliken charges:
               1
     1  N   -0.763655
     2  H    0.398563
     3  H    0.421661
     4  H    0.401686
     5  C   -0.107417
     6  H    0.215653
     7  C    0.640652
     8  C   -0.398263
     9  H    0.156438
    10  H    0.201296
    11  O   -0.564672
    12  C    0.649856
    13  O   -0.544341
    14  O   -0.621467
    15  N   -0.601182
    16  H    0.409187
    17  C   -0.082783
    18  H    0.189857
    19  C    0.638273
    20  C   -0.376114
    21  H    0.176282
    22  H    0.173626
    23  O   -0.552845
    24  C    0.120984
    25  C   -0.191017
    26  H    0.151716
    27  C   -0.193241
    28  H    0.135936
    29  C   -0.153484
    30  H    0.166307
    31  C   -0.187977
    32  H    0.132091
    33  O   -0.641921
    34  H    0.413169
    35  C    0.350984
    36  N   -0.593111
    37  H    0.366152
    38  C   -0.041908
    39  H    0.173430
    40  C    0.630269
    41  C   -0.407175
    42  H    0.167590
    43  H    0.195212
    44  O   -0.556738
    45  C    0.160851
    46  C   -0.210214
    47  H    0.146680
    48  C   -0.178610
    49  H    0.129082
    50  C   -0.161045
    51  H    0.135505
    52  C   -0.191964
    53  H    0.123927
    54  O   -0.639910
    55  H    0.410105
    56  C    0.351450
    57  N   -0.608264
    58  H    0.378721
    59  C   -0.061450
    60  H    0.177527
    61  C    0.633390
    62  C   -0.401835
    63  H    0.196510
    64  H    0.191799
    65  O   -0.545237
    66  C    0.139058
    67  C   -0.195573
    68  H    0.190742
    69  C   -0.187911
    70  H    0.180153
    71  C   -0.140046
    72  H    0.135168
    73  C   -0.138116
    74  H    0.129942
    75  C   -0.187231
    76  H    0.118305
    77  N   -0.617282
    78  H    0.383377
    79  C   -0.056075
    80  H    0.176330
    81  C    0.622888
    82  C   -0.458315
    83  H    0.168281
    84  H    0.149249
    85  H    0.173333
    86  O   -0.530648
    87  N   -0.646010
    88  H    0.391654
    89  C   -0.028226
    90  H    0.164704
    91  C    0.621295
    92  C   -0.276942
    93  H    0.169844
    94  H    0.159693
    95  O   -0.551266
    96  C   -0.095529
    97  H    0.119329
    98  C   -0.441774
    99  H    0.160574
   100  H    0.147667
   101  H    0.120519
   102  C   -0.456155
   103  H    0.151697
   104  H    0.136082
   105  H    0.150522
   106  N   -0.605928
   107  H    0.349194
   108  C   -0.050240
   109  H    0.184685
   110  C    0.621568
   111  C   -0.474826
   112  H    0.177953
   113  H    0.176936
   114  H    0.159935
   115  O   -0.524983
   116  N   -0.646410
   117  H    0.396337
   118  C   -0.011810
   119  H    0.169970
   120  C    0.637440
   121  C   -0.385608
   122  H    0.196329
   123  H    0.204791
   124  O   -0.552894
   125  C    0.307135
   126  C   -0.001053
   127  H    0.198615
   128  N   -0.586930
   129  H    0.413152
   130  C    0.313162
   131  H    0.236458
   132  N   -0.534495
   133  N   -0.615857
   134  H    0.357719
   135  C    0.000858
   136  H    0.168621
   137  C    0.630713
   138  C    0.104896
   139  H    0.150089
   140  O   -0.560037
   141  C   -0.477756
   142  H    0.171404
   143  H    0.167680
   144  H    0.151983
   145  O   -0.636956
   146  H    0.406302
   147  N   -0.600932
   148  H    0.344641
   149  C   -0.035431
   150  H    0.133673
   151  C    0.624249
   152  C   -0.104138
   153  H    0.144031
   154  O   -0.539342
   155  C   -0.488268
   156  H    0.118172
   157  H    0.152527
   158  H    0.201671
   159  C   -0.504105
   160  H    0.159480
   161  H    0.232281
   162  H    0.106021
   163  N   -0.652590
   164  H    0.391331
   165  C   -0.043000
   166  H    0.156274
   167  C    0.602259
   168  C   -0.279871
   169  H    0.181683
   170  H    0.138629
   171  O   -0.607981
   172  C   -0.273768
   173  H    0.144302
   174  H    0.154748
   175  C   -0.193493
   176  H    0.222210
   177  H    0.170394
   178  N   -0.589626
   179  H    0.349392
   180  N   -0.776413
   181  H    0.351766
   182  H    0.451660
   183  N   -0.764237
   184  H    0.365103
   185  H    0.365912
   186  C    0.787625
   187  O   -0.594381
   188  H    0.421512
 Sum of Mulliken charges =   1.00000

 Dipole moment (field-independent basis, Debye):
    X=              7.6929    Y=            -10.8585    Z=             29.5287  Tot=             32.3888
 Quadrupole moment (field-independent basis, Debye-Ang):
   XX=           -378.7096   YY=           -406.1609   ZZ=           -169.3006
   XY=             80.7291   XZ=            126.8647   YZ=             14.0980

 Normal termination of Gaussian 16 at Tue Aug  9 09:42:32 2022.
