 Gaussian 16, Revision C.01,
 Gaussian 16:  ES64L-G16RevC.01  3-Jul-2019

 ----------------------------------------------------------------------
 # B3LYP/6-31G* empiricaldispersion=gd3 guess=read geom=check nosymm in
 tegral(ultrafinegrid)
 ----------------------------------------------------------------------

 ------------------------------------------------------
 Candidate Structure: Conf:535 Charge calc in gas phase
 ------------------------------------------------------
 Structure from the checkpoint file:  "conf-535.chk"
 Charge =  1 Multiplicity = 1

                          Input orientation:
 ---------------------------------------------------------------------
 Center     Atomic      Atomic             Coordinates (Angstroms)
 Number     Number       Type             X           Y           Z
 ---------------------------------------------------------------------
      1          7           0       -4.744323    2.670460  -14.361688
      2          1           0       -4.726557    3.551055  -13.845946
      3          1           0       -3.358500    1.573387  -14.074123
      4          1           0       -5.044876    2.854966  -15.315825
      5          6           0       -5.681812    1.757506  -13.682344
      6          1           0       -6.729849    1.958321  -13.956143
      7          6           0       -5.572224    2.065421  -12.172699
      8          6           0       -5.339445    0.304020  -14.066337
      9          1           0       -6.097018   -0.401587  -13.715998
     10          1           0       -5.327269    0.232244  -15.161751
     11          8           0       -5.333395    3.211651  -11.791711
     12          6           0       -3.975619   -0.153329  -13.529405
     13          8           0       -3.815842   -1.225747  -12.991547
     14          8           0       -2.978870    0.728371  -13.691510
     15          7           0       -5.773257    1.038246  -11.317394
     16          1           0       -5.902227    0.082111  -11.627882
     17          6           0       -5.616191    1.212620   -9.885316
     18          1           0       -4.759577    1.871740   -9.707265
     19          6           0       -5.387572   -0.169881   -9.275882
     20          6           0       -6.879580    1.860592   -9.240400
     21          1           0       -7.745620    1.254495   -9.526284
     22          1           0       -6.990783    2.849770   -9.695703
     23          8           0       -5.973505   -1.160699   -9.708751
     24          6           0       -6.758541    1.947427   -7.737690
     25          6           0       -7.359194    0.988757   -6.908706
     26          1           0       -7.996674    0.227768   -7.352255
     27          6           0       -5.936100    2.910524   -7.140487
     28          1           0       -5.464664    3.670734   -7.759340
     29          6           0       -7.134833    0.972586   -5.534439
     30          1           0       -7.595116    0.225335   -4.895786
     31          6           0       -5.694436    2.902674   -5.766860
     32          1           0       -5.038239    3.648414   -5.322576
     33          8           0       -6.053910    1.836584   -3.612717
     34          1           0       -5.428183    2.530304   -3.352447
     35          6           0       -6.283657    1.922308   -4.965884
     36          7           0       -4.562820   -0.203614   -8.200729
     37          1           0       -4.196581    0.655822   -7.806963
     38          6           0       -4.554890   -1.352345   -7.318469
     39          1           0       -5.539187   -1.829055   -7.376167
     40          6           0       -4.302509   -0.842129   -5.899610
     41          6           0       -3.488561   -2.408292   -7.736588
     42          1           0       -2.500464   -1.935570   -7.707361
     43          1           0       -3.705250   -2.661669   -8.779496
     44          8           0       -3.653627    0.193766   -5.698062
     45          6           0       -3.542207   -3.623982   -6.842890
     46          6           0       -2.614196   -3.813585   -5.808653
     47          1           0       -1.775246   -3.128307   -5.716872
     48          6           0       -4.617707   -4.517988   -6.930537
     49          1           0       -5.348644   -4.398943   -7.727412
     50          6           0       -2.753597   -4.840583   -4.881048
     51          1           0       -2.049680   -4.967651   -4.066134
     52          6           0       -4.772989   -5.555077   -6.008937
     53          1           0       -5.613109   -6.241403   -6.096629
     54          8           0       -3.937417   -6.700055   -4.034435
     55          1           0       -4.702227   -7.262566   -4.232856
     56          6           0       -3.841369   -5.716394   -4.976217
     57          7           0       -4.809878   -1.599712   -4.902127
     58          1           0       -5.165140   -2.519916   -5.134469
     59          6           0       -4.601746   -1.294920   -3.484355
     60          1           0       -4.679331   -0.208088   -3.386308
     61          6           0       -3.189113   -1.740064   -3.053416
     62          6           0       -5.692145   -1.972164   -2.646574
     63          1           0       -6.656368   -1.711193   -3.099673
     64          1           0       -5.568043   -3.057929   -2.722030
     65          8           0       -2.989369   -2.720411   -2.328140
     66          6           0       -5.676922   -1.547070   -1.193007
     67          6           0       -5.296969   -2.443045   -0.187147
     68          1           0       -4.976666   -3.443494   -0.461558
     69          6           0       -6.057901   -0.246365   -0.833975
     70          1           0       -6.358777    0.455740   -1.607931
     71          6           0       -5.319059   -2.056893    1.153542
     72          1           0       -5.039109   -2.771635    1.922645
     73          6           0       -6.063649    0.146645    0.505534
     74          1           0       -6.368915    1.155602    0.770592
     75          6           0       -5.700965   -0.759969    1.504868
     76          1           0       -5.723665   -0.460176    2.549298
     77          7           0       -2.191308   -0.975071   -3.556717
     78          1           0       -2.454073   -0.249598   -4.224476
     79          6           0       -0.783686   -1.370225   -3.475879
     80          1           0       -0.750828   -2.466961   -3.514448
     81          6           0       -0.194727   -0.935165   -2.117623
     82          6           0       -0.003210   -0.769388   -4.639508
     83          1           0        1.038069   -1.099035   -4.608722
     84          1           0       -0.446339   -1.077368   -5.591577
     85          1           0       -0.005594    0.322643   -4.581409
     86          8           0        0.681254   -0.065115   -2.030357
     87          7           0       -0.718362   -1.572999   -1.045266
     88          1           0       -1.483768   -2.228548   -1.218595
     89          6           0       -0.480644   -1.109281    0.323561
     90          1           0       -0.387237   -0.016918    0.277768
     91          6           0        0.868876   -1.660607    0.839045
     92          6           0       -1.633107   -1.512136    1.245468
     93          1           0       -2.583339   -1.326476    0.731260
     94          1           0       -1.563796   -2.590393    1.425023
     95          8           0        0.938085   -2.516046    1.734070
     96          6           0       -1.620736   -0.755025    2.590752
     97          1           0       -0.581464   -0.726065    2.950164
     98          6           0       -2.126747    0.686878    2.428755
     99          1           0       -3.167164    0.688138    2.081641
    100          1           0       -2.088851    1.227960    3.381871
    101          1           0       -1.533859    1.256410    1.703088
    102          6           0       -2.450547   -1.505248    3.640904
    103          1           0       -3.494796   -1.587403    3.321164
    104          1           0       -2.439084   -0.979901    4.603777
    105          1           0       -2.064434   -2.518883    3.798850
    106          7           0        1.956031   -1.122393    0.241905
    107          1           0        1.772212   -0.502085   -0.552570
    108          6           0        3.306226   -1.675412    0.391129
    109          1           0        3.211218   -2.767214    0.466515
    110          6           0        3.951014   -1.190086    1.706874
    111          6           0        4.158793   -1.296374   -0.814297
    112          1           0        5.153783   -1.739136   -0.726979
    113          1           0        4.279614   -0.210709   -0.874408
    114          1           0        3.687486   -1.654163   -1.734332
    115          8           0        4.971820   -0.503683    1.758453
    116          7           0        3.297221   -1.598292    2.829152
    117          1           0        2.427407   -2.130632    2.716338
    118          6           0        3.779576   -1.160877    4.108828
    119          1           0        3.736866   -0.061684    4.165110
    120          6           0        5.232975   -1.617553    4.345513
    121          6           0        2.930987   -1.770276    5.254484
    122          1           0        2.943380   -2.858241    5.144762
    123          1           0        1.890886   -1.433963    5.175811
    124          8           0        5.553809   -2.795110    4.304012
    125          6           0        3.524501   -1.418417    6.582977
    126          6           0        4.394035   -2.110220    7.379404
    127          1           0        4.779503   -3.112040    7.277802
    128          7           0        3.426977   -0.152971    7.158545
    129          1           0        2.881220    0.617585    6.792655
    130          6           0        4.213082   -0.068573    8.236679
    131          1           0        4.370519    0.804859    8.848384
    132          7           0        4.788607   -1.258388    8.397562
    133          7           0        6.073393   -0.610737    4.723324
    134          1           0        5.671334    0.299806    4.924415
    135          6           0        7.288252   -0.859092    5.469648
    136          1           0        7.329145   -1.927607    5.701616
    137          6           0        7.179133   -0.052017    6.770700
    138          6           0        8.544870   -0.497599    4.606395
    139          1           0        9.335715   -0.101772    5.251248
    140          8           0        6.412297    0.913207    6.848757
    141          6           0        9.025962   -1.711419    3.818936
    142          1           0        9.389797   -2.491613    4.496471
    143          1           0        8.208916   -2.134376    3.222847
    144          1           0        9.849651   -1.429616    3.155407
    145          8           0        8.202471    0.576210    3.700687
    146          1           0        7.333573    0.342258    3.311832
    147          7           0        7.909809   -0.526340    7.813148
    148          1           0        8.683607   -1.124935    7.527730
    149          6           0        8.371910    0.418187    8.850013
    150          1           0        7.561436    1.129647    9.028919
    151          6           0        9.587674    1.138180    8.214559
    152          6           0        8.728598   -0.312909   10.161387
    153          1           0        9.610500   -0.937351    9.957572
    154          8           0       10.284095    0.502092    7.399327
    155          6           0        9.078223    0.689554   11.274211
    156          1           0        8.203247    1.300833   11.531088
    157          1           0        9.878525    1.382598   11.001908
    158          1           0        9.385850    0.154015   12.178290
    159          6           0        7.582531   -1.231536   10.614899
    160          1           0        6.667864   -0.642072   10.789574
    161          1           0        7.824657   -1.724084   11.561896
    162          1           0        7.378205   -2.022062    9.879615
    163          7           0        9.746839    2.407290    8.565115
    164          1           0        9.331950    2.814412    9.432971
    165          6           0       10.929591    3.218681    8.295175
    166          1           0       11.808913    2.568604    8.226638
    167          6           0       11.066548    4.183264    9.548562
    168          6           0       10.791089    4.032096    7.002912
    169          1           0       10.005414    4.788902    7.135300
    170          1           0       11.732403    4.574223    6.864009
    171          8           0       11.980862    5.011810    9.469106
    172          6           0       10.448493    3.145003    5.803785
    173          1           0        9.476818    2.668393    5.992327
    174          1           0       11.173476    2.329238    5.710186
    175          6           0       10.356593    3.899829    4.479497
    176          1           0       11.343872    4.261144    4.174120
    177          1           0        9.690201    4.766355    4.556791
    178          7           0        9.830631    2.983745    3.446682
    179          1           0        9.102655    2.337478    3.758770
    180          7           0       11.243503    3.515781    1.661872
    181          1           0       11.884050    3.148632    0.972881
    182          1           0       11.480311    4.404381    2.077528
    183          7           0       10.029422    1.538540    1.657081
    184          1           0       10.081543    1.473486    0.650431
    185          1           0        9.384073    0.919700    2.149813
    186          6           0       10.367640    2.690798    2.271384
    187          8           0       10.190551    3.976109   10.443553
    188          1           0        5.514354   -1.447549    9.084937
 ---------------------------------------------------------------------

 SCF Done:  E(RB3LYP) =  -4648.72133835     A.U. after    3 cycles

 Alpha  occ. eigenvalues --  -19.27633 -19.24141 -19.23593 -19.23173 -19.22558
 Alpha  occ. eigenvalues --  -19.20883 -19.20265 -19.19626 -19.19410 -19.19330
 Alpha  occ. eigenvalues --  -19.19046 -19.16833 -19.16790 -19.16527 -19.14964
 Alpha  occ. eigenvalues --  -19.07778 -19.06430 -14.57355 -14.57022 -14.49870
 Alpha  occ. eigenvalues --  -14.48814 -14.48638 -14.46865 -14.45941 -14.44427
 Alpha  occ. eigenvalues --  -14.43413 -14.43369 -14.42637 -14.42477 -14.41109
 Alpha  occ. eigenvalues --  -14.40958 -14.38694 -14.38649 -10.45566 -10.44363
 Alpha  occ. eigenvalues --  -10.39898 -10.39619 -10.39497 -10.38432 -10.37386
 Alpha  occ. eigenvalues --  -10.36574 -10.35970 -10.35861 -10.35552 -10.35330
 Alpha  occ. eigenvalues --  -10.34858 -10.34158 -10.33994 -10.33831 -10.33806
 Alpha  occ. eigenvalues --  -10.33771 -10.33560 -10.32328 -10.31565 -10.30686
 Alpha  occ. eigenvalues --  -10.30502 -10.30415 -10.30390 -10.30361 -10.29906
 Alpha  occ. eigenvalues --  -10.29318 -10.28743 -10.28439 -10.27465 -10.27259
 Alpha  occ. eigenvalues --  -10.27213 -10.25692 -10.25555 -10.25524 -10.25289
 Alpha  occ. eigenvalues --  -10.25153 -10.24970 -10.24750 -10.24699 -10.24664
 Alpha  occ. eigenvalues --  -10.24643 -10.24636 -10.24609 -10.24577 -10.24496
 Alpha  occ. eigenvalues --  -10.24460 -10.24328 -10.24259 -10.24255 -10.24204
 Alpha  occ. eigenvalues --  -10.24201 -10.24153 -10.24025 -10.23979 -10.23975
 Alpha  occ. eigenvalues --  -10.23845 -10.23795 -10.23611 -10.23528 -10.23197
 Alpha  occ. eigenvalues --  -10.22980 -10.22374  -1.21794  -1.15625  -1.14516
 Alpha  occ. eigenvalues --   -1.14330  -1.13735  -1.12575  -1.11796  -1.11670
 Alpha  occ. eigenvalues --   -1.11333  -1.11244  -1.10974  -1.10801  -1.10148
 Alpha  occ. eigenvalues --   -1.09048  -1.08587  -1.08300  -1.08264  -1.03610
 Alpha  occ. eigenvalues --   -1.03270  -1.02942  -1.02368  -1.02216  -1.02012
 Alpha  occ. eigenvalues --   -1.00734  -1.00327  -1.00059  -0.99574  -0.98697
 Alpha  occ. eigenvalues --   -0.97989  -0.97486  -0.95743  -0.95565  -0.95133
 Alpha  occ. eigenvalues --   -0.91952  -0.91100  -0.90785  -0.90707  -0.89919
 Alpha  occ. eigenvalues --   -0.88736  -0.87768  -0.87417  -0.86812  -0.86168
 Alpha  occ. eigenvalues --   -0.85296  -0.84613  -0.83714  -0.83550  -0.83396
 Alpha  occ. eigenvalues --   -0.82444  -0.81293  -0.80871  -0.80646  -0.80375
 Alpha  occ. eigenvalues --   -0.80115  -0.79668  -0.79661  -0.79457  -0.78416
 Alpha  occ. eigenvalues --   -0.78151  -0.76971  -0.76865  -0.75906  -0.75526
 Alpha  occ. eigenvalues --   -0.74489  -0.73717  -0.73157  -0.72771  -0.72488
 Alpha  occ. eigenvalues --   -0.72232  -0.71992  -0.71525  -0.71310  -0.70790
 Alpha  occ. eigenvalues --   -0.70377  -0.69354  -0.69188  -0.68167  -0.67883
 Alpha  occ. eigenvalues --   -0.67758  -0.67608  -0.67479  -0.67089  -0.66603
 Alpha  occ. eigenvalues --   -0.66050  -0.65833  -0.65482  -0.65390  -0.65002
 Alpha  occ. eigenvalues --   -0.64780  -0.64615  -0.64459  -0.63912  -0.63647
 Alpha  occ. eigenvalues --   -0.63532  -0.63157  -0.62838  -0.62726  -0.62641
 Alpha  occ. eigenvalues --   -0.62550  -0.62204  -0.62017  -0.61387  -0.61211
 Alpha  occ. eigenvalues --   -0.60662  -0.60651  -0.60567  -0.60033  -0.59908
 Alpha  occ. eigenvalues --   -0.59857  -0.59782  -0.59235  -0.58636  -0.58510
 Alpha  occ. eigenvalues --   -0.57942  -0.57769  -0.57557  -0.57147  -0.56481
 Alpha  occ. eigenvalues --   -0.56347  -0.56143  -0.55723  -0.55536  -0.55512
 Alpha  occ. eigenvalues --   -0.55293  -0.55102  -0.54925  -0.54778  -0.54399
 Alpha  occ. eigenvalues --   -0.54335  -0.54305  -0.53747  -0.53351  -0.53068
 Alpha  occ. eigenvalues --   -0.52608  -0.52285  -0.52238  -0.52050  -0.51992
 Alpha  occ. eigenvalues --   -0.51953  -0.51588  -0.51515  -0.51052  -0.51002
 Alpha  occ. eigenvalues --   -0.50869  -0.50824  -0.50557  -0.50500  -0.50231
 Alpha  occ. eigenvalues --   -0.50108  -0.49730  -0.49567  -0.49502  -0.49336
 Alpha  occ. eigenvalues --   -0.49284  -0.49217  -0.49034  -0.48975  -0.48906
 Alpha  occ. eigenvalues --   -0.48738  -0.48574  -0.48221  -0.48122  -0.48040
 Alpha  occ. eigenvalues --   -0.47852  -0.47838  -0.47769  -0.47531  -0.47486
 Alpha  occ. eigenvalues --   -0.47240  -0.47202  -0.46924  -0.46796  -0.46754
 Alpha  occ. eigenvalues --   -0.46600  -0.46583  -0.46340  -0.46147  -0.45995
 Alpha  occ. eigenvalues --   -0.45881  -0.45762  -0.45525  -0.45420  -0.45363
 Alpha  occ. eigenvalues --   -0.45230  -0.44995  -0.44800  -0.44725  -0.44589
 Alpha  occ. eigenvalues --   -0.44454  -0.44401  -0.44203  -0.44130  -0.44108
 Alpha  occ. eigenvalues --   -0.43978  -0.43688  -0.43550  -0.43381  -0.43122
 Alpha  occ. eigenvalues --   -0.42973  -0.42787  -0.42776  -0.42497  -0.42205
 Alpha  occ. eigenvalues --   -0.42109  -0.41791  -0.41526  -0.40995  -0.40987
 Alpha  occ. eigenvalues --   -0.40917  -0.40810  -0.40791  -0.40647  -0.40534
 Alpha  occ. eigenvalues --   -0.40447  -0.40288  -0.39930  -0.39870  -0.39470
 Alpha  occ. eigenvalues --   -0.39399  -0.39377  -0.39333  -0.39083  -0.39002
 Alpha  occ. eigenvalues --   -0.38796  -0.38687  -0.38462  -0.38253  -0.38230
 Alpha  occ. eigenvalues --   -0.38007  -0.37917  -0.37611  -0.37282  -0.37011
 Alpha  occ. eigenvalues --   -0.36425  -0.36084  -0.35843  -0.35637  -0.35216
 Alpha  occ. eigenvalues --   -0.34948  -0.34648  -0.34365  -0.33322  -0.32840
 Alpha  occ. eigenvalues --   -0.32686  -0.32047  -0.31790  -0.31620  -0.31355
 Alpha  occ. eigenvalues --   -0.31265  -0.31047  -0.30825  -0.30750  -0.30370
 Alpha  occ. eigenvalues --   -0.30302  -0.30040  -0.29855  -0.29806  -0.29342
 Alpha  occ. eigenvalues --   -0.28642  -0.27204  -0.26874  -0.22811  -0.22643
 Alpha  occ. eigenvalues --   -0.20651
 Alpha virt. eigenvalues --   -0.16042  -0.12314  -0.10035  -0.09968  -0.09036
 Alpha virt. eigenvalues --   -0.08157  -0.07156  -0.06616  -0.06206  -0.06109
 Alpha virt. eigenvalues --   -0.05929  -0.05581  -0.05464  -0.05374  -0.05208

 Mulliken charges:
               1
     1  N   -0.768061
     2  H    0.351938
     3  H    0.445385
     4  H    0.323533
     5  C   -0.087711
     6  H    0.172288
     7  C    0.633308
     8  C   -0.402324
     9  H    0.178739
    10  H    0.179745
    11  O   -0.541377
    12  C    0.594227
    13  O   -0.465829
    14  O   -0.589783
    15  N   -0.624149
    16  H    0.368801
    17  C   -0.014084
    18  H    0.172962
    19  C    0.609889
    20  C   -0.356166
    21  H    0.161202
    22  H    0.185248
    23  O   -0.542466
    24  C    0.150890
    25  C   -0.191031
    26  H    0.143836
    27  C   -0.209760
    28  H    0.148360
    29  C   -0.168336
    30  H    0.141754
    31  C   -0.173596
    32  H    0.127272
    33  O   -0.653588
    34  H    0.412877
    35  C    0.365471
    36  N   -0.604533
    37  H    0.358711
    38  C   -0.037538
    39  H    0.177451
    40  C    0.639431
    41  C   -0.353385
    42  H    0.156058
    43  H    0.201679
    44  O   -0.576504
    45  C    0.137478
    46  C   -0.199736
    47  H    0.133124
    48  C   -0.216697
    49  H    0.157183
    50  C   -0.147266
    51  H    0.148920
    52  C   -0.195802
    53  H    0.133269
    54  O   -0.636601
    55  H    0.412056
    56  C    0.344644
    57  N   -0.602931
    58  H    0.354564
    59  C   -0.070287
    60  H    0.202317
    61  C    0.651919
    62  C   -0.378309
    63  H    0.166370
    64  H    0.167952
    65  O   -0.556159
    66  C    0.152228
    67  C   -0.171916
    68  H    0.146476
    69  C   -0.200128
    70  H    0.164671
    71  C   -0.139502
    72  H    0.134565
    73  C   -0.140139
    74  H    0.133685
    75  C   -0.131751
    76  H    0.132520
    77  N   -0.622002
    78  H    0.384834
    79  C   -0.060091
    80  H    0.180266
    81  C    0.630215
    82  C   -0.472245
    83  H    0.168066
    84  H    0.166147
    85  H    0.177769
    86  O   -0.555297
    87  N   -0.627437
    88  H    0.391038
    89  C   -0.054360
    90  H    0.173096
    91  C    0.634376
    92  C   -0.294919
    93  H    0.171389
    94  H    0.162054
    95  O   -0.564494
    96  C   -0.066498
    97  H    0.107154
    98  C   -0.459098
    99  H    0.162460
   100  H    0.135505
   101  H    0.140318
   102  C   -0.457725
   103  H    0.157876
   104  H    0.130919
   105  H    0.147917
   106  N   -0.622864
   107  H    0.393861
   108  C   -0.063205
   109  H    0.186445
   110  C    0.640890
   111  C   -0.465193
   112  H    0.168022
   113  H    0.170914
   114  H    0.167248
   115  O   -0.554811
   116  N   -0.640481
   117  H    0.395453
   118  C    0.006423
   119  H    0.138320
   120  C    0.629395
   121  C   -0.392547
   122  H    0.224002
   123  H    0.198271
   124  O   -0.517533
   125  C    0.307896
   126  C    0.009402
   127  H    0.239329
   128  N   -0.587940
   129  H    0.390506
   130  C    0.341510
   131  H    0.267132
   132  N   -0.544444
   133  N   -0.627260
   134  H    0.348641
   135  C   -0.094875
   136  H    0.192261
   137  C    0.616020
   138  C    0.094565
   139  H    0.216969
   140  O   -0.553459
   141  C   -0.473231
   142  H    0.168418
   143  H    0.180806
   144  H    0.159713
   145  O   -0.665169
   146  H    0.434747
   147  N   -0.600840
   148  H    0.345046
   149  C   -0.076297
   150  H    0.158571
   151  C    0.612694
   152  C   -0.091367
   153  H    0.153500
   154  O   -0.589014
   155  C   -0.470214
   156  H    0.145169
   157  H    0.213311
   158  H    0.156672
   159  C   -0.461715
   160  H    0.119050
   161  H    0.183728
   162  H    0.130255
   163  N   -0.593531
   164  H    0.363180
   165  C   -0.086710
   166  H    0.155148
   167  C    0.593499
   168  C   -0.258408
   169  H    0.139079
   170  H    0.168564
   171  O   -0.571571
   172  C   -0.285057
   173  H    0.143373
   174  H    0.168686
   175  C   -0.158965
   176  H    0.161229
   177  H    0.185102
   178  N   -0.607615
   179  H    0.401535
   180  N   -0.750246
   181  H    0.376701
   182  H    0.383366
   183  N   -0.782970
   184  H    0.364398
   185  H    0.400517
   186  C    0.776882
   187  O   -0.619679
   188  H    0.406012
 Sum of Mulliken charges =   1.00000

 Dipole moment (field-independent basis, Debye):
    X=              7.8139    Y=             -5.3797    Z=              2.9575  Tot=              9.9370
 Quadrupole moment (field-independent basis, Debye-Ang):
   XX=           -428.5625   YY=           -569.3072   ZZ=           -488.6907
   XY=            -58.1598   XZ=            -26.7862   YZ=           -151.7568

 Normal termination of Gaussian 16 at Tue Aug  9 09:42:42 2022.
