 Gaussian 16, Revision C.01,
 Gaussian 16:  ES64L-G16RevC.01  3-Jul-2019

 ----------------------------------------------------------------------
 # B3LYP/6-31G* empiricaldispersion=gd3 guess=read geom=check nosymm in
 tegral(ultrafinegrid)
 ----------------------------------------------------------------------

 ------------------------------------------------------
 Candidate Structure: Conf:204 Charge calc in gas phase
 ------------------------------------------------------
 Structure from the checkpoint file:  "conf-204.chk"
 Charge =  1 Multiplicity = 1

                          Input orientation:
 ---------------------------------------------------------------------
 Center     Atomic      Atomic             Coordinates (Angstroms)
 Number     Number       Type             X           Y           Z
 ---------------------------------------------------------------------
      1          7           0       -0.346338   -4.210035  -11.825854
      2          1           0       -1.132742   -4.336312  -12.460489
      3          1           0       -0.288185   -2.545011  -11.311219
      4          1           0        0.475427   -4.677891  -12.198277
      5          6           0       -0.693106   -4.705428  -10.485484
      6          1           0       -0.484005   -5.779065  -10.360607
      7          6           0       -2.204542   -4.486749  -10.281304
      8          6           0        0.131902   -3.929658   -9.421344
      9          1           0       -0.096016   -4.261021   -8.405971
     10          1           0        1.195725   -4.138154   -9.597458
     11          8           0       -2.875173   -3.889150  -11.112095
     12          6           0       -0.039906   -2.401498   -9.423993
     13          8           0        0.052722   -1.752885   -8.401115
     14          8           0       -0.264240   -1.826604  -10.606115
     15          7           0       -2.720747   -4.986687   -9.109892
     16          1           0       -2.034106   -5.287823   -8.424584
     17          6           0       -3.809601   -4.241575   -8.468213
     18          1           0       -4.418696   -3.818273   -9.268374
     19          6           0       -3.111601   -3.129728   -7.653120
     20          6           0       -4.689817   -5.117257   -7.548592
     21          1           0       -4.043620   -5.727727   -6.908230
     22          1           0       -5.287351   -5.794821   -8.168647
     23          8           0       -2.195918   -3.427863   -6.887568
     24          6           0       -5.528029   -4.177241   -6.709309
     25          6           0       -5.153755   -3.885007   -5.393557
     26          1           0       -4.391551   -4.489267   -4.909229
     27          6           0       -6.509123   -3.377931   -7.316101
     28          1           0       -6.838077   -3.606206   -8.328325
     29          6           0       -5.659088   -2.764560   -4.734129
     30          1           0       -5.320336   -2.507644   -3.735704
     31          6           0       -7.008832   -2.250005   -6.671722
     32          1           0       -7.719965   -1.591890   -7.161617
     33          8           0       -6.861575   -0.687709   -4.839504
     34          1           0       -6.439942   -0.031522   -5.436205
     35          6           0       -6.532136   -1.907277   -5.401743
     36          7           0       -3.509262   -1.860892   -7.917680
     37          1           0       -4.368007   -1.710987   -8.430421
     38          6           0       -2.868023   -0.696051   -7.338848
     39          1           0       -1.953205   -1.055333   -6.863433
     40          6           0       -3.793483   -0.011963   -6.330112
     41          6           0       -2.501042    0.337997   -8.436108
     42          1           0       -3.421858    0.630278   -8.954559
     43          1           0       -1.843363   -0.162552   -9.151359
     44          8           0       -4.959581    0.273508   -6.630547
     45          6           0       -1.828495    1.545619   -7.824553
     46          6           0       -2.551819    2.707193   -7.522389
     47          1           0       -3.600163    2.769841   -7.804089
     48          6           0       -0.481232    1.480287   -7.445195
     49          1           0        0.089094    0.585765   -7.682206
     50          6           0       -1.958962    3.774389   -6.850763
     51          1           0       -2.515990    4.677458   -6.621792
     52          6           0        0.119720    2.537644   -6.763858
     53          1           0        1.163714    2.469980   -6.462476
     54          8           0       -0.096100    4.740763   -5.754149
     55          1           0        0.839152    4.558911   -5.572563
     56          6           0       -0.623001    3.680614   -6.456978
     57          7           0       -3.225326    0.313941   -5.145690
     58          1           0       -2.224415    0.192413   -5.035204
     59          6           0       -3.842412    1.251373   -4.226182
     60          1           0       -4.694153    1.701583   -4.743086
     61          6           0       -2.797260    2.315594   -3.879564
     62          6           0       -4.354870    0.548420   -2.936480
     63          1           0       -4.991159   -0.274177   -3.270104
     64          1           0       -3.490861    0.126932   -2.408401
     65          8           0       -1.602107    2.007976   -3.772991
     66          6           0       -5.136473    1.493936   -2.055318
     67          6           0       -4.503628    2.232916   -1.047570
     68          1           0       -3.449065    2.062952   -0.853940
     69          6           0       -6.497709    1.721475   -2.304467
     70          1           0       -7.003223    1.132073   -3.066056
     71          6           0       -5.197641    3.198952   -0.318895
     72          1           0       -4.677798    3.785538    0.432974
     73          6           0       -7.199119    2.679997   -1.569480
     74          1           0       -8.254666    2.843919   -1.768886
     75          6           0       -6.550248    3.426745   -0.582500
     76          1           0       -7.096037    4.179846   -0.020959
     77          7           0       -3.266870    3.562376   -3.662686
     78          1           0       -4.269260    3.692683   -3.606570
     79          6           0       -2.418016    4.697952   -3.278300
     80          1           0       -1.501692    4.621685   -3.872448
     81          6           0       -2.053944    4.589293   -1.783125
     82          6           0       -3.135095    6.006235   -3.583852
     83          1           0       -2.491045    6.853581   -3.336034
     84          1           0       -3.385553    6.056443   -4.647334
     85          1           0       -4.046812    6.098430   -2.985148
     86          8           0       -2.549815    5.323024   -0.920438
     87          7           0       -1.161902    3.608235   -1.496096
     88          1           0       -0.915718    2.982682   -2.265957
     89          6           0       -0.980554    3.116188   -0.128645
     90          1           0       -1.940964    3.250326    0.383926
     91          6           0        0.047824    3.973686    0.637830
     92          6           0       -0.590587    1.634920   -0.160079
     93          1           0       -1.278481    1.122010   -0.845809
     94          1           0        0.413351    1.551026   -0.591913
     95          8           0        1.119044    3.519413    1.053998
     96          6           0       -0.610306    0.915146    1.202237
     97          1           0        0.152928    1.390851    1.828162
     98          6           0       -1.971208    1.028422    1.908143
     99          1           0       -2.788125    0.699014    1.254249
    100          1           0       -2.001098    0.394348    2.803783
    101          1           0       -2.194134    2.054975    2.222437
    102          6           0       -0.220736   -0.557193    1.010372
    103          1           0       -0.960947   -1.084172    0.395459
    104          1           0       -0.162443   -1.079588    1.973921
    105          1           0        0.753038   -0.651491    0.516600
    106          7           0       -0.341328    5.249637    0.855423
    107          1           0       -1.229707    5.552617    0.449020
    108          6           0        0.486934    6.191389    1.593758
    109          1           0        1.343022    6.496972    0.976075
    110          6           0        1.004243    5.476460    2.848646
    111          6           0       -0.343102    7.417545    1.983258
    112          1           0        0.279923    8.153073    2.500624
    113          1           0       -1.159555    7.117405    2.646179
    114          1           0       -0.762915    7.890398    1.089698
    115          8           0        0.197004    4.946817    3.635699
    116          7           0        2.330264    5.483735    3.045406
    117          1           0        2.947185    5.861862    2.331748
    118          6           0        3.016447    4.641209    4.005356
    119          1           0        2.489590    4.684275    4.963442
    120          6           0        4.451198    5.177162    4.130880
    121          6           0        3.156548    3.158173    3.497281
    122          1           0        4.155798    2.774115    3.729514
    123          1           0        3.059232    3.180627    2.407274
    124          8           0        4.975118    5.772531    3.193893
    125          6           0        2.160700    2.188378    4.041114
    126          6           0        2.304375    0.866198    4.369045
    127          1           0        3.172956    0.227247    4.354344
    128          7           0        0.826968    2.493278    4.248515
    129          1           0        0.439495    3.462726    4.057028
    130          6           0        0.171974    1.418673    4.672441
    131          1           0       -0.879786    1.362068    4.902768
    132          7           0        1.053534    0.411174    4.751583
    133          7           0        5.091675    4.837526    5.274172
    134          1           0        4.638456    4.186171    5.909559
    135          6           0        6.548215    4.704518    5.296729
    136          1           0        7.010455    5.680996    5.128789
    137          6           0        6.951244    3.689182    4.211450
    138          6           0        6.940640    4.137340    6.688211
    139          1           0        8.001756    3.847351    6.636058
    140          8           0        6.447716    2.548656    4.236826
    141          6           0        6.745202    5.145465    7.811512
    142          1           0        7.402930    6.009975    7.675035
    143          1           0        5.709064    5.496967    7.843595
    144          1           0        6.978676    4.672505    8.769419
    145          8           0        6.125988    3.001868    6.973677
    146          1           0        6.214932    2.409959    6.196997
    147          7           0        7.829718    4.102119    3.297234
    148          1           0        8.250720    5.024543    3.355018
    149          6           0        8.338965    3.286183    2.205195
    150          1           0        8.305939    2.239335    2.522262
    151          6           0        9.790821    3.736923    1.959530
    152          6           0        7.505829    3.449046    0.897255
    153          1           0        8.009775    2.828403    0.143750
    154          8           0       10.178873    4.840996    2.357207
    155          6           0        6.072866    2.929479    1.074036
    156          1           0        5.512175    3.588615    1.744106
    157          1           0        6.053383    1.918079    1.492627
    158          1           0        5.556303    2.917705    0.107450
    159          6           0        7.492267    4.903608    0.404018
    160          1           0        6.974308    5.547382    1.124801
    161          1           0        6.956800    4.970848   -0.549115
    162          1           0        8.501402    5.299495    0.254040
    163          7           0       10.535737    2.869154    1.252713
    164          1           0       10.085362    2.085718    0.773334
    165          6           0       11.744801    3.248800    0.533492
    166          1           0       11.553299    4.183254   -0.013206
    167          6           0       12.006841    2.072654   -0.508954
    168          6           0       13.015503    3.375032    1.350566
    169          1           0       13.282409    2.344657    1.602684
    170          1           0       13.736979    3.715228    0.603771
    171          8           0       10.990409    1.477681   -0.899476
    172          6           0       13.218175    4.214897    2.607964
    173          1           0       12.689275    3.772594    3.459037
    174          1           0       12.828659    5.230466    2.495841
    175          6           0       14.753301    4.279294    2.887979
    176          1           0       14.972522    4.397779    3.952289
    177          1           0       15.193919    5.130223    2.361528
    178          7           0       15.473801    3.062146    2.398492
    179          1           0       14.991243    2.198686    2.621436
    180          7           0       16.995398    3.909094    0.881840
    181          1           0       17.290724    4.097612   -0.065036
    182          1           0       17.464125    4.390571    1.635846
    183          7           0       15.658127    2.099991    0.255579
    184          1           0       16.266207    1.977707   -0.547217
    185          1           0       14.620781    1.922329    0.010066
    186          6           0       16.024963    3.014263    1.151607
    187          8           0       13.221206    1.840696   -0.814571
    188          1           0        0.831268   -0.530777    5.046788
 ---------------------------------------------------------------------

 SCF Done:  E(RB3LYP) =  -4648.74825955     A.U. after    2 cycles

 Alpha  occ. eigenvalues --  -19.22690 -19.22026 -19.21282 -19.21208 -19.20571
 Alpha  occ. eigenvalues --  -19.19736 -19.19386 -19.19361 -19.19190 -19.19185
 Alpha  occ. eigenvalues --  -19.17602 -19.17496 -19.16818 -19.16110 -19.15651
 Alpha  occ. eigenvalues --  -19.11916 -19.11092 -14.54736 -14.51779 -14.47815
 Alpha  occ. eigenvalues --  -14.45773 -14.45663 -14.44522 -14.44389 -14.43475
 Alpha  occ. eigenvalues --  -14.43261 -14.43020 -14.42601 -14.41661 -14.40859
 Alpha  occ. eigenvalues --  -14.40542 -14.39522 -14.39501 -10.42514 -10.40813
 Alpha  occ. eigenvalues --  -10.38842 -10.38048 -10.36298 -10.36256 -10.35858
 Alpha  occ. eigenvalues --  -10.35846 -10.35719 -10.35447 -10.34925 -10.34348
 Alpha  occ. eigenvalues --  -10.34146 -10.34035 -10.33500 -10.32852 -10.32085
 Alpha  occ. eigenvalues --  -10.31715 -10.31109 -10.30870 -10.30585 -10.29943
 Alpha  occ. eigenvalues --  -10.29765 -10.29757 -10.29539 -10.29489 -10.28921
 Alpha  occ. eigenvalues --  -10.28833 -10.27855 -10.27671 -10.27329 -10.26442
 Alpha  occ. eigenvalues --  -10.26179 -10.25782 -10.25652 -10.25344 -10.25188
 Alpha  occ. eigenvalues --  -10.24950 -10.24942 -10.24822 -10.24722 -10.24702
 Alpha  occ. eigenvalues --  -10.24364 -10.24298 -10.24241 -10.24093 -10.24076
 Alpha  occ. eigenvalues --  -10.24039 -10.23796 -10.23712 -10.23451 -10.23178
 Alpha  occ. eigenvalues --  -10.22870 -10.22866 -10.22817 -10.22695 -10.22664
 Alpha  occ. eigenvalues --  -10.22585 -10.22577 -10.22525 -10.22360 -10.22347
 Alpha  occ. eigenvalues --  -10.22276 -10.21954  -1.18278  -1.14064  -1.13131
 Alpha  occ. eigenvalues --   -1.12074  -1.11495  -1.11164  -1.11001  -1.10753
 Alpha  occ. eigenvalues --   -1.10373  -1.10330  -1.09541  -1.09135  -1.08768
 Alpha  occ. eigenvalues --   -1.08252  -1.07548  -1.07108  -1.04774  -1.04707
 Alpha  occ. eigenvalues --   -1.03834  -1.02642  -1.01166  -1.00359  -1.00225
 Alpha  occ. eigenvalues --   -0.99923  -0.99618  -0.99107  -0.98610  -0.98325
 Alpha  occ. eigenvalues --   -0.97645  -0.96961  -0.96859  -0.95898  -0.95551
 Alpha  occ. eigenvalues --   -0.92038  -0.90880  -0.89329  -0.89166  -0.88712
 Alpha  occ. eigenvalues --   -0.87884  -0.86396  -0.85738  -0.85327  -0.85035
 Alpha  occ. eigenvalues --   -0.84202  -0.83874  -0.83263  -0.82432  -0.81365
 Alpha  occ. eigenvalues --   -0.81217  -0.80178  -0.79802  -0.79560  -0.79557
 Alpha  occ. eigenvalues --   -0.78898  -0.78546  -0.78401  -0.78394  -0.77125
 Alpha  occ. eigenvalues --   -0.76158  -0.76027  -0.75666  -0.74171  -0.73794
 Alpha  occ. eigenvalues --   -0.73655  -0.73278  -0.72673  -0.71952  -0.71691
 Alpha  occ. eigenvalues --   -0.71659  -0.70814  -0.69973  -0.68976  -0.68687
 Alpha  occ. eigenvalues --   -0.68041  -0.67834  -0.67614  -0.67134  -0.66514
 Alpha  occ. eigenvalues --   -0.66058  -0.65986  -0.65838  -0.65827  -0.65618
 Alpha  occ. eigenvalues --   -0.65175  -0.65138  -0.64858  -0.64289  -0.64217
 Alpha  occ. eigenvalues --   -0.63627  -0.63290  -0.63102  -0.62883  -0.62827
 Alpha  occ. eigenvalues --   -0.62526  -0.62322  -0.62231  -0.61966  -0.61470
 Alpha  occ. eigenvalues --   -0.60537  -0.60497  -0.60194  -0.59975  -0.59847
 Alpha  occ. eigenvalues --   -0.59378  -0.59228  -0.58933  -0.58657  -0.58272
 Alpha  occ. eigenvalues --   -0.58067  -0.57822  -0.57562  -0.57208  -0.56960
 Alpha  occ. eigenvalues --   -0.56821  -0.56672  -0.56406  -0.55866  -0.55450
 Alpha  occ. eigenvalues --   -0.55191  -0.54919  -0.54872  -0.54833  -0.53857
 Alpha  occ. eigenvalues --   -0.53747  -0.53719  -0.53575  -0.53443  -0.53236
 Alpha  occ. eigenvalues --   -0.52811  -0.52657  -0.52384  -0.51969  -0.51915
 Alpha  occ. eigenvalues --   -0.51855  -0.51760  -0.51624  -0.51564  -0.51135
 Alpha  occ. eigenvalues --   -0.51068  -0.50862  -0.50812  -0.50630  -0.50417
 Alpha  occ. eigenvalues --   -0.50084  -0.50005  -0.49913  -0.49678  -0.49404
 Alpha  occ. eigenvalues --   -0.49305  -0.49134  -0.49012  -0.48868  -0.48718
 Alpha  occ. eigenvalues --   -0.48561  -0.48266  -0.48061  -0.47941  -0.47832
 Alpha  occ. eigenvalues --   -0.47645  -0.47477  -0.47455  -0.47374  -0.47281
 Alpha  occ. eigenvalues --   -0.47128  -0.46929  -0.46692  -0.46680  -0.46545
 Alpha  occ. eigenvalues --   -0.46240  -0.46069  -0.45966  -0.45866  -0.45757
 Alpha  occ. eigenvalues --   -0.45661  -0.45533  -0.45346  -0.45333  -0.45279
 Alpha  occ. eigenvalues --   -0.45084  -0.44992  -0.44980  -0.44941  -0.44841
 Alpha  occ. eigenvalues --   -0.44760  -0.44540  -0.44456  -0.44351  -0.44057
 Alpha  occ. eigenvalues --   -0.43980  -0.43800  -0.43480  -0.43359  -0.43249
 Alpha  occ. eigenvalues --   -0.43193  -0.43109  -0.43004  -0.42808  -0.42803
 Alpha  occ. eigenvalues --   -0.42532  -0.42496  -0.42143  -0.41975  -0.41491
 Alpha  occ. eigenvalues --   -0.41345  -0.40704  -0.40675  -0.40655  -0.40539
 Alpha  occ. eigenvalues --   -0.40340  -0.40054  -0.39997  -0.39925  -0.39864
 Alpha  occ. eigenvalues --   -0.39837  -0.39799  -0.39390  -0.39154  -0.39137
 Alpha  occ. eigenvalues --   -0.38919  -0.38911  -0.38815  -0.38530  -0.38464
 Alpha  occ. eigenvalues --   -0.38106  -0.37684  -0.37452  -0.37192  -0.37062
 Alpha  occ. eigenvalues --   -0.36737  -0.36557  -0.36289  -0.35627  -0.35617
 Alpha  occ. eigenvalues --   -0.35385  -0.34933  -0.34604  -0.34499  -0.33678
 Alpha  occ. eigenvalues --   -0.33511  -0.33257  -0.33075  -0.32949  -0.32535
 Alpha  occ. eigenvalues --   -0.32273  -0.32009  -0.31973  -0.31727  -0.31385
 Alpha  occ. eigenvalues --   -0.31294  -0.31046  -0.30529  -0.30095  -0.30006
 Alpha  occ. eigenvalues --   -0.29785  -0.29537  -0.29359  -0.28912  -0.28807
 Alpha  occ. eigenvalues --   -0.28523  -0.27231  -0.26357  -0.26318  -0.25673
 Alpha  occ. eigenvalues --   -0.25329
 Alpha virt. eigenvalues --   -0.12979  -0.09721  -0.09079  -0.08289  -0.06959
 Alpha virt. eigenvalues --   -0.06267  -0.06005  -0.05573  -0.05524  -0.05457
 Alpha virt. eigenvalues --   -0.05129  -0.04673  -0.04620  -0.04273  -0.04190

 Mulliken charges:
               1
     1  N   -0.770647
     2  H    0.352558
     3  H    0.455145
     4  H    0.327716
     5  C   -0.097073
     6  H    0.163802
     7  C    0.607647
     8  C   -0.387007
     9  H    0.200642
    10  H    0.180658
    11  O   -0.501667
    12  C    0.613833
    13  O   -0.476963
    14  O   -0.588086
    15  N   -0.584518
    16  H    0.336268
    17  C   -0.062611
    18  H    0.178254
    19  C    0.630097
    20  C   -0.345732
    21  H    0.153136
    22  H    0.164493
    23  O   -0.553187
    24  C    0.133746
    25  C   -0.174466
    26  H    0.137716
    27  C   -0.207598
    28  H    0.133755
    29  C   -0.159700
    30  H    0.133964
    31  C   -0.153546
    32  H    0.140013
    33  O   -0.705020
    34  H    0.440269
    35  C    0.343084
    36  N   -0.584734
    37  H    0.345600
    38  C   -0.068099
    39  H    0.206049
    40  C    0.658085
    41  C   -0.366221
    42  H    0.149909
    43  H    0.207138
    44  O   -0.582610
    45  C    0.127022
    46  C   -0.194145
    47  H    0.139388
    48  C   -0.205925
    49  H    0.184978
    50  C   -0.174111
    51  H    0.134701
    52  C   -0.180699
    53  H    0.122001
    54  O   -0.658616
    55  H    0.409396
    56  C    0.359093
    57  N   -0.583018
    58  H    0.361609
    59  C   -0.057150
    60  H    0.175691
    61  C    0.652541
    62  C   -0.379167
    63  H    0.207763
    64  H    0.147171
    65  O   -0.573537
    66  C    0.134323
    67  C   -0.195746
    68  H    0.129234
    69  C   -0.207487
    70  H    0.175536
    71  C   -0.134477
    72  H    0.136744
    73  C   -0.131643
    74  H    0.144230
    75  C   -0.135975
    76  H    0.138681
    77  N   -0.588561
    78  H    0.351650
    79  C   -0.080214
    80  H    0.219296
    81  C    0.633178
    82  C   -0.470160
    83  H    0.171613
    84  H    0.168767
    85  H    0.172316
    86  O   -0.554324
    87  N   -0.629381
    88  H    0.388803
    89  C   -0.073780
    90  H    0.179760
    91  C    0.646815
    92  C   -0.294156
    93  H    0.156411
    94  H    0.163311
    95  O   -0.564560
    96  C   -0.090550
    97  H    0.142553
    98  C   -0.466474
    99  H    0.168720
   100  H    0.118854
   101  H    0.145918
   102  C   -0.441992
   103  H    0.156589
   104  H    0.114372
   105  H    0.156025
   106  N   -0.625446
   107  H    0.389478
   108  C   -0.000440
   109  H    0.160559
   110  C    0.663540
   111  C   -0.485155
   112  H    0.172660
   113  H    0.187635
   114  H    0.179346
   115  O   -0.600759
   116  N   -0.577363
   117  H    0.366228
   118  C   -0.087547
   119  H    0.182538
   120  C    0.627412
   121  C   -0.398452
   122  H    0.229594
   123  H    0.249932
   124  O   -0.522986
   125  C    0.330276
   126  C   -0.010091
   127  H    0.224538
   128  N   -0.599251
   129  H    0.452838
   130  C    0.302934
   131  H    0.243261
   132  N   -0.549159
   133  N   -0.590563
   134  H    0.343025
   135  C   -0.072148
   136  H    0.172915
   137  C    0.650191
   138  C    0.105553
   139  H    0.146442
   140  O   -0.592016
   141  C   -0.449248
   142  H    0.155074
   143  H    0.157285
   144  H    0.176614
   145  O   -0.648225
   146  H    0.414056
   147  N   -0.581265
   148  H    0.360527
   149  C   -0.072093
   150  H    0.176703
   151  C    0.624612
   152  C   -0.081059
   153  H    0.161130
   154  O   -0.565032
   155  C   -0.462125
   156  H    0.151896
   157  H    0.146952
   158  H    0.146877
   159  C   -0.476313
   160  H    0.163584
   161  H    0.148082
   162  H    0.166602
   163  N   -0.615761
   164  H    0.358141
   165  C   -0.064816
   166  H    0.154399
   167  C    0.598969
   168  C   -0.266103
   169  H    0.118243
   170  H    0.140871
   171  O   -0.559641
   172  C   -0.272515
   173  H    0.153059
   174  H    0.180877
   175  C   -0.170959
   176  H    0.176037
   177  H    0.165954
   178  N   -0.559573
   179  H    0.358929
   180  N   -0.724504
   181  H    0.371377
   182  H    0.375793
   183  N   -0.741341
   184  H    0.347971
   185  H    0.444102
   186  C    0.687211
   187  O   -0.621651
   188  H    0.387480
 Sum of Mulliken charges =   1.00000

 Dipole moment (field-independent basis, Debye):
    X=             25.9250    Y=             10.9745    Z=             11.4923  Tot=             30.4075
 Quadrupole moment (field-independent basis, Debye-Ang):
   XX=            -76.9629   YY=           -449.0446   ZZ=           -417.6724
   XY=            129.4523   XZ=             87.4879   YZ=             83.5115

 Normal termination of Gaussian 16 at Tue Aug  9 09:41:36 2022.
