 Gaussian 16, Revision C.01,
 Gaussian 16:  ES64L-G16RevC.01  3-Jul-2019

 -------------------------------------------------------------------
 # B3LYP/6-31G* guess=read geom=check nosymm integral(ultrafinegrid)
 -------------------------------------------------------------------

 ------------------------------------------------------
 Candidate Structure: Conf:684 Charge calc in gas phase
 ------------------------------------------------------
 Structure from the checkpoint file:  "conf-684.chk"
 Charge =  1 Multiplicity = 1

                          Input orientation:
 ---------------------------------------------------------------------
 Center     Atomic      Atomic             Coordinates (Angstroms)
 Number     Number       Type             X           Y           Z
 ---------------------------------------------------------------------
      1          7           0       -2.317741   -1.063737    4.966361
      2          1           0       -2.331305   -2.049774    4.710994
      3          1           0       -1.335350   -0.796753    4.916286
      4          6           0       -3.075695   -0.299896    3.986311
      5          1           0       -4.076849   -0.749816    3.928420
      6          6           0       -2.469668   -0.371059    2.565624
      7          6           0       -3.265265    1.160707    4.450053
      8          1           0       -3.990183    1.677222    3.811918
      9          1           0       -3.704972    1.124633    5.451619
     10          8           0       -1.456383   -1.037421    2.323752
     11          6           0       -1.976453    1.992231    4.480984
     12          1           0       -1.435548    1.917681    3.525572
     13          1           0       -1.290063    1.659125    5.265145
     14          6           0       -2.274695    3.465749    4.676651
     15          8           0       -3.296132    4.024749    4.338213
     16          8           0       -1.238797    4.115791    5.251892
     17          7           0       -3.086806    0.352485    1.599105
     18          1           0       -3.946305    0.844885    1.806262
     19          6           0       -2.601661    0.404503    0.231958
     20          1           0       -2.785700   -0.561907   -0.257018
     21          6           0       -1.093302    0.713899    0.202376
     22          6           0       -3.328469    1.529966   -0.542375
     23          1           0       -2.835982    1.618016   -1.521013
     24          1           0       -3.129902    2.470243   -0.016662
     25          8           0       -0.629882    1.731955    0.691488
     26          6           0       -4.800660    1.318096   -0.726458
     27          6           0       -5.813128    2.090393   -0.204891
     28          1           0       -5.753574    2.960596    0.435777
     29          6           0       -5.436259    0.312395   -1.544455
     30          6           0       -6.838301    0.543647   -1.478587
     31          6           0       -4.968654   -0.759036   -2.329975
     32          1           0       -3.909783   -1.011694   -2.352741
     33          7           0       -7.033547    1.629640   -0.649365
     34          1           0       -7.927803    2.030687   -0.410078
     35          6           0       -7.264425   -1.283525   -2.952363
     36          1           0       -7.955732   -1.914229   -3.503054
     37          6           0       -7.760892   -0.243599   -2.175207
     38          1           0       -8.828448   -0.052286   -2.111438
     39          6           0       -5.880870   -1.542989   -3.026908
     40          1           0       -5.529240   -2.380082   -3.623432
     41          7           0       -0.356959   -0.188300   -0.539329
     42          1           0       -0.708387   -1.142648   -0.529663
     43          6           0        1.092308   -0.165728   -0.468445
     44          1           0        1.385187    0.840468   -0.155447
     45          6           0        1.670312   -0.469228   -1.848631
     46          6           0        1.608328   -1.225417    0.607383
     47          1           0        2.501857   -1.713440    0.201186
     48          8           0        1.013694   -1.081099   -2.710462
     49          6           0        1.965896   -0.547368    1.929622
     50          1           0        2.774246    0.180711    1.795393
     51          1           0        2.298796   -1.301638    2.649315
     52          1           0        1.100254   -0.022104    2.345187
     53          8           0        0.654561   -2.255334    0.766738
     54          1           0       -0.013137   -1.953701    1.415684
     55          7           0        2.935564   -0.041154   -2.045169
     56          1           0        3.395047    0.495053   -1.313141
     57          6           0        3.828968   -0.392802   -3.149238
     58          1           0        4.083935   -1.460456   -3.088202
     59          6           0        5.127819    0.374662   -2.882993
     60          6           0        3.272395   -0.150334   -4.574681
     61          1           0        2.533532   -0.933969   -4.756542
     62          1           0        4.091041   -0.340997   -5.274056
     63          8           0        5.309896    1.084410   -1.917693
     64          6           0        2.669848    1.253511   -4.821185
     65          1           0        2.449625    1.750228   -3.869067
     66          1           0        3.388236    1.890085   -5.348323
     67          6           0        1.374701    1.210827   -5.647782
     68          1           0        1.009362    2.227635   -5.828283
     69          1           0        1.553617    0.734156   -6.620304
     70          7           0        0.354454    0.459780   -4.903739
     71          1           0        0.696189   -0.222049   -4.211257
     72          7           0       -1.566625    1.480207   -5.748134
     73          1           0       -2.522082    1.778071   -5.614921
     74          1           0       -1.140936    1.664053   -6.644231
     75          7           0       -1.645544    0.208270   -3.801935
     76          1           0       -1.139192   -0.236403   -3.036804
     77          1           0       -2.651067    0.101976   -3.839231
     78          6           0       -0.946989    0.712874   -4.831917
     79          8           0        6.043524    0.146812   -3.835340
     80          1           0        6.853479    0.633753   -3.587312
     81          1           0       -1.498929    5.055066    5.310321
 ---------------------------------------------------------------------

 SCF Done:  E(RB3LYP) =  -2053.96109006     A.U. after    1 cycles

 Alpha  occ. eigenvalues --  -19.31040 -19.25681 -19.25373 -19.24145 -19.22020
 Alpha  occ. eigenvalues --  -19.21190 -19.21064 -19.19735 -14.51781 -14.50348
 Alpha  occ. eigenvalues --  -14.50068 -14.48010 -14.46426 -14.45187 -14.45100
 Alpha  occ. eigenvalues --  -14.38046 -10.47351 -10.43705 -10.40785 -10.38148
 Alpha  occ. eigenvalues --  -10.38018 -10.37213 -10.36075 -10.35940 -10.33008
 Alpha  occ. eigenvalues --  -10.32918 -10.32602 -10.31180 -10.30847 -10.30690
 Alpha  occ. eigenvalues --  -10.30347 -10.29894 -10.29073 -10.27638 -10.27177
 Alpha  occ. eigenvalues --  -10.27167 -10.27129 -10.26689 -10.26584 -10.26375
 Alpha  occ. eigenvalues --  -10.25968 -10.25376  -1.22199  -1.16260  -1.16030
 Alpha  occ. eigenvalues --   -1.15353  -1.13450  -1.13345  -1.12125  -1.09968
 Alpha  occ. eigenvalues --   -1.07229  -1.06392  -1.05167  -1.04477  -1.03920
 Alpha  occ. eigenvalues --   -1.01757  -1.01402  -0.95803  -0.92371  -0.92298
 Alpha  occ. eigenvalues --   -0.89640  -0.88505  -0.86227  -0.85525  -0.84168
 Alpha  occ. eigenvalues --   -0.82012  -0.81250  -0.80689  -0.79388  -0.78230
 Alpha  occ. eigenvalues --   -0.78116  -0.75059  -0.74209  -0.73122  -0.72805
 Alpha  occ. eigenvalues --   -0.71407  -0.70710  -0.69754  -0.69225  -0.68052
 Alpha  occ. eigenvalues --   -0.67807  -0.67579  -0.66764  -0.65098  -0.65022
 Alpha  occ. eigenvalues --   -0.64216  -0.64145  -0.63494  -0.62413  -0.61736
 Alpha  occ. eigenvalues --   -0.60672  -0.60331  -0.59645  -0.59591  -0.59078
 Alpha  occ. eigenvalues --   -0.58752  -0.58152  -0.57301  -0.57001  -0.56363
 Alpha  occ. eigenvalues --   -0.55627  -0.55365  -0.54855  -0.54543  -0.54320
 Alpha  occ. eigenvalues --   -0.53943  -0.53722  -0.53537  -0.52969  -0.52959
 Alpha  occ. eigenvalues --   -0.52770  -0.51969  -0.51655  -0.51373  -0.51187
 Alpha  occ. eigenvalues --   -0.51070  -0.50331  -0.50302  -0.49913  -0.48760
 Alpha  occ. eigenvalues --   -0.48667  -0.48486  -0.47932  -0.47605  -0.47559
 Alpha  occ. eigenvalues --   -0.47023  -0.46838  -0.46380  -0.46160  -0.45771
 Alpha  occ. eigenvalues --   -0.45497  -0.44775  -0.44683  -0.43696  -0.43197
 Alpha  occ. eigenvalues --   -0.42743  -0.42460  -0.41914  -0.41861  -0.41701
 Alpha  occ. eigenvalues --   -0.41101  -0.40206  -0.39850  -0.39178  -0.38027
 Alpha  occ. eigenvalues --   -0.37743  -0.37549  -0.36399  -0.36292  -0.35524
 Alpha  occ. eigenvalues --   -0.35293  -0.34180  -0.33607  -0.33453  -0.30973
 Alpha  occ. eigenvalues --   -0.30727  -0.28985
 Alpha virt. eigenvalues --   -0.11515  -0.10919  -0.10018  -0.09871  -0.07973
 Alpha virt. eigenvalues --   -0.07010  -0.06680  -0.05960  -0.04515  -0.03844
 Alpha virt. eigenvalues --   -0.03051  -0.02876  -0.01876  -0.01354  -0.00498

 Mulliken charges:
               1
     1  N   -0.686442
     2  H    0.312628
     3  H    0.308160
     4  C   -0.100676
     5  H    0.166735
     6  C    0.606490
     7  C   -0.263036
     8  H    0.150794
     9  H    0.182379
    10  O   -0.564077
    11  C   -0.381967
    12  H    0.200835
    13  H    0.184916
    14  C    0.584991
    15  O   -0.467007
    16  O   -0.560137
    17  N   -0.593543
    18  H    0.344476
    19  C   -0.012521
    20  H    0.154016
    21  C    0.629768
    22  C   -0.402380
    23  H    0.143331
    24  H    0.190558
    25  O   -0.516309
    26  C    0.051671
    27  C   -0.007135
    28  H    0.177905
    29  C    0.090364
    30  C    0.314642
    31  C   -0.244992
    32  H    0.100117
    33  N   -0.684429
    34  H    0.344366
    35  C   -0.151016
    36  H    0.147342
    37  C   -0.153556
    38  H    0.147057
    39  C   -0.138085
    40  H    0.134331
    41  N   -0.618158
    42  H    0.347571
    43  C   -0.098227
    44  H    0.199924
    45  C    0.628747
    46  C    0.138450
    47  H    0.148147
    48  O   -0.577144
    49  C   -0.487520
    50  H    0.148567
    51  H    0.175984
    52  H    0.181932
    53  O   -0.648859
    54  H    0.445100
    55  N   -0.625305
    56  H    0.374012
    57  C   -0.024098
    58  H    0.212612
    59  C    0.590715
    60  C   -0.313490
    61  H    0.180052
    62  H    0.196330
    63  O   -0.454121
    64  C   -0.295637
    65  H    0.173482
    66  H    0.181273
    67  C   -0.161190
    68  H    0.175930
    69  H    0.185716
    70  N   -0.639638
    71  H    0.434037
    72  N   -0.757050
    73  H    0.381954
    74  H    0.383399
    75  N   -0.792008
    76  H    0.403129
    77  H    0.371219
    78  C    0.799968
    79  O   -0.557844
    80  H    0.437150
    81  H    0.414327
 Sum of Mulliken charges =   1.00000

 Dipole moment (field-independent basis, Debye):
    X=             -3.7695    Y=              5.0144    Z=            -18.2043  Tot=             19.2548
 Quadrupole moment (field-independent basis, Debye-Ang):
   XX=           -130.9609   YY=           -236.1944   ZZ=           -133.3540
   XY=            -10.5222   XZ=             -5.2978   YZ=            -18.0556

 Normal termination of Gaussian 16 at Thu May 26 18:08:20 2022.
