 Gaussian 16, Revision C.01,
 Gaussian 16:  ES64L-G16RevC.01  3-Jul-2019

 -------------------------------------------------------------------
 # B3LYP/6-31G* guess=read geom=check nosymm integral(ultrafinegrid)
 -------------------------------------------------------------------

 ------------------------------------------------------
 Candidate Structure: Conf:669 Charge calc in gas phase
 ------------------------------------------------------
 Structure from the checkpoint file:  "conf-669.chk"
 Charge =  1 Multiplicity = 1

                          Input orientation:
 ---------------------------------------------------------------------
 Center     Atomic      Atomic             Coordinates (Angstroms)
 Number     Number       Type             X           Y           Z
 ---------------------------------------------------------------------
      1          7           0       -3.626236   -1.142663    3.761946
      2          1           0       -2.851171   -1.785619    3.605866
      3          1           0       -3.827876   -1.131346    4.759601
      4          6           0       -3.233025    0.183925    3.303512
      5          1           0       -4.141830    0.789494    3.210805
      6          6           0       -2.626668    0.029544    1.907803
      7          6           0       -2.211757    0.967102    4.202644
      8          1           0       -1.728218    0.245718    4.870109
      9          1           0       -1.405202    1.401748    3.601683
     10          8           0       -1.995850   -0.979645    1.575699
     11          6           0       -2.862522    2.067461    5.045330
     12          1           0       -2.158444    2.473176    5.781818
     13          1           0       -3.705813    1.679224    5.634113
     14          6           0       -3.385952    3.230662    4.228511
     15          8           0       -3.438576    3.295792    3.011479
     16          8           0       -3.814375    4.235528    5.012419
     17          7           0       -2.788620    1.096715    1.080649
     18          1           0       -3.127347    1.962621    1.497666
     19          6           0       -2.225517    1.129390   -0.266234
     20          1           0       -2.230238    0.088066   -0.609288
     21          6           0       -0.731740    1.550293   -0.296602
     22          6           0       -3.092612    1.978293   -1.212219
     23          1           0       -2.428196    2.445691   -1.945068
     24          1           0       -3.529214    2.815909   -0.650139
     25          8           0       -0.306314    2.455558   -1.029552
     26          6           0       -4.160024    1.188259   -1.922928
     27          6           0       -4.850078    0.091745   -1.463436
     28          1           0       -4.793934   -0.406570   -0.505506
     29          6           0       -4.637782    1.426387   -3.262971
     30          6           0       -5.608734    0.421271   -3.556469
     31          6           0       -4.361048    2.404545   -4.241069
     32          1           0       -3.668886    3.215797   -4.027212
     33          7           0       -5.709359   -0.376127   -2.440389
     34          1           0       -6.354132   -1.143091   -2.321067
     35          6           0       -5.968848    1.337379   -5.736314
     36          1           0       -6.491161    1.335599   -6.688970
     37          6           0       -6.272372    0.361341   -4.788274
     38          1           0       -7.022607   -0.399357   -4.988392
     39          6           0       -5.026028    2.352311   -5.463385
     40          1           0       -4.837023    3.116590   -6.211898
     41          7           0        0.062399    0.793039    0.486609
     42          1           0       -0.360034    0.006543    0.981728
     43          6           0        1.514343    0.959078    0.549434
     44          1           0        1.725072    2.032562    0.471159
     45          6           0        2.128716    0.223518   -0.663949
     46          6           0        2.051306    0.420233    1.890974
     47          1           0        1.863980   -0.657435    1.921801
     48          8           0        2.569433   -0.916584   -0.600338
     49          6           0        3.546741    0.676712    2.058015
     50          1           0        4.122362    0.172145    1.277584
     51          1           0        3.875176    0.300599    3.031212
     52          1           0        3.769416    1.751994    2.012315
     53          8           0        1.297283    0.960984    2.977056
     54          1           0        1.571000    1.885814    3.092171
     55          7           0        2.065621    0.934098   -1.830540
     56          1           0        1.553392    1.811150   -1.808864
     57          6           0        2.357658    0.295479   -3.096952
     58          1           0        2.064164   -0.759666   -3.013077
     59          6           0        3.847339    0.243413   -3.466864
     60          6           0        1.591717    0.944039   -4.266170
     61          1           0        1.876984    0.382441   -5.163120
     62          1           0        1.955228    1.970832   -4.414391
     63          8           0        4.234099   -0.240714   -4.509186
     64          6           0        0.067334    0.976778   -4.081978
     65          1           0       -0.309241   -0.017370   -3.804955
     66          1           0       -0.195699    1.649044   -3.258496
     67          6           0       -0.666718    1.465337   -5.339478
     68          1           0       -1.673183    1.822184   -5.108095
     69          1           0       -0.140289    2.312443   -5.791938
     70          7           0       -0.786105    0.432426   -6.386860
     71          1           0        0.065493    0.182501   -6.874345
     72          7           0       -2.950604   -0.284717   -5.858414
     73          1           0       -3.856231   -0.525899   -6.242647
     74          1           0       -3.009071    0.326899   -5.051013
     75          7           0       -1.867158   -1.133638   -7.709080
     76          1           0       -1.113201   -1.123503   -8.380704
     77          1           0       -2.526154   -1.896739   -7.768930
     78          6           0       -1.863431   -0.315826   -6.637036
     79          8           0        4.660526    0.778497   -2.542971
     80          1           0        5.571491    0.654526   -2.873115
     81          1           0       -4.147841    4.939505    4.423582
 ---------------------------------------------------------------------

 SCF Done:  E(RB3LYP) =  -2053.94767240     A.U. after    2 cycles

 Alpha  occ. eigenvalues --  -19.27541 -19.27237 -19.22661 -19.21630 -19.21310
 Alpha  occ. eigenvalues --  -19.20498 -19.19492 -19.18959 -14.53181 -14.52852
 Alpha  occ. eigenvalues --  -14.51835 -14.47348 -14.43790 -14.43562 -14.43329
 Alpha  occ. eigenvalues --  -14.37337 -10.49170 -10.40549 -10.39603 -10.37058
 Alpha  occ. eigenvalues --  -10.36311 -10.36138 -10.35999 -10.32512 -10.31837
 Alpha  occ. eigenvalues --  -10.31724 -10.30894 -10.30866 -10.30633 -10.30184
 Alpha  occ. eigenvalues --  -10.29763 -10.29156 -10.29090 -10.28737 -10.28542
 Alpha  occ. eigenvalues --  -10.28394 -10.28220 -10.27855 -10.27776 -10.27511
 Alpha  occ. eigenvalues --  -10.26046 -10.24046  -1.18773  -1.18182  -1.17499
 Alpha  occ. eigenvalues --   -1.12157  -1.11148  -1.10725  -1.09641  -1.09052
 Alpha  occ. eigenvalues --   -1.08931  -1.07320  -1.06915  -1.05401  -1.00779
 Alpha  occ. eigenvalues --   -1.00417  -0.99534  -0.94999  -0.93774  -0.91462
 Alpha  occ. eigenvalues --   -0.89555  -0.86744  -0.86524  -0.85224  -0.84117
 Alpha  occ. eigenvalues --   -0.83256  -0.81143  -0.80966  -0.78623  -0.78142
 Alpha  occ. eigenvalues --   -0.77506  -0.74889  -0.74255  -0.72856  -0.71925
 Alpha  occ. eigenvalues --   -0.71477  -0.70644  -0.70103  -0.68779  -0.67547
 Alpha  occ. eigenvalues --   -0.66679  -0.66044  -0.65877  -0.65780  -0.65462
 Alpha  occ. eigenvalues --   -0.65007  -0.64362  -0.63423  -0.61482  -0.61336
 Alpha  occ. eigenvalues --   -0.60494  -0.59394  -0.59306  -0.58078  -0.57849
 Alpha  occ. eigenvalues --   -0.57688  -0.57266  -0.56755  -0.56514  -0.56020
 Alpha  occ. eigenvalues --   -0.55833  -0.55220  -0.54975  -0.54751  -0.54287
 Alpha  occ. eigenvalues --   -0.53403  -0.52825  -0.52507  -0.52237  -0.51861
 Alpha  occ. eigenvalues --   -0.51387  -0.51111  -0.50819  -0.50365  -0.50195
 Alpha  occ. eigenvalues --   -0.49883  -0.49574  -0.49105  -0.48677  -0.48483
 Alpha  occ. eigenvalues --   -0.48117  -0.47712  -0.47298  -0.46911  -0.46388
 Alpha  occ. eigenvalues --   -0.46092  -0.45703  -0.45507  -0.45067  -0.44495
 Alpha  occ. eigenvalues --   -0.44078  -0.44041  -0.43925  -0.43647  -0.43536
 Alpha  occ. eigenvalues --   -0.43316  -0.42940  -0.42876  -0.42752  -0.41945
 Alpha  occ. eigenvalues --   -0.41354  -0.39975  -0.39327  -0.39062  -0.37318
 Alpha  occ. eigenvalues --   -0.36464  -0.36437  -0.36046  -0.35451  -0.34176
 Alpha  occ. eigenvalues --   -0.33244  -0.32603  -0.32239  -0.32008  -0.31311
 Alpha  occ. eigenvalues --   -0.29768  -0.29506
 Alpha virt. eigenvalues --   -0.13137  -0.11319  -0.09028  -0.07798  -0.07370
 Alpha virt. eigenvalues --   -0.07282  -0.06684  -0.05420  -0.05075  -0.04515
 Alpha virt. eigenvalues --   -0.03840  -0.03114  -0.02902  -0.00654  -0.00300

 Mulliken charges:
               1
     1  N   -0.719486
     2  H    0.321644
     3  H    0.299277
     4  C   -0.055995
     5  H    0.153591
     6  C    0.603666
     7  C   -0.288326
     8  H    0.162352
     9  H    0.174693
    10  O   -0.550984
    11  C   -0.368613
    12  H    0.196133
    13  H    0.189931
    14  C    0.593626
    15  O   -0.487527
    16  O   -0.547100
    17  N   -0.622221
    18  H    0.388285
    19  C   -0.071090
    20  H    0.189216
    21  C    0.617162
    22  C   -0.368125
    23  H    0.172209
    24  H    0.176729
    25  O   -0.560987
    26  C    0.068988
    27  C    0.007994
    28  H    0.191957
    29  C    0.036179
    30  C    0.324268
    31  C   -0.256652
    32  H    0.147885
    33  N   -0.688413
    34  H    0.345111
    35  C   -0.182127
    36  H    0.147853
    37  C   -0.187671
    38  H    0.148935
    39  C   -0.144384
    40  H    0.143867
    41  N   -0.604144
    42  H    0.391082
    43  C   -0.073776
    44  H    0.160850
    45  C    0.633393
    46  C    0.118290
    47  H    0.175303
    48  O   -0.519291
    49  C   -0.483685
    50  H    0.186210
    51  H    0.175146
    52  H    0.135154
    53  O   -0.619654
    54  H    0.389639
    55  N   -0.623589
    56  H    0.364753
    57  C   -0.026635
    58  H    0.199164
    59  C    0.604188
    60  C   -0.314388
    61  H    0.160260
    62  H    0.163312
    63  O   -0.469451
    64  C   -0.293334
    65  H    0.153858
    66  H    0.207077
    67  C   -0.192678
    68  H    0.182979
    69  H    0.197155
    70  N   -0.588610
    71  H    0.366199
    72  N   -0.753783
    73  H    0.377595
    74  H    0.402150
    75  N   -0.760153
    76  H    0.382379
    77  H    0.385684
    78  C    0.814198
    79  O   -0.547418
    80  H    0.422221
    81  H    0.420499
 Sum of Mulliken charges =   1.00000

 Dipole moment (field-independent basis, Debye):
    X=            -11.4827    Y=              3.8885    Z=            -20.1619  Tot=             23.5261
 Quadrupole moment (field-independent basis, Debye-Ang):
   XX=           -177.6856   YY=           -224.5592   ZZ=            -35.2142
   XY=             11.4778   XZ=             45.7542   YZ=             27.0967

 Normal termination of Gaussian 16 at Thu May 26 18:08:44 2022.
