 Gaussian 16, Revision C.01,
 Gaussian 16:  ES64L-G16RevC.01  3-Jul-2019

 -------------------------------------------------------------------
 # B3LYP/6-31G* guess=read geom=check nosymm integral(ultrafinegrid)
 -------------------------------------------------------------------

 ------------------------------------------------------
 Candidate Structure: Conf:584 Charge calc in gas phase
 ------------------------------------------------------
 Structure from the checkpoint file:  "conf-584.chk"
 Charge =  1 Multiplicity = 1

                          Input orientation:
 ---------------------------------------------------------------------
 Center     Atomic      Atomic             Coordinates (Angstroms)
 Number     Number       Type             X           Y           Z
 ---------------------------------------------------------------------
      1          7           0       -2.898903   -0.611853    4.757766
      2          1           0       -3.607052   -0.591667    5.486673
      3          1           0       -2.726602   -1.581566    4.500978
      4          6           0       -3.351818    0.131735    3.584431
      5          1           0       -4.436701    0.017185    3.391023
      6          6           0       -2.658970   -0.475428    2.355067
      7          6           0       -3.080005    1.639895    3.784307
      8          1           0       -3.505440    2.235177    2.965475
      9          1           0       -3.632527    1.957760    4.674965
     10          8           0       -2.094121   -1.569842    2.408059
     11          6           0       -1.598158    1.966291    3.977398
     12          1           0       -1.013995    1.771688    3.068635
     13          1           0       -1.183131    1.307589    4.749393
     14          6           0       -1.365283    3.401930    4.386984
     15          8           0       -2.222751    4.208838    4.671025
     16          8           0       -0.041577    3.703826    4.408650
     17          7           0       -2.735947    0.225553    1.185968
     18          1           0       -3.112863    1.163627    1.188465
     19          6           0       -2.114699   -0.278415   -0.038406
     20          1           0       -2.205089   -1.367551    0.012301
     21          6           0       -0.607665    0.087823   -0.044809
     22          6           0       -2.842815    0.236188   -1.280018
     23          1           0       -2.687755    1.322038   -1.356358
     24          1           0       -3.919764    0.085109   -1.125844
     25          8           0       -0.154862    1.058451   -0.664365
     26          6           0       -2.414288   -0.445105   -2.554666
     27          6           0       -1.573370   -1.527818   -2.695508
     28          1           0       -1.008873   -2.075662   -1.952773
     29          6           0       -2.849681   -0.101601   -3.888393
     30          6           0       -2.233114   -1.022858   -4.787018
     31          6           0       -3.671853    0.914613   -4.417314
     32          1           0       -4.169278    1.624173   -3.760967
     33          7           0       -1.461016   -1.871762   -4.026225
     34          1           0       -0.921099   -2.650417   -4.374037
     35          6           0       -3.243019    0.052907   -6.663628
     36          1           0       -3.423607    0.121375   -7.732392
     37          6           0       -2.427921   -0.961328   -6.171754
     38          1           0       -1.964393   -1.682086   -6.839578
     39          6           0       -3.854840    0.986637   -5.796474
     40          1           0       -4.497010    1.757308   -6.212982
     41          7           0        0.143219   -0.731126    0.716716
     42          1           0       -0.314801   -1.507666    1.191806
     43          6           0        1.568792   -0.565901    0.904921
     44          1           0        1.777410    0.399319    1.386702
     45          6           0        2.318161   -0.656325   -0.428616
     46          6           0        2.098101   -1.721161    1.814370
     47          1           0        3.198992   -1.667764    1.778197
     48          8           0        2.072731   -1.539428   -1.251733
     49          6           0        1.643386   -1.594839    3.265678
     50          1           0        2.022817   -0.671195    3.715242
     51          1           0        2.032001   -2.445140    3.833452
     52          1           0        0.551737   -1.605158    3.351712
     53          8           0        1.635784   -2.966347    1.322850
     54          1           0        1.834080   -3.002103    0.368269
     55          7           0        3.324136    0.246716   -0.574638
     56          1           0        3.491181    0.888673    0.189110
     57          6           0        4.343054    0.175102   -1.607195
     58          1           0        4.170162   -0.768915   -2.139343
     59          6           0        5.762748    0.089813   -1.035118
     60          6           0        4.233431    1.349023   -2.599052
     61          1           0        5.147806    1.389319   -3.197456
     62          1           0        4.200493    2.277746   -2.011197
     63          8           0        6.757821    0.256009   -1.699717
     64          6           0        2.993353    1.249044   -3.506787
     65          1           0        3.220477    0.662046   -4.403795
     66          1           0        2.185686    0.725992   -2.982738
     67          6           0        2.530365    2.658743   -3.900201
     68          1           0        2.274880    3.235683   -3.001553
     69          1           0        3.343155    3.202490   -4.389390
     70          7           0        1.402276    2.710201   -4.841761
     71          1           0        1.577079    3.126413   -5.746489
     72          7           0       -0.285862    2.033072   -3.363639
     73          1           0       -1.136493    1.486543   -3.262833
     74          1           0        0.293466    2.039481   -2.531054
     75          7           0       -0.751496    2.362465   -5.601135
     76          1           0       -0.430422    2.299016   -6.556939
     77          1           0       -1.720023    2.099312   -5.437945
     78          6           0        0.134915    2.351235   -4.588972
     79          8           0        5.781706   -0.206066    0.283026
     80          1           0        6.722421   -0.266492    0.541519
     81          1           0        0.019768    4.629610    4.713264
 ---------------------------------------------------------------------

 SCF Done:  E(RB3LYP) =  -2053.96473849     A.U. after    1 cycles

 Alpha  occ. eigenvalues --  -19.29584 -19.25791 -19.23520 -19.22125 -19.22100
 Alpha  occ. eigenvalues --  -19.22085 -19.21195 -19.20207 -14.51635 -14.50308
 Alpha  occ. eigenvalues --  -14.49708 -14.48344 -14.46824 -14.46092 -14.45424
 Alpha  occ. eigenvalues --  -14.38147 -10.47178 -10.41881 -10.39083 -10.38720
 Alpha  occ. eigenvalues --  -10.38416 -10.37974 -10.35933 -10.34406 -10.33467
 Alpha  occ. eigenvalues --  -10.32979 -10.32887 -10.32588 -10.32243 -10.30617
 Alpha  occ. eigenvalues --  -10.30409 -10.29953 -10.29905 -10.29494 -10.29490
 Alpha  occ. eigenvalues --  -10.29275 -10.28987 -10.28975 -10.28797 -10.26761
 Alpha  occ. eigenvalues --  -10.26705 -10.24983  -1.20334  -1.16619  -1.15615
 Alpha  occ. eigenvalues --   -1.14302  -1.13393  -1.12701  -1.11329  -1.09923
 Alpha  occ. eigenvalues --   -1.08348  -1.07661  -1.05246  -1.03442  -1.03218
 Alpha  occ. eigenvalues --   -1.02497  -1.01653  -0.95971  -0.94491  -0.91787
 Alpha  occ. eigenvalues --   -0.91111  -0.88061  -0.86737  -0.85802  -0.85125
 Alpha  occ. eigenvalues --   -0.84043  -0.81961  -0.81280  -0.79734  -0.78810
 Alpha  occ. eigenvalues --   -0.77110  -0.75759  -0.73424  -0.72759  -0.72388
 Alpha  occ. eigenvalues --   -0.72157  -0.70520  -0.70049  -0.69524  -0.68885
 Alpha  occ. eigenvalues --   -0.68457  -0.67768  -0.67321  -0.65875  -0.64901
 Alpha  occ. eigenvalues --   -0.64180  -0.63918  -0.63520  -0.63145  -0.62220
 Alpha  occ. eigenvalues --   -0.60619  -0.60229  -0.60044  -0.59555  -0.58759
 Alpha  occ. eigenvalues --   -0.58348  -0.57639  -0.57491  -0.57356  -0.57194
 Alpha  occ. eigenvalues --   -0.56673  -0.56114  -0.55478  -0.55120  -0.54554
 Alpha  occ. eigenvalues --   -0.54023  -0.53747  -0.53566  -0.53455  -0.52879
 Alpha  occ. eigenvalues --   -0.52593  -0.52380  -0.51975  -0.51815  -0.51510
 Alpha  occ. eigenvalues --   -0.50790  -0.50507  -0.50284  -0.49871  -0.49604
 Alpha  occ. eigenvalues --   -0.49029  -0.48327  -0.47749  -0.47370  -0.47201
 Alpha  occ. eigenvalues --   -0.46650  -0.46540  -0.46335  -0.46126  -0.45858
 Alpha  occ. eigenvalues --   -0.45618  -0.45407  -0.45348  -0.44141  -0.44116
 Alpha  occ. eigenvalues --   -0.43899  -0.43311  -0.43223  -0.42201  -0.41455
 Alpha  occ. eigenvalues --   -0.41352  -0.41311  -0.40069  -0.38648  -0.38137
 Alpha  occ. eigenvalues --   -0.38077  -0.37656  -0.36604  -0.35397  -0.35212
 Alpha  occ. eigenvalues --   -0.34977  -0.34273  -0.34127  -0.33832  -0.33056
 Alpha  occ. eigenvalues --   -0.30858  -0.30617
 Alpha virt. eigenvalues --   -0.11943  -0.11292  -0.09021  -0.08930  -0.08317
 Alpha virt. eigenvalues --   -0.07891  -0.07133  -0.06675  -0.05146  -0.03936
 Alpha virt. eigenvalues --   -0.03115  -0.02537  -0.02250  -0.01936  -0.01209

 Mulliken charges:
               1
     1  N   -0.730594
     2  H    0.310934
     3  H    0.333702
     4  C   -0.073106
     5  H    0.156585
     6  C    0.630071
     7  C   -0.271537
     8  H    0.132061
     9  H    0.181948
    10  O   -0.536608
    11  C   -0.357853
    12  H    0.157579
    13  H    0.221105
    14  C    0.578854
    15  O   -0.455890
    16  O   -0.574616
    17  N   -0.621054
    18  H    0.342953
    19  C   -0.057943
    20  H    0.190848
    21  C    0.651676
    22  C   -0.357906
    23  H    0.151066
    24  H    0.181163
    25  O   -0.590173
    26  C    0.043616
    27  C    0.017897
    28  H    0.189325
    29  C    0.028993
    30  C    0.331616
    31  C   -0.250563
    32  H    0.149291
    33  N   -0.691808
    34  H    0.349000
    35  C   -0.160941
    36  H    0.154532
    37  C   -0.163215
    38  H    0.152183
    39  C   -0.173787
    40  H    0.154769
    41  N   -0.606514
    42  H    0.390449
    43  C   -0.058358
    44  H    0.156114
    45  C    0.647004
    46  C    0.099387
    47  H    0.143679
    48  O   -0.556897
    49  C   -0.464296
    50  H    0.148529
    51  H    0.183032
    52  H    0.181935
    53  O   -0.624651
    54  H    0.410714
    55  N   -0.597020
    56  H    0.343872
    57  C   -0.075707
    58  H    0.222198
    59  C    0.589829
    60  C   -0.273973
    61  H    0.197543
    62  H    0.146039
    63  O   -0.440628
    64  C   -0.283581
    65  H    0.166293
    66  H    0.180056
    67  C   -0.170586
    68  H    0.182715
    69  H    0.189279
    70  N   -0.607595
    71  H    0.362213
    72  N   -0.786853
    73  H    0.401311
    74  H    0.409521
    75  N   -0.776039
    76  H    0.366501
    77  H    0.393096
    78  C    0.810962
    79  O   -0.567679
    80  H    0.430287
    81  H    0.413645
 Sum of Mulliken charges =   1.00000

 Dipole moment (field-independent basis, Debye):
    X=              1.4935    Y=              6.8405    Z=            -15.4518  Tot=             16.9641
 Quadrupole moment (field-independent basis, Debye-Ang):
   XX=           -198.9311   YY=           -224.3212   ZZ=           -125.8905
   XY=             12.9438   XZ=              5.5998   YZ=            -28.8591

 Normal termination of Gaussian 16 at Thu May 26 18:08:16 2022.
