 Gaussian 16, Revision C.01,
 Gaussian 16:  ES64L-G16RevC.01  3-Jul-2019

 -------------------------------------------------------------------
 # B3LYP/6-31G* guess=read geom=check nosymm integral(ultrafinegrid)
 -------------------------------------------------------------------

 ------------------------------------------------------
 Candidate Structure: Conf:662 Charge calc in gas phase
 ------------------------------------------------------
 Structure from the checkpoint file:  "conf-662.chk"
 Charge =  1 Multiplicity = 1

                          Input orientation:
 ---------------------------------------------------------------------
 Center     Atomic      Atomic             Coordinates (Angstroms)
 Number     Number       Type             X           Y           Z
 ---------------------------------------------------------------------
      1          7           0       -3.829206    0.242260    3.138322
      2          1           0       -4.691084   -0.034013    2.669855
      3          1           0       -3.306553   -0.618178    3.302020
      4          6           0       -3.040506    1.115894    2.277143
      5          1           0       -3.665072    1.979281    2.010306
      6          6           0       -2.556727    0.411386    0.999619
      7          6           0       -1.800025    1.607758    3.062289
      8          1           0       -2.149658    1.959462    4.036107
      9          1           0       -1.148047    0.747095    3.244528
     10          8           0       -2.034334   -0.716346    1.059120
     11          6           0       -1.002624    2.717809    2.342583
     12          1           0       -1.500081    3.685460    2.489582
     13          1           0       -0.940101    2.542052    1.266570
     14          6           0        0.424450    2.844286    2.831609
     15          8           0        1.416125    2.789946    2.129152
     16          8           0        0.487784    3.039291    4.162935
     17          7           0       -2.660302    1.095162   -0.164709
     18          1           0       -3.220147    1.939293   -0.185887
     19          6           0       -2.167559    0.600109   -1.458037
     20          1           0       -2.386977   -0.472435   -1.499168
     21          6           0       -0.629062    0.803319   -1.480510
     22          6           0       -2.853455    1.338767   -2.622929
     23          1           0       -2.531135    0.846384   -3.549871
     24          1           0       -2.449123    2.355912   -2.668588
     25          8           0       -0.088550    1.701206   -2.148964
     26          6           0       -4.350002    1.377471   -2.526166
     27          6           0       -5.116549    2.506540   -2.349535
     28          1           0       -4.811135    3.542929   -2.284601
     29          6           0       -5.269431    0.265357   -2.590424
     30          6           0       -6.579224    0.798136   -2.443657
     31          6           0       -5.120173   -1.122568   -2.767558
     32          1           0       -4.135155   -1.564988   -2.895327
     33          7           0       -6.451480    2.165575   -2.293765
     34          1           0       -7.216262    2.818301   -2.215106
     35          6           0       -7.540502   -1.373446   -2.636777
     36          1           0       -8.406990   -2.027788   -2.658435
     37          6           0       -7.722948   -0.007213   -2.463488
     38          1           0       -8.716513    0.417832   -2.350699
     39          6           0       -6.251969   -1.926297   -2.789004
     40          1           0       -6.147729   -2.998577   -2.926816
     41          7           0        0.042358   -0.034282   -0.672324
     42          1           0       -0.559147   -0.653350   -0.129921
     43          6           0        1.356585    0.261421   -0.099053
     44          1           0        1.318076    1.243671    0.386614
     45          6           0        2.457173    0.265932   -1.163545
     46          6           0        1.631910   -0.785723    1.027699
     47          1           0        1.551167   -1.786477    0.576124
     48          8           0        2.526884   -0.558853   -2.074568
     49          6           0        3.006277   -0.622474    1.665927
     50          1           0        3.813010   -0.816581    0.952914
     51          1           0        3.095461   -1.336468    2.488784
     52          1           0        3.120880    0.386496    2.076321
     53          8           0        0.684659   -0.627678    2.076409
     54          1           0       -0.188450   -0.978872    1.824728
     55          7           0        3.377853    1.255699   -0.987898
     56          1           0        3.313296    1.864387   -0.176435
     57          6           0        4.667877    1.250472   -1.658974
     58          1           0        5.044964    0.221464   -1.706858
     59          6           0        5.625338    2.065917   -0.794476
     60          6           0        4.642707    1.791059   -3.111291
     61          1           0        4.097271    1.054818   -3.708887
     62          1           0        5.675424    1.779806   -3.473694
     63          8           0        5.284452    2.751883    0.144543
     64          6           0        4.038660    3.202388   -3.283749
     65          1           0        4.131409    3.780346   -2.355490
     66          1           0        4.613609    3.755826   -4.037335
     67          6           0        2.554855    3.230119   -3.688158
     68          1           0        1.930789    2.714082   -2.959263
     69          1           0        2.194239    4.261262   -3.744295
     70          7           0        2.337800    2.628175   -5.021544
     71          1           0        2.691161    3.155113   -5.811340
     72          7           0        1.228457    0.665506   -4.412661
     73          1           0        1.407212   -0.325223   -4.296836
     74          1           0        0.810617    1.119346   -3.590323
     75          7           0        2.336941    0.788704   -6.434122
     76          1           0        3.090506    1.155248   -6.996764
     77          1           0        1.854954   -0.033415   -6.768727
     78          6           0        1.975072    1.362515   -5.268163
     79          8           0        6.895980    1.950535   -1.218291
     80          1           0        7.448911    2.500763   -0.630272
     81          1           0        1.433412    3.094346    4.399493
 ---------------------------------------------------------------------

 SCF Done:  E(RB3LYP) =  -2053.96460817     A.U. after    1 cycles

 Alpha  occ. eigenvalues --  -19.29665 -19.26925 -19.24248 -19.22906 -19.22118
 Alpha  occ. eigenvalues --  -19.21867 -19.21557 -19.21133 -14.51342 -14.51325
 Alpha  occ. eigenvalues --  -14.48677 -14.46750 -14.45440 -14.45382 -14.45346
 Alpha  occ. eigenvalues --  -14.39185 -10.46984 -10.42176 -10.39751 -10.39294
 Alpha  occ. eigenvalues --  -10.38413 -10.38209 -10.34398 -10.34020 -10.33463
 Alpha  occ. eigenvalues --  -10.32674 -10.31645 -10.31070 -10.30119 -10.29756
 Alpha  occ. eigenvalues --  -10.29701 -10.28957 -10.28517 -10.27857 -10.26817
 Alpha  occ. eigenvalues --  -10.26249 -10.25594 -10.25588 -10.25536 -10.25041
 Alpha  occ. eigenvalues --  -10.24995 -10.24713  -1.20737  -1.17910  -1.15434
 Alpha  occ. eigenvalues --   -1.14432  -1.13350  -1.12744  -1.11815  -1.09510
 Alpha  occ. eigenvalues --   -1.08771  -1.05254  -1.04978  -1.03175  -1.02847
 Alpha  occ. eigenvalues --   -1.02083  -1.01822  -0.96809  -0.90992  -0.90745
 Alpha  occ. eigenvalues --   -0.89117  -0.87422  -0.87035  -0.85486  -0.84032
 Alpha  occ. eigenvalues --   -0.80625  -0.80405  -0.79875  -0.79045  -0.78334
 Alpha  occ. eigenvalues --   -0.76754  -0.74715  -0.73248  -0.72512  -0.72373
 Alpha  occ. eigenvalues --   -0.71069  -0.69274  -0.69226  -0.68429  -0.68160
 Alpha  occ. eigenvalues --   -0.67334  -0.66695  -0.66597  -0.66301  -0.64434
 Alpha  occ. eigenvalues --   -0.63829  -0.63719  -0.62732  -0.61212  -0.61112
 Alpha  occ. eigenvalues --   -0.60490  -0.60230  -0.59838  -0.59099  -0.58890
 Alpha  occ. eigenvalues --   -0.57647  -0.57292  -0.56964  -0.56466  -0.55959
 Alpha  occ. eigenvalues --   -0.55683  -0.55600  -0.55268  -0.54717  -0.54239
 Alpha  occ. eigenvalues --   -0.53913  -0.53728  -0.53218  -0.52229  -0.51751
 Alpha  occ. eigenvalues --   -0.51594  -0.51181  -0.50902  -0.50437  -0.50203
 Alpha  occ. eigenvalues --   -0.49875  -0.49794  -0.49365  -0.49195  -0.48703
 Alpha  occ. eigenvalues --   -0.48418  -0.47880  -0.47596  -0.47377  -0.47072
 Alpha  occ. eigenvalues --   -0.46917  -0.46404  -0.46242  -0.46027  -0.45348
 Alpha  occ. eigenvalues --   -0.44830  -0.44590  -0.44333  -0.43562  -0.42842
 Alpha  occ. eigenvalues --   -0.42631  -0.42104  -0.41850  -0.41736  -0.40550
 Alpha  occ. eigenvalues --   -0.40244  -0.40167  -0.39718  -0.39137  -0.38147
 Alpha  occ. eigenvalues --   -0.37883  -0.37219  -0.36292  -0.35637  -0.35256
 Alpha  occ. eigenvalues --   -0.34885  -0.34625  -0.34280  -0.33757  -0.31535
 Alpha  occ. eigenvalues --   -0.29243  -0.27671
 Alpha virt. eigenvalues --   -0.12163  -0.10001  -0.09382  -0.08160  -0.07901
 Alpha virt. eigenvalues --   -0.07534  -0.07042  -0.06583  -0.04371  -0.03612
 Alpha virt. eigenvalues --   -0.01880  -0.01542  -0.01222  -0.00825  -0.00201

 Mulliken charges:
               1
     1  N   -0.690149
     2  H    0.311964
     3  H    0.317824
     4  C   -0.070573
     5  H    0.138016
     6  C    0.618443
     7  C   -0.277581
     8  H    0.192075
     9  H    0.180769
    10  O   -0.574439
    11  C   -0.360942
    12  H    0.180822
    13  H    0.164587
    14  C    0.592746
    15  O   -0.477615
    16  O   -0.544223
    17  N   -0.586878
    18  H    0.342457
    19  C   -0.060426
    20  H    0.194512
    21  C    0.635881
    22  C   -0.390339
    23  H    0.162935
    24  H    0.170455
    25  O   -0.576110
    26  C    0.054503
    27  C   -0.015304
    28  H    0.156095
    29  C    0.089280
    30  C    0.309971
    31  C   -0.211386
    32  H    0.117065
    33  N   -0.684814
    34  H    0.339053
    35  C   -0.149236
    36  H    0.142795
    37  C   -0.159167
    38  H    0.139081
    39  C   -0.137582
    40  H    0.135709
    41  N   -0.616088
    42  H    0.372139
    43  C   -0.070941
    44  H    0.209367
    45  C    0.619501
    46  C    0.104726
    47  H    0.147623
    48  O   -0.562186
    49  C   -0.474597
    50  H    0.147795
    51  H    0.180535
    52  H    0.175082
    53  O   -0.647064
    54  H    0.426856
    55  N   -0.620658
    56  H    0.378461
    57  C   -0.025525
    58  H    0.199688
    59  C    0.583116
    60  C   -0.292261
    61  H    0.160368
    62  H    0.180401
    63  O   -0.455302
    64  C   -0.279695
    65  H    0.181058
    66  H    0.150656
    67  C   -0.192023
    68  H    0.225598
    69  H    0.187187
    70  N   -0.583063
    71  H    0.353434
    72  N   -0.772013
    73  H    0.382555
    74  H    0.441349
    75  N   -0.753109
    76  H    0.373711
    77  H    0.382713
    78  C    0.769532
    79  O   -0.560019
    80  H    0.430920
    81  H    0.419900
 Sum of Mulliken charges =   1.00000

 Dipole moment (field-independent basis, Debye):
    X=              4.2401    Y=              9.4299    Z=            -17.1515  Tot=             20.0268
 Quadrupole moment (field-independent basis, Debye-Ang):
   XX=           -135.3069   YY=           -206.4313   ZZ=           -135.8492
   XY=              7.7671   XZ=            -35.0659   YZ=            -26.4596

 Normal termination of Gaussian 16 at Thu May 26 18:08:14 2022.
