 Gaussian 16, Revision C.01,
 Gaussian 16:  ES64L-G16RevC.01  3-Jul-2019

 -------------------------------------------------------------------
 # B3LYP/6-31G* guess=read geom=check nosymm integral(ultrafinegrid)
 -------------------------------------------------------------------

 ------------------------------------------------------
 Candidate Structure: Conf:367 Charge calc in gas phase
 ------------------------------------------------------
 Structure from the checkpoint file:  "conf-367.chk"
 Charge =  1 Multiplicity = 1

                          Input orientation:
 ---------------------------------------------------------------------
 Center     Atomic      Atomic             Coordinates (Angstroms)
 Number     Number       Type             X           Y           Z
 ---------------------------------------------------------------------
      1          7           0       -5.148095    1.113368    3.543468
      2          1           0       -5.241992    0.191544    3.966913
      3          1           0       -5.661496    1.773092    4.124695
      4          6           0       -3.736274    1.482145    3.472814
      5          1           0       -3.674657    2.448965    2.955882
      6          6           0       -3.047255    0.407764    2.617368
      7          6           0       -3.029963    1.616859    4.843306
      8          1           0       -3.565149    2.376589    5.425805
      9          1           0       -3.144677    0.671690    5.385652
     10          8           0       -2.943963   -0.756150    3.039465
     11          6           0       -1.533391    1.999340    4.751284
     12          1           0       -1.421334    3.009598    4.348016
     13          1           0       -0.999381    1.305094    4.091966
     14          6           0       -0.870669    1.924087    6.108790
     15          8           0       -0.597034    0.888819    6.699481
     16          8           0       -0.629026    3.129398    6.639955
     17          7           0       -2.583508    0.813703    1.420141
     18          1           0       -2.777050    1.765782    1.137950
     19          6           0       -1.855120   -0.025015    0.469777
     20          1           0       -2.142733   -1.057692    0.684930
     21          6           0       -0.349266    0.086929    0.833153
     22          6           0       -2.260308    0.321188   -0.980567
     23          1           0       -1.612196   -0.256804   -1.653111
     24          1           0       -2.049788    1.383381   -1.174828
     25          8           0        0.013690   -0.247724    1.959245
     26          6           0       -3.699539    0.024021   -1.278778
     27          6           0       -4.713408    0.936200   -1.446462
     28          1           0       -4.680067    2.017695   -1.432254
     29          6           0       -4.294244   -1.282851   -1.423390
     30          6           0       -5.679178   -1.084022   -1.673307
     31          6           0       -3.795551   -2.597599   -1.381923
     32          1           0       -2.737561   -2.786628   -1.212714
     33          7           0       -5.901425    0.278831   -1.679614
     34          1           0       -6.788430    0.725626   -1.854324
     35          6           0       -6.041673   -3.434818   -1.819163
     36          1           0       -6.701153   -4.284141   -1.971180
     37          6           0       -6.564343   -2.148601   -1.871714
     38          1           0       -7.620145   -1.978257   -2.063325
     39          6           0       -4.669997   -3.657950   -1.579469
     40          1           0       -4.294937   -4.677115   -1.555416
     41          7           0        0.497588    0.549193   -0.128193
     42          1           0        0.062046    1.004245   -0.920916
     43          6           0        1.825221    1.122427    0.159274
     44          1           0        2.390968    1.047497   -0.779620
     45          6           0        2.589108    0.322992    1.235765
     46          6           0        1.675525    2.620442    0.519046
     47          1           0        1.196495    2.678062    1.501320
     48          8           0        2.890317    0.803394    2.321143
     49          6           0        3.000802    3.370755    0.546224
     50          1           0        3.659005    2.962680    1.315831
     51          1           0        2.824239    4.429049    0.764186
     52          1           0        3.513549    3.299313   -0.423462
     53          8           0        0.751084    3.209531   -0.411101
     54          1           0        1.266656    3.652477   -1.103560
     55          7           0        2.954059   -0.932549    0.856115
     56          1           0        2.682446   -1.312706   -0.042427
     57          6           0        3.507276   -1.867050    1.820671
     58          1           0        4.188277   -1.319448    2.477586
     59          6           0        4.270283   -2.929199    1.043362
     60          6           0        2.370430   -2.502023    2.668140
     61          1           0        1.822220   -3.202388    2.018934
     62          1           0        1.690052   -1.679588    2.901986
     63          8           0        4.063315   -3.198586   -0.119549
     64          6           0        2.800270   -3.200870    3.960530
     65          1           0        3.480497   -4.035152    3.754808
     66          1           0        3.354882   -2.495603    4.593244
     67          6           0        1.608356   -3.759124    4.754523
     68          1           0        1.057727   -4.503574    4.169366
     69          1           0        1.965341   -4.284105    5.645765
     70          7           0        0.658322   -2.739005    5.220507
     71          1           0        0.875882   -2.281103    6.096120
     72          7           0       -0.950051   -2.956962    3.517476
     73          1           0       -1.661858   -2.424299    3.018023
     74          1           0       -0.296300   -3.458507    2.936611
     75          7           0       -1.295672   -1.488237    5.248788
     76          1           0       -0.931110   -0.812703    5.925851
     77          1           0       -2.085998   -1.161109    4.689941
     78          6           0       -0.503126   -2.380495    4.650308
     79          8           0        5.167260   -3.575444    1.813540
     80          1           0        5.587574   -4.257469    1.253737
     81          1           0       -0.224256    2.989951    7.518620
 ---------------------------------------------------------------------

 SCF Done:  E(RB3LYP) =  -2053.96996991     A.U. after    1 cycles

 Alpha  occ. eigenvalues --  -19.29982 -19.29305 -19.24834 -19.23996 -19.23597
 Alpha  occ. eigenvalues --  -19.23410 -19.22113 -19.20210 -14.49560 -14.47719
 Alpha  occ. eigenvalues --  -14.47714 -14.46516 -14.46221 -14.45197 -14.44805
 Alpha  occ. eigenvalues --  -14.41111 -10.44561 -10.42915 -10.41600 -10.40016
 Alpha  occ. eigenvalues --  -10.39324 -10.37997 -10.34638 -10.33935 -10.33291
 Alpha  occ. eigenvalues --  -10.32986 -10.32956 -10.32916 -10.30136 -10.29792
 Alpha  occ. eigenvalues --  -10.29663 -10.29632 -10.29275 -10.29000 -10.28831
 Alpha  occ. eigenvalues --  -10.26158 -10.26050 -10.25623 -10.25541 -10.25536
 Alpha  occ. eigenvalues --  -10.24992 -10.24778  -1.21111  -1.20180  -1.14935
 Alpha  occ. eigenvalues --   -1.13896  -1.13176  -1.12263  -1.11874  -1.11257
 Alpha  occ. eigenvalues --   -1.11126  -1.05149  -1.03922  -1.03161  -1.02682
 Alpha  occ. eigenvalues --   -1.01438  -1.00428  -0.98687  -0.90881  -0.90479
 Alpha  occ. eigenvalues --   -0.89836  -0.89332  -0.87061  -0.85230  -0.84513
 Alpha  occ. eigenvalues --   -0.81053  -0.80443  -0.80197  -0.79244  -0.78516
 Alpha  occ. eigenvalues --   -0.76290  -0.75195  -0.73577  -0.72648  -0.71390
 Alpha  occ. eigenvalues --   -0.70885  -0.70194  -0.69993  -0.69245  -0.68945
 Alpha  occ. eigenvalues --   -0.67718  -0.67350  -0.66332  -0.66021  -0.64542
 Alpha  occ. eigenvalues --   -0.63042  -0.62746  -0.61669  -0.61050  -0.60936
 Alpha  occ. eigenvalues --   -0.60494  -0.59773  -0.59517  -0.59009  -0.58583
 Alpha  occ. eigenvalues --   -0.58077  -0.57859  -0.57140  -0.56823  -0.56349
 Alpha  occ. eigenvalues --   -0.55965  -0.55685  -0.55545  -0.55520  -0.54677
 Alpha  occ. eigenvalues --   -0.54235  -0.54082  -0.53736  -0.53266  -0.53084
 Alpha  occ. eigenvalues --   -0.52622  -0.52342  -0.51871  -0.51398  -0.50798
 Alpha  occ. eigenvalues --   -0.50271  -0.49979  -0.49883  -0.49559  -0.49413
 Alpha  occ. eigenvalues --   -0.49076  -0.48966  -0.48349  -0.48173  -0.47706
 Alpha  occ. eigenvalues --   -0.47430  -0.47225  -0.46689  -0.46346  -0.45765
 Alpha  occ. eigenvalues --   -0.45583  -0.45466  -0.45258  -0.45099  -0.44787
 Alpha  occ. eigenvalues --   -0.44160  -0.42267  -0.42108  -0.41636  -0.41262
 Alpha  occ. eigenvalues --   -0.40461  -0.40112  -0.39367  -0.38844  -0.38399
 Alpha  occ. eigenvalues --   -0.37721  -0.37540  -0.37440  -0.37306  -0.35923
 Alpha  occ. eigenvalues --   -0.34791  -0.34300  -0.33903  -0.33837  -0.33077
 Alpha  occ. eigenvalues --   -0.29136  -0.27526
 Alpha virt. eigenvalues --   -0.10566  -0.09658  -0.08884  -0.08684  -0.08049
 Alpha virt. eigenvalues --   -0.07529  -0.07024  -0.04353  -0.04105  -0.03049
 Alpha virt. eigenvalues --   -0.02931  -0.01756  -0.01486  -0.01251  -0.00992

 Mulliken charges:
               1
     1  N   -0.706466
     2  H    0.319890
     3  H    0.316921
     4  C   -0.066214
     5  H    0.143502
     6  C    0.672493
     7  C   -0.294479
     8  H    0.167736
     9  H    0.157200
    10  O   -0.573459
    11  C   -0.376298
    12  H    0.183449
    13  H    0.206476
    14  C    0.594571
    15  O   -0.491418
    16  O   -0.532550
    17  N   -0.580503
    18  H    0.347682
    19  C   -0.047725
    20  H    0.195917
    21  C    0.617805
    22  C   -0.438436
    23  H    0.173932
    24  H    0.161241
    25  O   -0.530523
    26  C    0.078426
    27  C    0.004260
    28  H    0.152399
    29  C    0.093576
    30  C    0.314159
    31  C   -0.214280
    32  H    0.108088
    33  N   -0.686937
    34  H    0.339465
    35  C   -0.149793
    36  H    0.141116
    37  C   -0.156445
    38  H    0.139200
    39  C   -0.136628
    40  H    0.130918
    41  N   -0.599495
    42  H    0.358434
    43  C   -0.095805
    44  H    0.161175
    45  C    0.665649
    46  C    0.156680
    47  H    0.162756
    48  O   -0.532621
    49  C   -0.503470
    50  H    0.200800
    51  H    0.173139
    52  H    0.143277
    53  O   -0.649062
    54  H    0.402670
    55  N   -0.612216
    56  H    0.349516
    57  C   -0.030769
    58  H    0.204962
    59  C    0.585161
    60  C   -0.311143
    61  H    0.126514
    62  H    0.218566
    63  O   -0.459054
    64  C   -0.259636
    65  H    0.175481
    66  H    0.163609
    67  C   -0.181868
    68  H    0.174513
    69  H    0.192855
    70  N   -0.590357
    71  H    0.365027
    72  N   -0.761784
    73  H    0.403850
    74  H    0.360552
    75  N   -0.822663
    76  H    0.398203
    77  H    0.407560
    78  C    0.787623
    79  O   -0.560467
    80  H    0.426816
    81  H    0.426755
 Sum of Mulliken charges =   1.00000

 Dipole moment (field-independent basis, Debye):
    X=             -2.8829    Y=             -1.0954    Z=             12.5126  Tot=             12.8870
 Quadrupole moment (field-independent basis, Debye-Ang):
   XX=           -174.6556   YY=           -188.8237   ZZ=           -155.7978
   XY=            -28.9724   XZ=              2.5785   YZ=            -17.2613

 Normal termination of Gaussian 16 at Thu May 26 18:04:11 2022.
