 Gaussian 16, Revision C.01,
 Gaussian 16:  ES64L-G16RevC.01  3-Jul-2019

 -------------------------------------------------------------------
 # B3LYP/6-31G* guess=read geom=check nosymm integral(ultrafinegrid)
 -------------------------------------------------------------------

 ------------------------------------------------------
 Candidate Structure: Conf:961 Charge calc in gas phase
 ------------------------------------------------------
 Structure from the checkpoint file:  "conf-961.chk"
 Charge =  1 Multiplicity = 1

                          Input orientation:
 ---------------------------------------------------------------------
 Center     Atomic      Atomic             Coordinates (Angstroms)
 Number     Number       Type             X           Y           Z
 ---------------------------------------------------------------------
      1          7           0       -6.389632    2.456331    0.708295
      2          1           0       -6.605439    2.618647   -0.274428
      3          1           0       -6.608941    1.471552    0.867152
      4          6           0       -4.958027    2.632372    0.929371
      5          1           0       -4.646480    3.569663    0.456591
      6          6           0       -4.109151    1.498381    0.329585
      7          6           0       -4.678269    2.746948    2.447235
      8          1           0       -5.199961    1.927004    2.954915
      9          1           0       -3.608535    2.623224    2.646348
     10          8           0       -4.581784    0.392855    0.063340
     11          6           0       -5.152108    4.082355    3.019849
     12          1           0       -5.184007    4.063953    4.115979
     13          1           0       -6.176450    4.292571    2.688003
     14          6           0       -4.265884    5.236580    2.604349
     15          8           0       -3.312013    5.173796    1.851638
     16          8           0       -4.655229    6.398137    3.175658
     17          7           0       -2.795121    1.797957    0.121851
     18          1           0       -2.398887    2.665348    0.471505
     19          6           0       -1.866414    0.760796   -0.276573
     20          1           0       -2.094759   -0.147906    0.293659
     21          6           0       -0.454617    1.228624    0.083035
     22          6           0       -2.004826    0.391967   -1.796468
     23          1           0       -1.361354    1.046758   -2.396101
     24          1           0       -3.036620    0.631755   -2.063503
     25          8           0       -0.245936    2.338378    0.585468
     26          6           0       -1.741709   -1.058386   -2.098998
     27          6           0       -2.607596   -2.082489   -1.787943
     28          1           0       -3.575726   -2.024732   -1.308264
     29          6           0       -0.594215   -1.672971   -2.728079
     30          6           0       -0.839477   -3.077663   -2.761621
     31          6           0        0.616974   -1.192475   -3.267551
     32          1           0        0.850062   -0.130984   -3.257770
     33          7           0       -2.071926   -3.288859   -2.181367
     34          1           0       -2.522631   -4.185300   -2.076666
     35          6           0        1.256689   -3.478782   -3.827007
     36          1           0        1.986437   -4.159723   -4.255188
     37          6           0        0.071534   -3.986631   -3.308821
     38          1           0       -0.137633   -5.052810   -3.326042
     39          6           0        1.527456   -2.095141   -3.804053
     40          1           0        2.465426   -1.728407   -4.211221
     41          7           0        0.551252    0.351428   -0.186058
     42          1           0        0.353547   -0.439747   -0.793854
     43          6           0        1.960862    0.688653    0.058901
     44          1           0        1.988044    1.243314    1.001686
     45          6           0        2.470008    1.601037   -1.072855
     46          6           0        2.782697   -0.604784    0.237969
     47          1           0        2.706620   -1.195414   -0.688353
     48          8           0        3.137824    1.211705   -2.030641
     49          6           0        4.250459   -0.328357    0.539050
     50          1           0        4.742110    0.147601   -0.312212
     51          1           0        4.752765   -1.276131    0.751543
     52          1           0        4.348029    0.309500    1.425009
     53          8           0        2.275153   -1.334344    1.348235
     54          1           0        1.329869   -1.497537    1.201793
     55          7           0        2.088452    2.906154   -0.950523
     56          1           0        1.346489    3.114629   -0.281053
     57          6           0        2.425288    3.855294   -1.997661
     58          1           0        1.773572    4.727211   -1.851449
     59          6           0        2.062867    3.312665   -3.387586
     60          6           0        3.899473    4.299682   -1.882289
     61          1           0        4.519195    3.406483   -2.012539
     62          1           0        4.038351    4.624876   -0.847812
     63          8           0        2.696735    3.499624   -4.415222
     64          6           0        4.340968    5.420051   -2.855882
     65          1           0        3.499131    5.756678   -3.469769
     66          1           0        4.684877    6.298315   -2.297684
     67          6           0        5.470344    4.931725   -3.776588
     68          1           0        6.401978    4.807677   -3.216993
     69          1           0        5.222265    3.956252   -4.199836
     70          7           0        5.767360    5.843676   -4.894264
     71          1           0        6.352442    6.646691   -4.701501
     72          7           0        4.171898    4.966047   -6.343592
     73          1           0        3.882632    4.788185   -7.294928
     74          1           0        3.679720    4.456447   -5.603093
     75          7           0        5.631459    6.615424   -7.071742
     76          1           0        6.560181    7.009904   -7.030408
     77          1           0        5.146296    6.684856   -7.954366
     78          6           0        5.183980    5.797083   -6.097187
     79          8           0        0.877563    2.691760   -3.398304
     80          1           0        0.710662    2.390344   -4.312007
     81          1           0       -4.039707    7.084376    2.855527
 ---------------------------------------------------------------------

 SCF Done:  E(RB3LYP) =  -2053.95545193     A.U. after    1 cycles

 Alpha  occ. eigenvalues --  -19.31117 -19.26432 -19.24716 -19.21140 -19.21024
 Alpha  occ. eigenvalues --  -19.20591 -19.19410 -19.17150 -14.53011 -14.53006
 Alpha  occ. eigenvalues --  -14.51894 -14.44925 -14.44887 -14.44349 -14.41338
 Alpha  occ. eigenvalues --  -14.36144 -10.49175 -10.44459 -10.37721 -10.37672
 Alpha  occ. eigenvalues --  -10.37368 -10.36032 -10.35158 -10.33546 -10.31190
 Alpha  occ. eigenvalues --  -10.31004 -10.30811 -10.30349 -10.29800 -10.28195
 Alpha  occ. eigenvalues --  -10.27897 -10.27031 -10.26137 -10.25101 -10.25090
 Alpha  occ. eigenvalues --  -10.25025 -10.24771 -10.24608 -10.24532 -10.24371
 Alpha  occ. eigenvalues --  -10.24151 -10.23561  -1.22559  -1.17557  -1.15704
 Alpha  occ. eigenvalues --   -1.13412  -1.13177  -1.12355  -1.08763  -1.08357
 Alpha  occ. eigenvalues --   -1.06878  -1.06602  -1.05470  -1.04213  -1.02004
 Alpha  occ. eigenvalues --   -1.00823  -0.98064  -0.93624  -0.91870  -0.90071
 Alpha  occ. eigenvalues --   -0.87764  -0.86809  -0.84720  -0.84107  -0.82102
 Alpha  occ. eigenvalues --   -0.81755  -0.79722  -0.78909  -0.78515  -0.77421
 Alpha  occ. eigenvalues --   -0.75847  -0.75150  -0.74544  -0.73121  -0.71684
 Alpha  occ. eigenvalues --   -0.71011  -0.69040  -0.68345  -0.67887  -0.66767
 Alpha  occ. eigenvalues --   -0.66577  -0.65905  -0.65611  -0.65487  -0.63872
 Alpha  occ. eigenvalues --   -0.63427  -0.62756  -0.62313  -0.61865  -0.60613
 Alpha  occ. eigenvalues --   -0.60539  -0.60136  -0.59385  -0.58690  -0.57926
 Alpha  occ. eigenvalues --   -0.57414  -0.56661  -0.56189  -0.55570  -0.55269
 Alpha  occ. eigenvalues --   -0.54419  -0.54194  -0.54008  -0.53287  -0.52982
 Alpha  occ. eigenvalues --   -0.52915  -0.52772  -0.51958  -0.51469  -0.50974
 Alpha  occ. eigenvalues --   -0.50747  -0.50345  -0.50264  -0.49328  -0.49308
 Alpha  occ. eigenvalues --   -0.48667  -0.48468  -0.48108  -0.47720  -0.47271
 Alpha  occ. eigenvalues --   -0.46638  -0.46487  -0.46252  -0.46084  -0.45619
 Alpha  occ. eigenvalues --   -0.45405  -0.45043  -0.44509  -0.44162  -0.43909
 Alpha  occ. eigenvalues --   -0.43809  -0.43596  -0.43434  -0.42834  -0.42611
 Alpha  occ. eigenvalues --   -0.41571  -0.41379  -0.41051  -0.40668  -0.40278
 Alpha  occ. eigenvalues --   -0.39741  -0.39680  -0.39350  -0.38517  -0.36975
 Alpha  occ. eigenvalues --   -0.36836  -0.35213  -0.34718  -0.34359  -0.33643
 Alpha  occ. eigenvalues --   -0.32969  -0.32499  -0.31348  -0.31089  -0.28762
 Alpha  occ. eigenvalues --   -0.28549  -0.26419
 Alpha virt. eigenvalues --   -0.13045  -0.11063  -0.09173  -0.07921  -0.07478
 Alpha virt. eigenvalues --   -0.06509  -0.05155  -0.04391  -0.04170  -0.03969
 Alpha virt. eigenvalues --   -0.03422  -0.02950  -0.01811  -0.00451  -0.00357

 Mulliken charges:
               1
     1  N   -0.699887
     2  H    0.302725
     3  H    0.314101
     4  C   -0.094808
     5  H    0.161240
     6  C    0.582650
     7  C   -0.248951
     8  H    0.152820
     9  H    0.152049
    10  O   -0.540218
    11  C   -0.357578
    12  H    0.183385
    13  H    0.212229
    14  C    0.580798
    15  O   -0.483855
    16  O   -0.557830
    17  N   -0.623037
    18  H    0.364466
    19  C   -0.016671
    20  H    0.189654
    21  C    0.610617
    22  C   -0.365522
    23  H    0.144674
    24  H    0.193460
    25  O   -0.548747
    26  C    0.021200
    27  C    0.013250
    28  H    0.193102
    29  C    0.046457
    30  C    0.317623
    31  C   -0.241116
    32  H    0.121830
    33  N   -0.681941
    34  H    0.340048
    35  C   -0.152194
    36  H    0.136926
    37  C   -0.157789
    38  H    0.138850
    39  C   -0.138503
    40  H    0.129311
    41  N   -0.649333
    42  H    0.369370
    43  C   -0.075340
    44  H    0.190205
    45  C    0.643655
    46  C    0.125464
    47  H    0.148001
    48  O   -0.545135
    49  C   -0.467405
    50  H    0.162300
    51  H    0.176590
    52  H    0.153200
    53  O   -0.619604
    54  H    0.396905
    55  N   -0.614097
    56  H    0.387465
    57  C   -0.050721
    58  H    0.192324
    59  C    0.636047
    60  C   -0.277007
    61  H    0.190008
    62  H    0.176116
    63  O   -0.520820
    64  C   -0.268774
    65  H    0.150964
    66  H    0.162486
    67  C   -0.187948
    68  H    0.195967
    69  H    0.207335
    70  N   -0.596616
    71  H    0.363857
    72  N   -0.792623
    73  H    0.373029
    74  H    0.454858
    75  N   -0.765017
    76  H    0.382140
    77  H    0.381770
    78  C    0.816821
    79  O   -0.540030
    80  H    0.429176
    81  H    0.409602
 Sum of Mulliken charges =   1.00000

 Dipole moment (field-independent basis, Debye):
    X=             17.8198    Y=             23.2626    Z=            -24.1266  Tot=             37.9577
 Quadrupole moment (field-independent basis, Debye-Ang):
   XX=           -126.1225   YY=            -64.4412   ZZ=            -84.2594
   XY=            133.1533   XZ=           -118.4438   YZ=           -131.2170

 Normal termination of Gaussian 16 at Thu May 26 18:08:03 2022.
