 Gaussian 16, Revision C.01,
 Gaussian 16:  ES64L-G16RevC.01  3-Jul-2019

 -------------------------------------------------------------------
 # B3LYP/6-31G* guess=read geom=check nosymm integral(ultrafinegrid)
 -------------------------------------------------------------------

 ------------------------------------------------------
 Candidate Structure: Conf:549 Charge calc in gas phase
 ------------------------------------------------------
 Structure from the checkpoint file:  "conf-549.chk"
 Charge =  1 Multiplicity = 1

                          Input orientation:
 ---------------------------------------------------------------------
 Center     Atomic      Atomic             Coordinates (Angstroms)
 Number     Number       Type             X           Y           Z
 ---------------------------------------------------------------------
      1          7           0       -3.668277   -1.810908    2.209580
      2          1           0       -4.371131   -1.926835    1.480755
      3          1           0       -2.884419   -2.412958    1.958010
      4          6           0       -3.202483   -0.429102    2.244997
      5          1           0       -4.074415    0.208164    2.451238
      6          6           0       -2.542119    0.016783    0.931798
      7          6           0       -2.173947   -0.243126    3.381097
      8          1           0       -1.272281   -0.814388    3.133643
      9          1           0       -1.879819    0.811284    3.428185
     10          8           0       -1.747093   -0.719744    0.336193
     11          6           0       -2.700595   -0.714683    4.740456
     12          1           0       -3.736128   -0.405157    4.911898
     13          1           0       -2.100530   -0.264279    5.543394
     14          6           0       -2.594281   -2.215626    4.922888
     15          8           0       -1.753229   -2.931455    4.421481
     16          8           0       -3.519322   -2.680398    5.794467
     17          7           0       -2.843364    1.265490    0.493731
     18          1           0       -3.569582    1.793283    0.960323
     19          6           0       -2.304083    1.821109   -0.748199
     20          1           0       -2.264188    1.000514   -1.472827
     21          6           0       -0.865261    2.321212   -0.479787
     22          6           0       -3.188857    2.970081   -1.269983
     23          1           0       -2.802715    3.253155   -2.257587
     24          1           0       -3.025968    3.842707   -0.628709
     25          8           0       -0.597307    3.514240   -0.319563
     26          6           0       -4.651417    2.641166   -1.340499
     27          6           0       -5.644188    3.227480   -0.591624
     28          1           0       -5.574332    4.022394    0.139538
     29          6           0       -5.302963    1.668020   -2.186189
     30          6           0       -6.693697    1.720364   -1.892804
     31          6           0       -4.854102    0.766500   -3.168207
     32          1           0       -3.799266    0.706547   -3.424215
     33          7           0       -6.869158    2.676771   -0.912808
     34          1           0       -7.756252    2.968557   -0.532819
     35          6           0       -7.151036    0.024696   -3.504191
     36          1           0       -7.850022   -0.621187   -4.027903
     37          6           0       -7.627918    0.905763   -2.541274
     38          1           0       -8.687078    0.960490   -2.304156
     39          6           0       -5.777496   -0.043589   -3.816007
     40          1           0       -5.440274   -0.741707   -4.577069
     41          7           0        0.069677    1.333543   -0.418641
     42          1           0       -0.273545    0.374646   -0.305933
     43          6           0        1.408012    1.644536    0.057462
     44          1           0        1.653928    2.641565   -0.325208
     45          6           0        2.361439    0.593548   -0.504987
     46          6           0        1.496205    1.681792    1.615947
     47          1           0        1.392236    0.652599    1.978122
     48          8           0        2.179247   -0.607926   -0.347086
     49          6           0        2.830076    2.263125    2.093023
     50          1           0        3.685469    1.667437    1.751343
     51          1           0        2.845516    2.287377    3.186126
     52          1           0        2.958039    3.291702    1.731453
     53          8           0        0.399283    2.390223    2.168357
     54          1           0        0.231206    3.176779    1.618061
     55          7           0        3.450771    1.064173   -1.193694
     56          1           0        3.587321    2.055253   -1.330532
     57          6           0        4.422034    0.121104   -1.711598
     58          1           0        4.480505   -0.700514   -0.986363
     59          6           0        5.812311    0.722565   -1.798515
     60          6           0        3.950228   -0.508340   -3.057859
     61          1           0        3.970278    0.249862   -3.851490
     62          1           0        2.900869   -0.755218   -2.883876
     63          8           0        6.822067    0.085660   -2.066550
     64          6           0        4.694807   -1.792277   -3.484396
     65          1           0        5.133179   -2.274444   -2.602412
     66          1           0        3.971599   -2.509556   -3.888791
     67          6           0        5.787054   -1.561550   -4.542280
     68          1           0        5.342498   -1.320315   -5.511854
     69          1           0        6.440400   -0.728116   -4.278412
     70          7           0        6.635332   -2.747493   -4.754435
     71          1           0        6.277361   -3.466153   -5.370629
     72          7           0        8.063819   -2.328042   -2.962260
     73          1           0        8.973399   -2.461332   -2.542844
     74          1           0        7.508626   -1.538554   -2.618032
     75          7           0        8.416278   -4.164951   -4.328173
     76          1           0        8.293225   -4.636069   -5.212629
     77          1           0        9.124349   -4.528310   -3.706919
     78          6           0        7.698629   -3.070722   -4.007632
     79          8           0        5.852159    2.038605   -1.572665
     80          1           0        6.781167    2.334509   -1.644271
     81          1           0       -3.353006   -3.638244    5.878855
 ---------------------------------------------------------------------

 SCF Done:  E(RB3LYP) =  -2053.94771989     A.U. after    1 cycles

 Alpha  occ. eigenvalues --  -19.33504 -19.28253 -19.22538 -19.20504 -19.19469
 Alpha  occ. eigenvalues --  -19.17841 -19.17143 -19.16664 -14.53552 -14.53453
 Alpha  occ. eigenvalues --  -14.52384 -14.46087 -14.42754 -14.42053 -14.41409
 Alpha  occ. eigenvalues --  -14.35886 -10.49707 -10.46283 -10.37663 -10.36854
 Alpha  occ. eigenvalues --  -10.35795 -10.35123 -10.34689 -10.33672 -10.31741
 Alpha  occ. eigenvalues --  -10.31051 -10.30245 -10.30126 -10.29175 -10.27136
 Alpha  occ. eigenvalues --  -10.26919 -10.26505 -10.24713 -10.24021 -10.23696
 Alpha  occ. eigenvalues --  -10.23342 -10.23326 -10.23148 -10.23085 -10.22998
 Alpha  occ. eigenvalues --  -10.22850 -10.22472  -1.24726  -1.18060  -1.15384
 Alpha  occ. eigenvalues --   -1.13365  -1.12814  -1.09914  -1.08684  -1.07430
 Alpha  occ. eigenvalues --   -1.06960  -1.05937  -1.04243  -1.02721  -1.02626
 Alpha  occ. eigenvalues --   -0.98459  -0.97871  -0.93356  -0.92601  -0.88293
 Alpha  occ. eigenvalues --   -0.88189  -0.85615  -0.84134  -0.82834  -0.82570
 Alpha  occ. eigenvalues --   -0.81069  -0.79764  -0.78048  -0.77720  -0.76589
 Alpha  occ. eigenvalues --   -0.75718  -0.75413  -0.75208  -0.72423  -0.71595
 Alpha  occ. eigenvalues --   -0.71115  -0.69186  -0.68012  -0.67187  -0.66841
 Alpha  occ. eigenvalues --   -0.66727  -0.66322  -0.64701  -0.64357  -0.63914
 Alpha  occ. eigenvalues --   -0.63583  -0.62038  -0.61503  -0.61444  -0.60740
 Alpha  occ. eigenvalues --   -0.60344  -0.59439  -0.58758  -0.58526  -0.58368
 Alpha  occ. eigenvalues --   -0.57102  -0.56210  -0.55793  -0.55213  -0.54814
 Alpha  occ. eigenvalues --   -0.54516  -0.53897  -0.53148  -0.52838  -0.52421
 Alpha  occ. eigenvalues --   -0.52304  -0.51843  -0.51138  -0.50929  -0.50598
 Alpha  occ. eigenvalues --   -0.49844  -0.49234  -0.48944  -0.48803  -0.48468
 Alpha  occ. eigenvalues --   -0.47875  -0.47538  -0.47315  -0.47154  -0.46752
 Alpha  occ. eigenvalues --   -0.46426  -0.46180  -0.46124  -0.45918  -0.45064
 Alpha  occ. eigenvalues --   -0.44898  -0.44490  -0.44136  -0.44060  -0.43289
 Alpha  occ. eigenvalues --   -0.43052  -0.42978  -0.42796  -0.42606  -0.42229
 Alpha  occ. eigenvalues --   -0.41672  -0.41631  -0.40446  -0.39607  -0.39195
 Alpha  occ. eigenvalues --   -0.38847  -0.38035  -0.37808  -0.37636  -0.35361
 Alpha  occ. eigenvalues --   -0.34638  -0.34553  -0.33461  -0.32856  -0.31950
 Alpha  occ. eigenvalues --   -0.31702  -0.30902  -0.30559  -0.29809  -0.28107
 Alpha  occ. eigenvalues --   -0.26803  -0.25065
 Alpha virt. eigenvalues --   -0.13381  -0.13103  -0.09687  -0.06952  -0.05689
 Alpha virt. eigenvalues --   -0.05666  -0.04939  -0.04765  -0.04596  -0.02959
 Alpha virt. eigenvalues --   -0.02375  -0.01959  -0.01640  -0.00701  -0.00298

 Mulliken charges:
               1
     1  N   -0.706968
     2  H    0.306338
     3  H    0.327602
     4  C   -0.063239
     5  H    0.129689
     6  C    0.616520
     7  C   -0.283172
     8  H    0.179740
     9  H    0.159990
    10  O   -0.555740
    11  C   -0.342444
    12  H    0.171900
    13  H    0.177992
    14  C    0.613567
    15  O   -0.483535
    16  O   -0.566672
    17  N   -0.594068
    18  H    0.334473
    19  C   -0.050026
    20  H    0.178287
    21  C    0.640381
    22  C   -0.390395
    23  H    0.165668
    24  H    0.175509
    25  O   -0.557220
    26  C    0.064035
    27  C   -0.016469
    28  H    0.155884
    29  C    0.086084
    30  C    0.311283
    31  C   -0.208015
    32  H    0.118591
    33  N   -0.687037
    34  H    0.334246
    35  C   -0.150058
    36  H    0.132845
    37  C   -0.160866
    38  H    0.131619
    39  C   -0.138868
    40  H    0.124419
    41  N   -0.620327
    42  H    0.392108
    43  C   -0.094567
    44  H    0.158923
    45  C    0.631050
    46  C    0.160315
    47  H    0.163113
    48  O   -0.520090
    49  C   -0.464274
    50  H    0.129959
    51  H    0.178736
    52  H    0.142169
    53  O   -0.636021
    54  H    0.412071
    55  N   -0.628459
    56  H    0.355302
    57  C   -0.048555
    58  H    0.218082
    59  C    0.616270
    60  C   -0.282690
    61  H    0.156197
    62  H    0.213436
    63  O   -0.506265
    64  C   -0.275764
    65  H    0.160721
    66  H    0.174011
    67  C   -0.189764
    68  H    0.196488
    69  H    0.195841
    70  N   -0.594897
    71  H    0.364771
    72  N   -0.791901
    73  H    0.375442
    74  H    0.445537
    75  N   -0.768602
    76  H    0.384146
    77  H    0.385243
    78  C    0.827668
    79  O   -0.542028
    80  H    0.437143
    81  H    0.407586
 Sum of Mulliken charges =   1.00000

 Dipole moment (field-independent basis, Debye):
    X=             28.9552    Y=             -6.7934    Z=            -17.5911  Tot=             34.5543
 Quadrupole moment (field-independent basis, Debye-Ang):
   XX=             72.1385   YY=           -188.1587   ZZ=           -161.9578
   XY=            -97.0238   XZ=           -132.4392   YZ=             59.2342

 Normal termination of Gaussian 16 at Thu May 26 18:08:08 2022.
