 Gaussian 16, Revision C.01,
 Gaussian 16:  ES64L-G16RevC.01  3-Jul-2019

 -------------------------------------------------------------------
 # B3LYP/6-31G* guess=read geom=check nosymm integral(ultrafinegrid)
 -------------------------------------------------------------------

 ------------------------------------------------------
 Candidate Structure: Conf:123 Charge calc in gas phase
 ------------------------------------------------------
 Structure from the checkpoint file:  "conf-123.chk"
 Charge =  1 Multiplicity = 1

                          Input orientation:
 ---------------------------------------------------------------------
 Center     Atomic      Atomic             Coordinates (Angstroms)
 Number     Number       Type             X           Y           Z
 ---------------------------------------------------------------------
      1          7           0       -3.286849    0.917959    4.463907
      2          1           0       -3.981403    0.171190    4.422009
      3          1           0       -2.384945    0.443205    4.518354
      4          6           0       -3.319468    1.689309    3.229663
      5          1           0       -4.352603    1.982745    3.020002
      6          6           0       -2.800494    0.928493    1.999701
      7          6           0       -2.477079    2.987030    3.374325
      8          1           0       -1.703615    2.815704    4.130425
      9          1           0       -1.969453    3.213348    2.430624
     10          8           0       -2.000318   -0.007291    2.109160
     11          6           0       -3.344271    4.180508    3.785510
     12          1           0       -2.737139    5.041609    4.086838
     13          1           0       -3.967665    3.920183    4.650046
     14          6           0       -4.256376    4.623970    2.661392
     15          8           0       -4.348101    4.100771    1.565529
     16          8           0       -4.999086    5.698682    2.999181
     17          7           0       -3.216054    1.395187    0.800257
     18          1           0       -3.708055    2.282851    0.783634
     19          6           0       -2.622533    0.851702   -0.406627
     20          1           0       -2.841665   -0.216466   -0.466853
     21          6           0       -1.107751    1.069264   -0.322858
     22          6           0       -3.172750    1.519180   -1.690920
     23          1           0       -2.539339    1.161354   -2.515397
     24          1           0       -3.012218    2.602648   -1.614021
     25          8           0       -0.655301    2.223902   -0.258013
     26          6           0       -4.613631    1.220280   -2.002513
     27          6           0       -5.077960    0.071511   -2.599572
     28          1           0       -4.531654   -0.800256   -2.934923
     29          6           0       -5.770162    2.059105   -1.783602
     30          6           0       -6.902720    1.346048   -2.269615
     31          6           0       -5.965714    3.346279   -1.253208
     32          1           0       -5.129463    3.911452   -0.852862
     33          7           0       -6.446941    0.137908   -2.755003
     34          1           0       -7.022097   -0.584268   -3.160287
     35          6           0       -8.357919    3.141774   -1.693963
     36          1           0       -9.350074    3.581653   -1.647428
     37          6           0       -8.198849    1.870254   -2.229251
     38          1           0       -9.048242    1.304995   -2.603243
     39          6           0       -7.251563    3.872659   -1.213277
     40          1           0       -7.411535    4.867616   -0.806468
     41          7           0       -0.339018   -0.044930   -0.336369
     42          1           0       -0.774126   -0.953505   -0.122345
     43          6           0        1.048338   -0.019510    0.160546
     44          1           0        1.097161    0.729476    0.964338
     45          6           0        2.074560    0.406236   -0.914301
     46          6           0        1.439798   -1.420844    0.683057
     47          1           0        1.805637   -2.007674   -0.163818
     48          8           0        3.065868   -0.246253   -1.221836
     49          6           0        2.547777   -1.293998    1.724714
     50          1           0        3.422936   -0.792596    1.300211
     51          1           0        2.850869   -2.287845    2.066900
     52          1           0        2.198321   -0.719861    2.591877
     53          8           0        0.309055   -2.134840    1.178241
     54          1           0       -0.086339   -1.648393    1.934352
     55          7           0        1.795147    1.614976   -1.487231
     56          1           0        1.019102    2.149507   -1.084738
     57          6           0        2.750232    2.209024   -2.389011
     58          1           0        2.981709    1.491020   -3.180989
     59          6           0        4.070293    2.545603   -1.672148
     60          6           0        2.141882    3.491945   -2.989763
     61          1           0        2.037134    4.235090   -2.187561
     62          1           0        1.129638    3.245619   -3.333410
     63          8           0        4.177131    2.892320   -0.522290
     64          6           0        2.959149    4.075973   -4.149547
     65          1           0        3.978987    4.305840   -3.824227
     66          1           0        3.042647    3.324737   -4.946373
     67          6           0        2.311944    5.342788   -4.709807
     68          1           0        1.292732    5.128144   -5.059248
     69          1           0        2.254769    6.114300   -3.933167
     70          7           0        3.124066    5.864519   -5.828776
     71          1           0        3.705209    5.191984   -6.316514
     72          7           0        2.049638    7.931539   -5.986276
     73          1           0        2.071325    8.913527   -6.230517
     74          1           0        1.201058    7.592009   -5.554127
     75          7           0        3.957664    7.506841   -7.228397
     76          1           0        4.817234    6.994687   -7.360332
     77          1           0        3.773964    8.265496   -7.867506
     78          6           0        3.035668    7.091165   -6.355509
     79          8           0        5.125925    2.473311   -2.527364
     80          1           0        5.918902    2.685502   -1.997641
     81          1           0       -5.574287    5.888990    2.234430
 ---------------------------------------------------------------------

 SCF Done:  E(RB3LYP) =  -2053.93571323     A.U. after    1 cycles

 Alpha  occ. eigenvalues --  -19.27477 -19.26200 -19.21506 -19.21305 -19.19996
 Alpha  occ. eigenvalues --  -19.18560 -19.17996 -19.17030 -14.55429 -14.55265
 Alpha  occ. eigenvalues --  -14.55264 -14.42994 -14.41904 -14.41512 -14.40825
 Alpha  occ. eigenvalues --  -14.36212 -10.51737 -10.39468 -10.39060 -10.38240
 Alpha  occ. eigenvalues --  -10.34915 -10.34722 -10.33221 -10.32118 -10.32063
 Alpha  occ. eigenvalues --  -10.30334 -10.29124 -10.28939 -10.28864 -10.27166
 Alpha  occ. eigenvalues --  -10.26978 -10.26613 -10.26046 -10.25696 -10.24466
 Alpha  occ. eigenvalues --  -10.23500 -10.23471 -10.23235 -10.23062 -10.23020
 Alpha  occ. eigenvalues --  -10.22692 -10.22024  -1.19981  -1.18075  -1.17391
 Alpha  occ. eigenvalues --   -1.10427  -1.09712  -1.09136  -1.09078  -1.08445
 Alpha  occ. eigenvalues --   -1.08284  -1.08273  -1.07105  -1.02823  -0.99240
 Alpha  occ. eigenvalues --   -0.97966  -0.97667  -0.93650  -0.93227  -0.88427
 Alpha  occ. eigenvalues --   -0.87029  -0.85974  -0.84979  -0.83528  -0.82317
 Alpha  occ. eigenvalues --   -0.81105  -0.79424  -0.78115  -0.77364  -0.77158
 Alpha  occ. eigenvalues --   -0.76163  -0.75228  -0.74242  -0.73034  -0.71748
 Alpha  occ. eigenvalues --   -0.69505  -0.69033  -0.68739  -0.67717  -0.66962
 Alpha  occ. eigenvalues --   -0.65922  -0.64995  -0.64297  -0.64081  -0.63623
 Alpha  occ. eigenvalues --   -0.63083  -0.62819  -0.62057  -0.61193  -0.59965
 Alpha  occ. eigenvalues --   -0.59065  -0.58272  -0.58167  -0.57890  -0.56747
 Alpha  occ. eigenvalues --   -0.56474  -0.55733  -0.55627  -0.54827  -0.54496
 Alpha  occ. eigenvalues --   -0.53933  -0.53788  -0.53493  -0.53056  -0.51956
 Alpha  occ. eigenvalues --   -0.51832  -0.51581  -0.51323  -0.50870  -0.49610
 Alpha  occ. eigenvalues --   -0.48958  -0.48848  -0.48555  -0.48187  -0.47933
 Alpha  occ. eigenvalues --   -0.47509  -0.47412  -0.47141  -0.46877  -0.46663
 Alpha  occ. eigenvalues --   -0.46474  -0.46401  -0.45915  -0.45655  -0.45538
 Alpha  occ. eigenvalues --   -0.44923  -0.44870  -0.44168  -0.43851  -0.43396
 Alpha  occ. eigenvalues --   -0.42943  -0.42476  -0.42235  -0.41890  -0.41616
 Alpha  occ. eigenvalues --   -0.41379  -0.40951  -0.39914  -0.39348  -0.38988
 Alpha  occ. eigenvalues --   -0.38561  -0.38102  -0.37928  -0.37219  -0.35326
 Alpha  occ. eigenvalues --   -0.34861  -0.34121  -0.33434  -0.32637  -0.32127
 Alpha  occ. eigenvalues --   -0.32029  -0.31430  -0.30849  -0.29705  -0.28457
 Alpha  occ. eigenvalues --   -0.26929  -0.25023
 Alpha virt. eigenvalues --   -0.15810  -0.11115  -0.07504  -0.07128  -0.06555
 Alpha virt. eigenvalues --   -0.05997  -0.05776  -0.05736  -0.04867  -0.04078
 Alpha virt. eigenvalues --   -0.02842  -0.02704  -0.02031  -0.01755  -0.00048

 Mulliken charges:
               1
     1  N   -0.702405
     2  H    0.306800
     3  H    0.309446
     4  C   -0.083495
     5  H    0.156032
     6  C    0.582175
     7  C   -0.261879
     8  H    0.159827
     9  H    0.171025
    10  O   -0.568504
    11  C   -0.365942
    12  H    0.186281
    13  H    0.209121
    14  C    0.589333
    15  O   -0.476612
    16  O   -0.553048
    17  N   -0.608696
    18  H    0.390186
    19  C   -0.006441
    20  H    0.158812
    21  C    0.648814
    22  C   -0.398875
    23  H    0.151434
    24  H    0.165077
    25  O   -0.583338
    26  C    0.073686
    27  C    0.002146
    28  H    0.150528
    29  C    0.074828
    30  C    0.311902
    31  C   -0.215039
    32  H    0.135598
    33  N   -0.687207
    34  H    0.333197
    35  C   -0.150828
    36  H    0.130160
    37  C   -0.161026
    38  H    0.129979
    39  C   -0.144824
    40  H    0.111343
    41  N   -0.603864
    42  H    0.364839
    43  C   -0.105506
    44  H    0.181135
    45  C    0.648441
    46  C    0.130581
    47  H    0.175110
    48  O   -0.527690
    49  C   -0.474122
    50  H    0.176317
    51  H    0.168133
    52  H    0.137939
    53  O   -0.638880
    54  H    0.412962
    55  N   -0.653199
    56  H    0.385597
    57  C    0.011676
    58  H    0.184743
    59  C    0.590105
    60  C   -0.318875
    61  H    0.174373
    62  H    0.172982
    63  O   -0.448492
    64  C   -0.313228
    65  H    0.185601
    66  H    0.165381
    67  C   -0.144119
    68  H    0.186767
    69  H    0.194392
    70  N   -0.607591
    71  H    0.371301
    72  N   -0.752791
    73  H    0.391200
    74  H    0.396561
    75  N   -0.754475
    76  H    0.390684
    77  H    0.390083
    78  C    0.830279
    79  O   -0.576520
    80  H    0.417338
    81  H    0.415262
 Sum of Mulliken charges =   1.00000

 Dipole moment (field-independent basis, Debye):
    X=              7.4731    Y=             32.6899    Z=            -28.7800  Tot=             44.1901
 Quadrupole moment (field-independent basis, Debye-Ang):
   XX=           -154.3289   YY=              0.7822   ZZ=            -45.0772
   XY=             91.6342   XZ=            -85.1665   YZ=           -197.5123

 Normal termination of Gaussian 16 at Thu May 26 18:03:57 2022.
