 Gaussian 16, Revision C.01,
 Gaussian 16:  ES64L-G16RevC.01  3-Jul-2019

 ----------------------------------------------------------------------
 # B3LYP/6-31G* empiricaldispersion=gd3 guess=read geom=check nosymm in
 tegral(ultrafinegrid)
 ----------------------------------------------------------------------

 ------------------------------------------------------
 Candidate Structure: Conf:807 Charge calc in gas phase
 ------------------------------------------------------
 Structure from the checkpoint file:  "conf-807.chk"
 Charge =  1 Multiplicity = 1

                          Input orientation:
 ---------------------------------------------------------------------
 Center     Atomic      Atomic             Coordinates (Angstroms)
 Number     Number       Type             X           Y           Z
 ---------------------------------------------------------------------
      1          7           0       -4.502904   -1.681456    0.906567
      2          1           0       -4.412865   -2.111452   -0.013129
      3          1           0       -4.950157   -2.370519    1.508411
      4          6           0       -3.158867   -1.388140    1.419588
      5          1           0       -3.272428   -0.987852    2.436155
      6          6           0       -2.595964   -0.305830    0.503072
      7          6           0       -2.184494   -2.585034    1.462148
      8          1           0       -2.611830   -3.358951    2.108205
      9          1           0       -2.113473   -3.012072    0.455112
     10          8           0       -2.454854   -0.528031   -0.709852
     11          6           0       -0.788233   -2.210033    1.961638
     12          1           0       -0.833927   -1.610096    2.880701
     13          1           0       -0.234288   -1.607758    1.234168
     14          6           0        0.066624   -3.418404    2.280070
     15          8           0       -0.316440   -4.564217    2.291406
     16          8           0        1.345179   -3.062172    2.565034
     17          7           0       -2.266094    0.874723    1.076450
     18          1           0       -2.494650    1.001689    2.054352
     19          6           0       -1.720781    2.007586    0.336058
     20          1           0       -1.982699    1.857942   -0.709029
     21          6           0       -0.185464    2.074467    0.330786
     22          6           0       -2.365411    3.327128    0.826464
     23          1           0       -1.760303    4.156975    0.448952
     24          1           0       -2.296646    3.375604    1.921992
     25          8           0        0.374639    2.689846   -0.577884
     26          6           0       -3.777901    3.452255    0.334022
     27          6           0       -4.914564    2.869884    0.842761
     28          1           0       -5.056615    2.283349    1.739032
     29          6           0       -4.170286    4.094460   -0.896493
     30          6           0       -5.563505    3.850955   -1.077754
     31          6           0       -3.476954    4.835985   -1.872105
     32          1           0       -2.417304    5.045929   -1.751795
     33          7           0       -5.983136    3.102127   -0.000202
     34          1           0       -6.934767    2.820846    0.182691
     35          6           0       -5.548727    5.026787   -3.153953
     36          1           0       -6.062543    5.401512   -4.033796
     37          6           0       -6.262251    4.306306   -2.203454
     38          1           0       -7.322921    4.108863   -2.327494
     39          6           0       -4.170315    5.296354   -2.988199
     40          1           0       -3.653867    5.895208   -3.733819
     41          7           0        0.444726    1.466572    1.358933
     42          1           0       -0.076984    0.852473    1.976655
     43          6           0        1.882601    1.205847    1.352129
     44          1           0        2.402615    2.125438    1.068123
     45          6           0        2.135155    0.093812    0.320296
     46          6           0        2.306291    0.761058    2.772946
     47          1           0        3.322798    0.349131    2.698851
     48          8           0        1.943766   -1.095401    0.598104
     49          6           0        2.296077    1.922136    3.758369
     50          1           0        3.038159    2.677573    3.480444
     51          1           0        2.527746    1.549925    4.759620
     52          1           0        1.309380    2.396603    3.786502
     53          8           0        1.402725   -0.227487    3.256157
     54          1           0        1.578129   -1.054690    2.768860
     55          7           0        2.504687    0.518782   -0.905906
     56          1           0        2.548108    1.513504   -1.096472
     57          6           0        2.579041   -0.399926   -2.023405
     58          1           0        2.894075   -1.372487   -1.638712
     59          6           0        3.619516    0.121858   -3.004481
     60          6           0        1.215454   -0.577389   -2.738190
     61          1           0        0.488834   -0.869983   -1.969128
     62          1           0        1.308799   -1.416282   -3.438637
     63          8           0        3.980070    1.276468   -3.067733
     64          6           0        0.737306    0.674926   -3.489973
     65          1           0        0.637638    1.521866   -2.800088
     66          1           0        1.482379    0.957739   -4.243747
     67          6           0       -0.592935    0.437039   -4.219626
     68          1           0       -0.730504    1.147859   -5.038586
     69          1           0       -0.607669   -0.555835   -4.683424
     70          7           0       -1.766761    0.516697   -3.340845
     71          1           0       -1.863515   -0.169769   -2.593612
     72          7           0       -2.475726    2.642997   -4.011625
     73          1           0       -3.118826    3.414960   -3.865481
     74          1           0       -1.548686    2.900126   -4.311242
     75          7           0       -3.776292    1.383126   -2.574389
     76          1           0       -3.857876    0.568469   -1.972738
     77          1           0       -4.284061    2.212690   -2.286295
     78          6           0       -2.647778    1.521265   -3.291841
     79          8           0        4.024495   -0.846589   -3.846216
     80          1           0        4.658520   -0.445130   -4.471449
     81          1           0        1.835958   -3.885141    2.751243
 ---------------------------------------------------------------------

 SCF Done:  E(RB3LYP) =  -2054.09841980     A.U. after    1 cycles

 Alpha  occ. eigenvalues --  -19.29118 -19.27377 -19.24503 -19.23484 -19.22113
 Alpha  occ. eigenvalues --  -19.21967 -19.21486 -19.20979 -14.49817 -14.49706
 Alpha  occ. eigenvalues --  -14.49104 -14.49047 -14.48932 -14.46433 -14.45552
 Alpha  occ. eigenvalues --  -14.41658 -10.46145 -10.41487 -10.41105 -10.39774
 Alpha  occ. eigenvalues --  -10.39217 -10.38064 -10.34922 -10.34640 -10.33343
 Alpha  occ. eigenvalues --  -10.33144 -10.32939 -10.32918 -10.32548 -10.32414
 Alpha  occ. eigenvalues --  -10.30964 -10.29944 -10.29899 -10.29668 -10.29521
 Alpha  occ. eigenvalues --  -10.29492 -10.29396 -10.29318 -10.29272 -10.28237
 Alpha  occ. eigenvalues --  -10.27869 -10.25269  -1.20068  -1.18057  -1.16046
 Alpha  occ. eigenvalues --   -1.14710  -1.14076  -1.12840  -1.11177  -1.09677
 Alpha  occ. eigenvalues --   -1.09112  -1.08973  -1.05450  -1.04167  -1.02768
 Alpha  occ. eigenvalues --   -1.02617  -1.02119  -0.98981  -0.95077  -0.91919
 Alpha  occ. eigenvalues --   -0.90953  -0.88500  -0.87854  -0.86476  -0.85274
 Alpha  occ. eigenvalues --   -0.84661  -0.82926  -0.80622  -0.80377  -0.79095
 Alpha  occ. eigenvalues --   -0.77143  -0.76559  -0.73923  -0.73193  -0.72720
 Alpha  occ. eigenvalues --   -0.71963  -0.71434  -0.70957  -0.69946  -0.69022
 Alpha  occ. eigenvalues --   -0.68456  -0.67844  -0.67267  -0.66940  -0.66421
 Alpha  occ. eigenvalues --   -0.64800  -0.63863  -0.63441  -0.62691  -0.62299
 Alpha  occ. eigenvalues --   -0.61820  -0.60937  -0.60102  -0.59240  -0.59123
 Alpha  occ. eigenvalues --   -0.58524  -0.58390  -0.57968  -0.57819  -0.57594
 Alpha  occ. eigenvalues --   -0.56789  -0.56230  -0.55860  -0.55757  -0.55393
 Alpha  occ. eigenvalues --   -0.55106  -0.54594  -0.54168  -0.54015  -0.53389
 Alpha  occ. eigenvalues --   -0.53297  -0.52820  -0.52679  -0.52212  -0.51672
 Alpha  occ. eigenvalues --   -0.51362  -0.51115  -0.50945  -0.50528  -0.50043
 Alpha  occ. eigenvalues --   -0.49690  -0.48936  -0.48646  -0.48457  -0.48150
 Alpha  occ. eigenvalues --   -0.47926  -0.47398  -0.46915  -0.46310  -0.46115
 Alpha  occ. eigenvalues --   -0.45915  -0.45790  -0.44943  -0.44705  -0.44551
 Alpha  occ. eigenvalues --   -0.44500  -0.44316  -0.44183  -0.43505  -0.41304
 Alpha  occ. eigenvalues --   -0.41203  -0.41077  -0.40109  -0.39406  -0.39262
 Alpha  occ. eigenvalues --   -0.38238  -0.38114  -0.37665  -0.37065  -0.35824
 Alpha  occ. eigenvalues --   -0.35675  -0.34990  -0.34735  -0.33874  -0.33692
 Alpha  occ. eigenvalues --   -0.33197  -0.31293
 Alpha virt. eigenvalues --   -0.12239  -0.10715  -0.10373  -0.09410  -0.08998
 Alpha virt. eigenvalues --   -0.08632  -0.07171  -0.06366  -0.05267  -0.04766
 Alpha virt. eigenvalues --   -0.04396  -0.02100  -0.01830  -0.01352  -0.00543

 Mulliken charges:
               1
     1  N   -0.723679
     2  H    0.314342
     3  H    0.321121
     4  C   -0.079730
     5  H    0.139817
     6  C    0.662318
     7  C   -0.263833
     8  H    0.175970
     9  H    0.164029
    10  O   -0.589099
    11  C   -0.422648
    12  H    0.183094
    13  H    0.203800
    14  C    0.604707
    15  O   -0.447085
    16  O   -0.571264
    17  N   -0.616104
    18  H    0.346443
    19  C   -0.044235
    20  H    0.181107
    21  C    0.629586
    22  C   -0.394029
    23  H    0.195796
    24  H    0.165479
    25  O   -0.545085
    26  C    0.088949
    27  C    0.006041
    28  H    0.168659
    29  C    0.037771
    30  C    0.288003
    31  C   -0.228541
    32  H    0.157026
    33  N   -0.671371
    34  H    0.350500
    35  C   -0.144102
    36  H    0.161673
    37  C   -0.163239
    38  H    0.159090
    39  C   -0.195929
    40  H    0.155745
    41  N   -0.601883
    42  H    0.353196
    43  C   -0.066727
    44  H    0.176013
    45  C    0.624252
    46  C    0.103719
    47  H    0.149485
    48  O   -0.546077
    49  C   -0.450796
    50  H    0.155753
    51  H    0.179254
    52  H    0.147825
    53  O   -0.679748
    54  H    0.467866
    55  N   -0.588775
    56  H    0.368661
    57  C   -0.048018
    58  H    0.213367
    59  C    0.588634
    60  C   -0.286362
    61  H    0.166885
    62  H    0.170961
    63  O   -0.460200
    64  C   -0.303022
    65  H    0.189479
    66  H    0.170719
    67  C   -0.177079
    68  H    0.172108
    69  H    0.192194
    70  N   -0.602604
    71  H    0.404397
    72  N   -0.761426
    73  H    0.382015
    74  H    0.372904
    75  N   -0.766589
    76  H    0.385936
    77  H    0.392398
    78  C    0.760008
    79  O   -0.560410
    80  H    0.426444
    81  H    0.424152
 Sum of Mulliken charges =   1.00000

 Dipole moment (field-independent basis, Debye):
    X=            -10.9723    Y=              7.0784    Z=             -6.8582  Tot=             14.7489
 Quadrupole moment (field-independent basis, Debye-Ang):
   XX=           -152.2980   YY=           -223.0960   ZZ=           -182.9219
   XY=            -35.1369   XZ=              5.7969   YZ=            -14.8652

 Normal termination of Gaussian 16 at Thu May 12 23:07:41 2022.
