 Gaussian 16, Revision C.01,
 Gaussian 16:  ES64L-G16RevC.01  3-Jul-2019

 -------------------------------------------------------------------
 # B3LYP/6-31G* guess=read geom=check nosymm integral(ultrafinegrid)
 -------------------------------------------------------------------

 ------------------------------------------------------
 Candidate Structure: Conf:197 Charge calc in gas phase
 ------------------------------------------------------
 Structure from the checkpoint file:  "conf-197.chk"
 Charge =  1 Multiplicity = 1

                          Input orientation:
 ---------------------------------------------------------------------
 Center     Atomic      Atomic             Coordinates (Angstroms)
 Number     Number       Type             X           Y           Z
 ---------------------------------------------------------------------
      1          7           0       -5.162252    0.392514    2.874671
      2          1           0       -5.595641    0.859084    2.078672
      3          1           0       -5.197513   -0.608261    2.677784
      4          6           0       -3.757264    0.790718    2.984619
      5          1           0       -3.718336    1.882866    2.996789
      6          6           0       -2.935882    0.259483    1.798445
      7          6           0       -3.206922    0.264783    4.326072
      8          1           0       -3.699513    0.829050    5.123548
      9          1           0       -3.518709   -0.780398    4.434350
     10          8           0       -2.924004   -0.937379    1.502116
     11          6           0       -1.683979    0.299692    4.492422
     12          1           0       -1.197705   -0.402501    3.803643
     13          1           0       -1.405381   -0.047925    5.495504
     14          6           0       -1.040579    1.649936    4.291625
     15          8           0       -1.580185    2.694628    4.003446
     16          8           0        0.318443    1.585515    4.464804
     17          7           0       -2.245933    1.193879    1.078174
     18          1           0       -2.314650    2.165785    1.354002
     19          6           0       -1.614413    0.884705   -0.201993
     20          1           0       -1.851714   -0.167417   -0.387741
     21          6           0       -0.084498    1.004733   -0.075008
     22          6           0       -2.150785    1.759456   -1.342808
     23          1           0       -1.524974    1.573016   -2.227082
     24          1           0       -1.970471    2.813567   -1.092622
     25          8           0        0.540836    1.965662   -0.539703
     26          6           0       -3.602052    1.539005   -1.669795
     27          6           0       -4.411597    0.484589   -1.317855
     28          1           0       -4.200337   -0.381818   -0.705243
     29          6           0       -4.408034    2.417150   -2.483921
     30          6           0       -5.700091    1.833246   -2.585693
     31          6           0       -4.163169    3.638899   -3.135971
     32          1           0       -3.185674    4.111561   -3.076681
     33          7           0       -5.670561    0.658229   -1.863357
     34          1           0       -6.442992    0.020143   -1.751529
     35          6           0       -6.463225    3.638607   -3.942398
     36          1           0       -7.246438    4.130648   -4.512075
     37          6           0       -6.736561    2.431458   -3.310253
     38          1           0       -7.719270    1.972018   -3.376426
     39          6           0       -5.189210    4.237419   -3.855794
     40          1           0       -5.012275    5.183123   -4.360555
     41          7           0        0.519553   -0.023893    0.573325
     42          1           0       -0.066643   -0.680542    1.081212
     43          6           0        1.923605    0.026272    0.995656
     44          1           0        2.142621    1.052453    1.323410
     45          6           0        2.855930   -0.308878   -0.194537
     46          6           0        2.151198   -0.964959    2.163685
     47          1           0        2.133714   -1.976338    1.748269
     48          8           0        3.462252   -1.371270   -0.294083
     49          6           0        3.488882   -0.730698    2.861096
     50          1           0        4.323454   -0.866836    2.167852
     51          1           0        3.600806   -1.444448    3.682228
     52          1           0        3.542784    0.283408    3.279664
     53          8           0        1.061811   -0.915439    3.077472
     54          1           0        1.107243   -0.082201    3.582558
     55          7           0        2.956165    0.686198   -1.125046
     56          1           0        2.279883    1.452063   -1.062030
     57          6           0        3.705299    0.448996   -2.338099
     58          1           0        4.522472   -0.232207   -2.068357
     59          6           0        4.359962    1.718127   -2.859700
     60          6           0        2.845276   -0.281355   -3.412776
     61          1           0        2.038029    0.382043   -3.750165
     62          1           0        2.367311   -1.097951   -2.866381
     63          8           0        5.097836    1.760192   -3.838103
     64          6           0        3.620038   -0.873504   -4.611108
     65          1           0        4.671374   -1.020116   -4.337530
     66          1           0        3.226042   -1.870451   -4.840168
     67          6           0        3.532453   -0.017046   -5.884786
     68          1           0        2.523152   -0.049941   -6.304536
     69          1           0        3.757694    1.031471   -5.682276
     70          7           0        4.442692   -0.475687   -6.949091
     71          1           0        4.127817   -1.244486   -7.527005
     72          7           0        6.321937    0.631176   -6.132518
     73          1           0        7.223809    1.043953   -6.325136
     74          1           0        5.856207    0.919719   -5.265016
     75          7           0        6.450242   -0.592120   -8.096565
     76          1           0        5.999320   -0.982071   -8.911382
     77          1           0        7.452684   -0.478826   -8.134666
     78          6           0        5.735078   -0.140310   -7.046981
     79          8           0        4.064570    2.813092   -2.161967
     80          1           0        4.532983    3.566757   -2.572004
     81          1           0        0.649541    2.496333    4.344438
 ---------------------------------------------------------------------

 SCF Done:  E(RB3LYP) =  -2053.95541462     A.U. after    1 cycles

 Alpha  occ. eigenvalues --  -19.32154 -19.27384 -19.27156 -19.21486 -19.21277
 Alpha  occ. eigenvalues --  -19.20410 -19.20146 -19.18029 -14.53182 -14.53142
 Alpha  occ. eigenvalues --  -14.51973 -14.44174 -14.43959 -14.43201 -14.42822
 Alpha  occ. eigenvalues --  -14.36982 -10.49335 -10.45108 -10.39454 -10.37085
 Alpha  occ. eigenvalues --  -10.36931 -10.36399 -10.34704 -10.34678 -10.31302
 Alpha  occ. eigenvalues --  -10.31153 -10.31031 -10.30527 -10.30456 -10.27737
 Alpha  occ. eigenvalues --  -10.26765 -10.26561 -10.26287 -10.25735 -10.24617
 Alpha  occ. eigenvalues --  -10.24314 -10.23525 -10.23471 -10.23228 -10.23060
 Alpha  occ. eigenvalues --  -10.22947 -10.22587  -1.23560  -1.17812  -1.17701
 Alpha  occ. eigenvalues --   -1.14151  -1.12443  -1.11573  -1.09754  -1.09067
 Alpha  occ. eigenvalues --   -1.08666  -1.07060  -1.05577  -1.02660  -1.01543
 Alpha  occ. eigenvalues --   -1.00395  -0.99003  -0.94277  -0.92025  -0.88405
 Alpha  occ. eigenvalues --   -0.87570  -0.86299  -0.85405  -0.84725  -0.82178
 Alpha  occ. eigenvalues --   -0.81781  -0.79243  -0.78198  -0.77916  -0.77124
 Alpha  occ. eigenvalues --   -0.76093  -0.75310  -0.74709  -0.72911  -0.71921
 Alpha  occ. eigenvalues --   -0.71006  -0.69981  -0.69446  -0.66989  -0.66922
 Alpha  occ. eigenvalues --   -0.66376  -0.66063  -0.65814  -0.65461  -0.64124
 Alpha  occ. eigenvalues --   -0.63658  -0.63586  -0.61490  -0.61150  -0.60834
 Alpha  occ. eigenvalues --   -0.60259  -0.59441  -0.58685  -0.58533  -0.58049
 Alpha  occ. eigenvalues --   -0.57711  -0.57432  -0.56502  -0.55996  -0.55549
 Alpha  occ. eigenvalues --   -0.55219  -0.54934  -0.54156  -0.53927  -0.52855
 Alpha  occ. eigenvalues --   -0.52725  -0.52568  -0.52283  -0.51788  -0.51537
 Alpha  occ. eigenvalues --   -0.50442  -0.50232  -0.49856  -0.49539  -0.49096
 Alpha  occ. eigenvalues --   -0.48574  -0.48529  -0.48250  -0.48034  -0.47626
 Alpha  occ. eigenvalues --   -0.47233  -0.46855  -0.46174  -0.46106  -0.45990
 Alpha  occ. eigenvalues --   -0.45580  -0.45361  -0.44878  -0.44515  -0.44309
 Alpha  occ. eigenvalues --   -0.44007  -0.43733  -0.43591  -0.43152  -0.42545
 Alpha  occ. eigenvalues --   -0.42056  -0.41582  -0.41069  -0.40939  -0.40290
 Alpha  occ. eigenvalues --   -0.39904  -0.39568  -0.38790  -0.38133  -0.37890
 Alpha  occ. eigenvalues --   -0.36096  -0.35371  -0.34629  -0.34223  -0.34066
 Alpha  occ. eigenvalues --   -0.32800  -0.32325  -0.31906  -0.31715  -0.28845
 Alpha  occ. eigenvalues --   -0.26865  -0.25062
 Alpha virt. eigenvalues --   -0.13030  -0.12026  -0.09390  -0.07132  -0.06427
 Alpha virt. eigenvalues --   -0.06262  -0.05712  -0.05389  -0.04550  -0.04129
 Alpha virt. eigenvalues --   -0.03492  -0.01962  -0.01925  -0.00848  -0.00332

 Mulliken charges:
               1
     1  N   -0.701999
     2  H    0.305582
     3  H    0.310767
     4  C   -0.073011
     5  H    0.162922
     6  C    0.604458
     7  C   -0.241124
     8  H    0.174187
     9  H    0.161446
    10  O   -0.558661
    11  C   -0.408042
    12  H    0.217577
    13  H    0.196165
    14  C    0.593361
    15  O   -0.461351
    16  O   -0.588495
    17  N   -0.599056
    18  H    0.349015
    19  C   -0.085307
    20  H    0.195471
    21  C    0.636626
    22  C   -0.342381
    23  H    0.152641
    24  H    0.160945
    25  O   -0.554437
    26  C    0.066576
    27  C   -0.024293
    28  H    0.176095
    29  C    0.073349
    30  C    0.317345
    31  C   -0.212789
    32  H    0.118057
    33  N   -0.704506
    34  H    0.331975
    35  C   -0.151126
    36  H    0.132271
    37  C   -0.161906
    38  H    0.130109
    39  C   -0.139167
    40  H    0.125019
    41  N   -0.614771
    42  H    0.372216
    43  C   -0.073654
    44  H    0.160941
    45  C    0.633172
    46  C    0.120735
    47  H    0.174730
    48  O   -0.528110
    49  C   -0.479351
    50  H    0.173425
    51  H    0.178167
    52  H    0.135021
    53  O   -0.655052
    54  H    0.420370
    55  N   -0.630621
    56  H    0.389088
    57  C   -0.061114
    58  H    0.215763
    59  C    0.615431
    60  C   -0.284104
    61  H    0.160344
    62  H    0.201166
    63  O   -0.516820
    64  C   -0.272225
    65  H    0.159452
    66  H    0.168211
    67  C   -0.188564
    68  H    0.195162
    69  H    0.198029
    70  N   -0.595465
    71  H    0.363779
    72  N   -0.792785
    73  H    0.373752
    74  H    0.449553
    75  N   -0.768998
    76  H    0.383164
    77  H    0.383858
    78  C    0.825171
    79  O   -0.521721
    80  H    0.431075
    81  H    0.417275
 Sum of Mulliken charges =   1.00000

 Dipole moment (field-independent basis, Debye):
    X=             21.4792    Y=              1.9175    Z=            -26.1762  Tot=             33.9150
 Quadrupole moment (field-independent basis, Debye-Ang):
   XX=            -82.1276   YY=           -236.6963   ZZ=            -23.9421
   XY=             16.8841   XZ=           -149.2341   YZ=             13.5698

 Normal termination of Gaussian 16 at Thu May 26 18:03:59 2022.
