 Gaussian 16, Revision C.01,
 Gaussian 16:  ES64L-G16RevC.01  3-Jul-2019

 -------------------------------------------------------------------
 # B3LYP/6-31G* guess=read geom=check nosymm integral(ultrafinegrid)
 -------------------------------------------------------------------

 ------------------------------------------------------
 Candidate Structure: Conf:474 Charge calc in gas phase
 ------------------------------------------------------
 Structure from the checkpoint file:  "conf-474.chk"
 Charge =  1 Multiplicity = 1

                          Input orientation:
 ---------------------------------------------------------------------
 Center     Atomic      Atomic             Coordinates (Angstroms)
 Number     Number       Type             X           Y           Z
 ---------------------------------------------------------------------
      1          7           0       -5.742449    0.373891    3.252547
      2          1           0       -6.318400    0.723615    2.487546
      3          1           0       -5.582071   -0.608945    3.026946
      4          6           0       -4.454061    1.054581    3.238497
      5          1           0       -4.644297    2.132711    3.201938
      6          6           0       -3.583020    0.722185    2.012920
      7          6           0       -3.677420    0.736611    4.546163
      8          1           0       -3.981684   -0.259283    4.884702
      9          1           0       -2.598092    0.698824    4.364219
     10          8           0       -3.823710   -0.216769    1.261851
     11          6           0       -3.961408    1.750435    5.653912
     12          1           0       -3.575893    1.409041    6.622298
     13          1           0       -5.042119    1.886550    5.786565
     14          6           0       -3.339073    3.101795    5.367555
     15          8           0       -2.727277    3.413702    4.359418
     16          8           0       -3.535458    3.971953    6.376498
     17          7           0       -2.519276    1.573936    1.836673
     18          1           0       -2.300680    2.221672    2.592494
     19          6           0       -1.490407    1.281091    0.871421
     20          1           0       -1.865161    0.431831    0.291260
     21          6           0       -0.169225    0.891624    1.553555
     22          6           0       -1.198956    2.485986   -0.073972
     23          1           0       -0.245099    2.283906   -0.583289
     24          1           0       -1.030618    3.373573    0.546989
     25          8           0        0.162696    1.309410    2.661345
     26          6           0       -2.258363    2.774158   -1.096533
     27          6           0       -2.951426    3.950814   -1.241088
     28          1           0       -2.918984    4.842502   -0.629732
     29          6           0       -2.685901    1.922691   -2.182861
     30          6           0       -3.628487    2.663164   -2.955958
     31          6           0       -2.411773    0.589877   -2.562990
     32          1           0       -1.791341   -0.043293   -1.932370
     33          7           0       -3.763656    3.895697   -2.356503
     34          1           0       -4.416154    4.613064   -2.635473
     35          6           0       -3.935592    0.827030   -4.453332
     36          1           0       -4.411354    0.384176   -5.322847
     37          6           0       -4.250716    2.131257   -4.091584
     38          1           0       -4.968799    2.712068   -4.663986
     39          6           0       -3.033889    0.056923   -3.689224
     40          1           0       -2.857583   -0.979122   -3.964291
     41          7           0        0.651966    0.132711    0.774456
     42          1           0        0.295024   -0.343280   -0.042779
     43          6           0        2.014209   -0.187103    1.151657
     44          1           0        2.392778    0.663654    1.731373
     45          6           0        2.804397   -0.329033   -0.152607
     46          6           0        2.103272   -1.460616    2.061423
     47          1           0        1.892226   -2.339572    1.438333
     48          8           0        2.252791   -0.743633   -1.185186
     49          6           0        3.480216   -1.616992    2.713115
     50          1           0        4.279377   -1.777809    1.980474
     51          1           0        3.457188   -2.480380    3.383316
     52          1           0        3.728411   -0.734252    3.317393
     53          8           0        1.076570   -1.430075    3.029682
     54          1           0        0.990006   -0.520983    3.372195
     55          7           0        4.107973    0.011568   -0.117921
     56          1           0        4.530830    0.268201    0.765425
     57          6           0        5.002460   -0.182531   -1.261244
     58          1           0        4.914514   -1.230982   -1.581645
     59          6           0        6.464299   -0.022435   -0.839484
     60          6           0        4.667260    0.735430   -2.472786
     61          1           0        5.570267    1.277688   -2.768875
     62          1           0        3.938368    1.477911   -2.133260
     63          8           0        7.366913    0.140258   -1.622302
     64          6           0        4.115578   -0.033661   -3.678287
     65          1           0        4.924615   -0.586239   -4.172955
     66          1           0        3.396660   -0.782484   -3.337983
     67          6           0        3.480318    0.855624   -4.752875
     68          1           0        4.245716    1.482829   -5.218073
     69          1           0        3.046835    0.232816   -5.542908
     70          7           0        2.446284    1.814008   -4.286117
     71          1           0        2.635327    2.791046   -4.467288
     72          7           0        0.829635    0.331143   -3.483015
     73          1           0       -0.164053    0.141801   -3.379118
     74          1           0        1.456285   -0.150572   -2.834653
     75          7           0        0.222158    2.462613   -4.146438
     76          1           0        0.351885    3.227595   -4.793345
     77          1           0       -0.693166    2.354576   -3.716897
     78          6           0        1.170149    1.528179   -3.969174
     79          8           0        6.635414   -0.122752    0.498269
     80          1           0        7.591941   -0.038702    0.678345
     81          1           0       -3.106782    4.809769    6.116605
 ---------------------------------------------------------------------

 SCF Done:  E(RB3LYP) =  -2053.95297617     A.U. after    1 cycles

 Alpha  occ. eigenvalues --  -19.31159 -19.26070 -19.24941 -19.24402 -19.21140
 Alpha  occ. eigenvalues --  -19.21009 -19.20693 -19.17497 -14.52135 -14.51749
 Alpha  occ. eigenvalues --  -14.50264 -14.48471 -14.47424 -14.45266 -14.41482
 Alpha  occ. eigenvalues --  -14.36552 -10.47893 -10.43453 -10.41175 -10.38855
 Alpha  occ. eigenvalues --  -10.37529 -10.36037 -10.35992 -10.33955 -10.33389
 Alpha  occ. eigenvalues --  -10.32657 -10.31718 -10.31218 -10.31171 -10.30392
 Alpha  occ. eigenvalues --  -10.30329 -10.28931 -10.28690 -10.28631 -10.28466
 Alpha  occ. eigenvalues --  -10.28139 -10.27928 -10.27730 -10.27641 -10.26003
 Alpha  occ. eigenvalues --  -10.25832 -10.24764  -1.21869  -1.17194  -1.16289
 Alpha  occ. eigenvalues --   -1.15905  -1.12911  -1.12617  -1.09230  -1.09007
 Alpha  occ. eigenvalues --   -1.08024  -1.07406  -1.05746  -1.04856  -1.03990
 Alpha  occ. eigenvalues --   -1.01654  -0.98614  -0.94072  -0.93615  -0.92224
 Alpha  occ. eigenvalues --   -0.89614  -0.88451  -0.86013  -0.85139  -0.84176
 Alpha  occ. eigenvalues --   -0.83194  -0.81901  -0.81423  -0.79513  -0.78103
 Alpha  occ. eigenvalues --   -0.77116  -0.74351  -0.74196  -0.73113  -0.71818
 Alpha  occ. eigenvalues --   -0.71574  -0.70709  -0.70147  -0.69265  -0.68827
 Alpha  occ. eigenvalues --   -0.68683  -0.68203  -0.65753  -0.65427  -0.65156
 Alpha  occ. eigenvalues --   -0.64418  -0.64395  -0.63559  -0.63085  -0.61517
 Alpha  occ. eigenvalues --   -0.61192  -0.59876  -0.59529  -0.58780  -0.58324
 Alpha  occ. eigenvalues --   -0.58064  -0.57687  -0.56774  -0.56618  -0.56394
 Alpha  occ. eigenvalues --   -0.55786  -0.55751  -0.54936  -0.54696  -0.54273
 Alpha  occ. eigenvalues --   -0.53991  -0.53960  -0.53145  -0.52930  -0.52783
 Alpha  occ. eigenvalues --   -0.52597  -0.52306  -0.51619  -0.51573  -0.50772
 Alpha  occ. eigenvalues --   -0.50597  -0.50237  -0.49698  -0.49439  -0.48688
 Alpha  occ. eigenvalues --   -0.48073  -0.47740  -0.47689  -0.47375  -0.46977
 Alpha  occ. eigenvalues --   -0.46556  -0.46298  -0.46236  -0.45825  -0.45352
 Alpha  occ. eigenvalues --   -0.45209  -0.45023  -0.43945  -0.43756  -0.43303
 Alpha  occ. eigenvalues --   -0.42857  -0.42643  -0.42387  -0.42057  -0.41382
 Alpha  occ. eigenvalues --   -0.41001  -0.40894  -0.39436  -0.39004  -0.38360
 Alpha  occ. eigenvalues --   -0.38208  -0.37988  -0.37186  -0.35046  -0.34567
 Alpha  occ. eigenvalues --   -0.34462  -0.33587  -0.32145  -0.31925  -0.31340
 Alpha  occ. eigenvalues --   -0.29864  -0.29057
 Alpha virt. eigenvalues --   -0.13315  -0.11311  -0.10671  -0.09880  -0.07986
 Alpha virt. eigenvalues --   -0.07386  -0.06647  -0.05616  -0.04083  -0.03815
 Alpha virt. eigenvalues --   -0.03618  -0.03347  -0.02790  -0.00782  -0.00699

 Mulliken charges:
               1
     1  N   -0.699587
     2  H    0.303634
     3  H    0.312346
     4  C   -0.082636
     5  H    0.156999
     6  C    0.562084
     7  C   -0.260842
     8  H    0.162500
     9  H    0.163132
    10  O   -0.521483
    11  C   -0.362471
    12  H    0.189281
    13  H    0.207442
    14  C    0.587787
    15  O   -0.484163
    16  O   -0.551661
    17  N   -0.610382
    18  H    0.379290
    19  C   -0.077713
    20  H    0.189839
    21  C    0.635140
    22  C   -0.357139
    23  H    0.125724
    24  H    0.170927
    25  O   -0.540016
    26  C    0.097515
    27  C   -0.000339
    28  H    0.173595
    29  C    0.037211
    30  C    0.312759
    31  C   -0.273888
    32  H    0.137109
    33  N   -0.681496
    34  H    0.345154
    35  C   -0.152928
    36  H    0.153561
    37  C   -0.157010
    38  H    0.151383
    39  C   -0.139343
    40  H    0.147747
    41  N   -0.592853
    42  H    0.339197
    43  C   -0.106338
    44  H    0.175655
    45  C    0.637834
    46  C    0.172560
    47  H    0.146521
    48  O   -0.574902
    49  C   -0.478364
    50  H    0.138896
    51  H    0.190681
    52  H    0.147196
    53  O   -0.622179
    54  H    0.413965
    55  N   -0.623743
    56  H    0.373481
    57  C   -0.020171
    58  H    0.214494
    59  C    0.575145
    60  C   -0.279206
    61  H    0.190099
    62  H    0.154588
    63  O   -0.432917
    64  C   -0.303901
    65  H    0.182554
    66  H    0.177786
    67  C   -0.160590
    68  H    0.184631
    69  H    0.196480
    70  N   -0.596823
    71  H    0.360317
    72  N   -0.776538
    73  H    0.369892
    74  H    0.432365
    75  N   -0.762199
    76  H    0.371857
    77  H    0.400633
    78  C    0.759299
    79  O   -0.577556
    80  H    0.438299
    81  H    0.414793
 Sum of Mulliken charges =   1.00000

 Dipole moment (field-independent basis, Debye):
    X=              7.0326    Y=             11.8716    Z=            -13.0499  Tot=             18.9919
 Quadrupole moment (field-independent basis, Debye-Ang):
   XX=           -173.5393   YY=           -192.9682   ZZ=           -158.2731
   XY=            -21.9118   XZ=              0.6349   YZ=            -25.0239

 Normal termination of Gaussian 16 at Thu May 26 18:04:08 2022.
