 Gaussian 16, Revision C.01,
 Gaussian 16:  ES64L-G16RevC.01  3-Jul-2019

 ----------------------------------------------------------------------
 # B3LYP/6-31G* empiricaldispersion=gd3 guess=read geom=check nosymm in
 tegral(ultrafinegrid)
 ----------------------------------------------------------------------

 ------------------------------------------------------
 Candidate Structure: Conf:684 Charge calc in gas phase
 ------------------------------------------------------
 Structure from the checkpoint file:  "conf-684.chk"
 Charge =  1 Multiplicity = 1

                          Input orientation:
 ---------------------------------------------------------------------
 Center     Atomic      Atomic             Coordinates (Angstroms)
 Number     Number       Type             X           Y           Z
 ---------------------------------------------------------------------
      1          7           0       -1.598170   -1.029832    4.809098
      2          1           0       -1.265687   -1.908005    4.412634
      3          1           0       -0.812754   -0.384075    4.719713
      4          6           0       -2.718212   -0.550504    4.001773
      5          1           0       -3.541787   -1.264820    4.140915
      6          6           0       -2.386633   -0.571334    2.492442
      7          6           0       -3.201077    0.817613    4.515773
      8          1           0       -4.189298    1.038590    4.099920
      9          1           0       -3.335118    0.715381    5.595702
     10          8           0       -1.541143   -1.362061    2.046794
     11          6           0       -2.242471    1.999010    4.221999
     12          1           0       -1.388336    1.688881    3.601817
     13          1           0       -1.816673    2.425488    5.133410
     14          6           0       -2.890572    3.109739    3.425075
     15          8           0       -3.818020    2.966062    2.642055
     16          8           0       -2.305535    4.296787    3.636555
     17          7           0       -3.021575    0.297368    1.675652
     18          1           0       -3.618355    1.030533    2.048604
     19          6           0       -2.565391    0.458693    0.305672
     20          1           0       -2.775357   -0.464029   -0.248080
     21          6           0       -1.055423    0.745293    0.302537
     22          6           0       -3.276749    1.656834   -0.356020
     23          1           0       -2.780361    1.843162   -1.318708
     24          1           0       -3.087146    2.539105    0.261583
     25          8           0       -0.585820    1.709957    0.888982
     26          6           0       -4.743143    1.455171   -0.560729
     27          6           0       -5.759291    2.157696    0.040023
     28          1           0       -5.694547    2.932614    0.791264
     29          6           0       -5.363568    0.524250   -1.468062
     30          6           0       -6.768835    0.734638   -1.384643
     31          6           0       -4.883450   -0.474191   -2.336447
     32          1           0       -3.826867   -0.734343   -2.357351
     33          7           0       -6.975450    1.731383   -0.452258
     34          1           0       -7.875361    2.086887   -0.168173
     35          6           0       -7.170682   -0.952576   -3.024069
     36          1           0       -7.854177   -1.535016   -3.634439
     37          6           0       -7.679989    0.008542   -2.156773
     38          1           0       -8.749327    0.184409   -2.079973
     39          6           0       -5.785469   -1.198446   -3.108729
     40          1           0       -5.423637   -1.980639   -3.770111
     41          7           0       -0.316437   -0.106964   -0.490139
     42          1           0       -0.681990   -1.054048   -0.551668
     43          6           0        1.136192   -0.106971   -0.400504
     44          1           0        1.456604    0.915096   -0.178479
     45          6           0        1.689899   -0.551147   -1.751810
     46          6           0        1.631197   -1.076327    0.745247
     47          1           0        2.649139   -1.395045    0.486774
     48          8           0        0.984956   -1.169557   -2.566616
     49          6           0        1.663654   -0.389073    2.110661
     50          1           0        2.329589    0.480259    2.101893
     51          1           0        2.025418   -1.101335    2.858700
     52          1           0        0.666098   -0.051629    2.400159
     53          8           0        0.841454   -2.247113    0.742866
     54          1           0        0.063631   -2.088598    1.313747
     55          7           0        2.976555   -0.223206   -1.984243
     56          1           0        3.487320    0.319239   -1.293204
     57          6           0        3.793242   -0.670898   -3.110238
     58          1           0        3.975433   -1.750886   -3.026734
     59          6           0        5.147276    0.021470   -2.943690
     60          6           0        3.178034   -0.416277   -4.508381
     61          1           0        2.355617   -1.125638   -4.618694
     62          1           0        3.929309   -0.698855   -5.250559
     63          8           0        5.415560    0.784225   -2.040669
     64          6           0        2.702672    1.036793   -4.743887
     65          1           0        2.596277    1.563583   -3.788199
     66          1           0        3.445540    1.590922   -5.327004
     67          6           0        1.356869    1.115390   -5.480034
     68          1           0        1.096426    2.160033   -5.681451
     69          1           0        1.410878    0.584538   -6.439303
     70          7           0        0.310630    0.520228   -4.638029
     71          1           0        0.603187   -0.209538   -3.973001
     72          7           0       -1.521980    1.725147   -5.426849
     73          1           0       -2.426148    2.140709   -5.254816
     74          1           0       -1.162964    1.765485   -6.369197
     75          7           0       -1.635041    0.577531   -3.409417
     76          1           0       -1.146737    0.160958   -2.614749
     77          1           0       -2.647512    0.566139   -3.404931
     78          6           0       -0.944068    0.931973   -4.503370
     79          8           0        5.999981   -0.329234   -3.917441
     80          1           0        6.849686    0.120396   -3.744404
     81          1           0       -2.741593    4.947943    3.054348
 ---------------------------------------------------------------------

 SCF Done:  E(RB3LYP) =  -2054.07805546     A.U. after    1 cycles

 Alpha  occ. eigenvalues --  -19.30822 -19.28430 -19.25493 -19.23742 -19.23302
 Alpha  occ. eigenvalues --  -19.21683 -19.21606 -19.20739 -14.51415 -14.49827
 Alpha  occ. eigenvalues --  -14.49784 -14.47864 -14.45711 -14.45673 -14.44301
 Alpha  occ. eigenvalues --  -14.38455 -10.46954 -10.43485 -10.41257 -10.40581
 Alpha  occ. eigenvalues --  -10.38352 -10.36989 -10.35722 -10.35638 -10.32901
 Alpha  occ. eigenvalues --  -10.32815 -10.32417 -10.30896 -10.30455 -10.30099
 Alpha  occ. eigenvalues --  -10.29678 -10.29618 -10.28344 -10.28342 -10.27075
 Alpha  occ. eigenvalues --  -10.27024 -10.26653 -10.26476 -10.26177 -10.26116
 Alpha  occ. eigenvalues --  -10.26037 -10.25370  -1.21966  -1.19579  -1.15796
 Alpha  occ. eigenvalues --   -1.15167  -1.13739  -1.13157  -1.12067  -1.10449
 Alpha  occ. eigenvalues --   -1.09675  -1.05600  -1.04834  -1.04378  -1.03545
 Alpha  occ. eigenvalues --   -1.02002  -1.01108  -0.96169  -0.92149  -0.91733
 Alpha  occ. eigenvalues --   -0.89232  -0.88291  -0.87013  -0.85829  -0.83899
 Alpha  occ. eigenvalues --   -0.81458  -0.81024  -0.80256  -0.79576  -0.78851
 Alpha  occ. eigenvalues --   -0.77769  -0.74904  -0.73923  -0.73248  -0.72503
 Alpha  occ. eigenvalues --   -0.72128  -0.70145  -0.69613  -0.69386  -0.67990
 Alpha  occ. eigenvalues --   -0.67893  -0.67271  -0.67095  -0.66029  -0.64966
 Alpha  occ. eigenvalues --   -0.64293  -0.63959  -0.63375  -0.61904  -0.61466
 Alpha  occ. eigenvalues --   -0.60478  -0.60377  -0.59619  -0.59446  -0.59003
 Alpha  occ. eigenvalues --   -0.58589  -0.58394  -0.58034  -0.57341  -0.56416
 Alpha  occ. eigenvalues --   -0.56072  -0.55701  -0.55378  -0.54929  -0.54724
 Alpha  occ. eigenvalues --   -0.54420  -0.54136  -0.53834  -0.53363  -0.52937
 Alpha  occ. eigenvalues --   -0.52666  -0.51946  -0.51821  -0.51149  -0.51004
 Alpha  occ. eigenvalues --   -0.50665  -0.50354  -0.50061  -0.50040  -0.49273
 Alpha  occ. eigenvalues --   -0.48859  -0.48314  -0.48059  -0.47891  -0.47620
 Alpha  occ. eigenvalues --   -0.47489  -0.46811  -0.46572  -0.46010  -0.45928
 Alpha  occ. eigenvalues --   -0.45380  -0.44981  -0.44616  -0.43925  -0.43462
 Alpha  occ. eigenvalues --   -0.43204  -0.43011  -0.42111  -0.41827  -0.41337
 Alpha  occ. eigenvalues --   -0.41082  -0.40438  -0.40085  -0.39569  -0.38955
 Alpha  occ. eigenvalues --   -0.37656  -0.37544  -0.37226  -0.36975  -0.36316
 Alpha  occ. eigenvalues --   -0.35179  -0.35033  -0.34184  -0.33404  -0.31103
 Alpha  occ. eigenvalues --   -0.30064  -0.28193
 Alpha virt. eigenvalues --   -0.11478  -0.10685  -0.09686  -0.09446  -0.08816
 Alpha virt. eigenvalues --   -0.07875  -0.06539  -0.06223  -0.05429  -0.03012
 Alpha virt. eigenvalues --   -0.02857  -0.02241  -0.01255  -0.01072  -0.00923

 Mulliken charges:
               1
     1  N   -0.691229
     2  H    0.319095
     3  H    0.300620
     4  C   -0.088536
     5  H    0.182174
     6  C    0.606543
     7  C   -0.303589
     8  H    0.169945
     9  H    0.190042
    10  O   -0.579699
    11  C   -0.383197
    12  H    0.206851
    13  H    0.199481
    14  C    0.599768
    15  O   -0.490718
    16  O   -0.539467
    17  N   -0.611825
    18  H    0.386689
    19  C   -0.025050
    20  H    0.161001
    21  C    0.631484
    22  C   -0.415751
    23  H    0.136779
    24  H    0.192908
    25  O   -0.528670
    26  C    0.057332
    27  C    0.003977
    28  H    0.184184
    29  C    0.091145
    30  C    0.316282
    31  C   -0.252233
    32  H    0.102462
    33  N   -0.688422
    34  H    0.340824
    35  C   -0.152160
    36  H    0.144517
    37  C   -0.154007
    38  H    0.144283
    39  C   -0.140106
    40  H    0.132512
    41  N   -0.627797
    42  H    0.355927
    43  C   -0.086707
    44  H    0.191639
    45  C    0.632799
    46  C    0.138207
    47  H    0.144777
    48  O   -0.572465
    49  C   -0.486202
    50  H    0.151927
    51  H    0.171906
    52  H    0.172076
    53  O   -0.652661
    54  H    0.447216
    55  N   -0.624823
    56  H    0.370828
    57  C   -0.022759
    58  H    0.214430
    59  C    0.589261
    60  C   -0.313959
    61  H    0.184714
    62  H    0.194644
    63  O   -0.455721
    64  C   -0.294769
    65  H    0.169843
    66  H    0.179912
    67  C   -0.161325
    68  H    0.176454
    69  H    0.184227
    70  N   -0.639206
    71  H    0.436188
    72  N   -0.754444
    73  H    0.381452
    74  H    0.381654
    75  N   -0.798029
    76  H    0.406780
    77  H    0.369983
    78  C    0.789528
    79  O   -0.557711
    80  H    0.436253
    81  H    0.419711
 Sum of Mulliken charges =   1.00000

 Dipole moment (field-independent basis, Debye):
    X=             -3.8593    Y=              7.8306    Z=            -15.0671  Tot=             17.4135
 Quadrupole moment (field-independent basis, Debye-Ang):
   XX=           -138.3156   YY=           -229.6286   ZZ=           -137.6129
   XY=            -25.0195   XZ=            -17.9556   YZ=            -10.5940

 Normal termination of Gaussian 16 at Thu May 12 23:07:34 2022.
