 Gaussian 16, Revision C.01,
 Gaussian 16:  ES64L-G16RevC.01  3-Jul-2019

 -------------------------------------------------------------------
 # B3LYP/6-31G* guess=read geom=check nosymm integral(ultrafinegrid)
 -------------------------------------------------------------------

 ------------------------------------------------------
 Candidate Structure: Conf:472 Charge calc in gas phase
 ------------------------------------------------------
 Structure from the checkpoint file:  "conf-472.chk"
 Charge =  1 Multiplicity = 1

                          Input orientation:
 ---------------------------------------------------------------------
 Center     Atomic      Atomic             Coordinates (Angstroms)
 Number     Number       Type             X           Y           Z
 ---------------------------------------------------------------------
      1          7           0       -2.169872   -3.318355    1.340350
      2          1           0       -2.305122   -3.713827    0.411178
      3          1           0       -1.211653   -3.561799    1.586700
      4          6           0       -2.301661   -1.869718    1.271264
      5          1           0       -3.287521   -1.665660    0.826657
      6          6           0       -1.271849   -1.217362    0.312599
      7          6           0       -2.305241   -1.255822    2.686064
      8          1           0       -2.506601   -0.180001    2.656007
      9          1           0       -3.145489   -1.703028    3.226688
     10          8           0       -0.530497   -1.897736   -0.399596
     11          6           0       -1.011773   -1.490506    3.474827
     12          1           0       -0.120116   -1.272736    2.866756
     13          1           0       -0.918490   -2.529244    3.805711
     14          6           0       -0.905445   -0.573831    4.679445
     15          8           0       -1.467058    0.493431    4.797168
     16          8           0       -0.065849   -1.078303    5.607275
     17          7           0       -1.245534    0.154678    0.270116
     18          1           0       -1.987810    0.645046    0.755666
     19          6           0       -0.557370    0.868132   -0.800769
     20          1           0       -0.090384    0.087447   -1.408305
     21          6           0        0.624505    1.741055   -0.347166
     22          6           0       -1.513978    1.679311   -1.722435
     23          1           0       -1.521393    2.731891   -1.422126
     24          1           0       -2.529978    1.294902   -1.561570
     25          8           0        1.221216    2.440245   -1.169930
     26          6           0       -1.158701    1.590353   -3.179883
     27          6           0       -0.678966    2.609013   -3.965749
     28          1           0       -0.442388    3.627282   -3.690172
     29          6           0       -1.267896    0.438004   -4.037978
     30          6           0       -0.857103    0.844168   -5.346019
     31          6           0       -1.685111   -0.894959   -3.845132
     32          1           0       -2.002745   -1.239346   -2.864065
     33          7           0       -0.493086    2.169322   -5.260320
     34          1           0       -0.198181    2.751579   -6.029627
     35          6           0       -1.334999   -1.329265   -6.225439
     36          1           0       -1.415456   -2.014061   -7.066948
     37          6           0       -0.888658   -0.023514   -6.441920
     38          1           0       -0.601335    0.311368   -7.435719
     39          6           0       -1.721482   -1.762444   -4.936195
     40          1           0       -2.078081   -2.780001   -4.802131
     41          7           0        0.996902    1.625058    0.948753
     42          1           0        0.537725    0.917906    1.515705
     43          6           0        2.275912    2.104502    1.478904
     44          1           0        2.486758    3.085529    1.041096
     45          6           0        3.336646    1.073992    1.034816
     46          6           0        2.188899    2.202343    3.017742
     47          1           0        3.202402    2.431996    3.380170
     48          8           0        3.705044    0.155531    1.771138
     49          6           0        1.233146    3.289978    3.488864
     50          1           0        1.518712    4.265413    3.080150
     51          1           0        1.257842    3.350786    4.580319
     52          1           0        0.202854    3.070051    3.192968
     53          8           0        1.747057    0.957172    3.551230
     54          1           0        2.456932    0.320835    3.332302
     55          7           0        3.762515    1.195651   -0.256135
     56          1           0        3.278916    1.890447   -0.826169
     57          6           0        4.304483    0.031625   -0.944497
     58          1           0        4.903925   -0.532922   -0.227641
     59          6           0        5.191351    0.518088   -2.085049
     60          6           0        3.150843   -0.852744   -1.492334
     61          1           0        2.668066   -0.306104   -2.314011
     62          1           0        2.410021   -0.947314   -0.690768
     63          8           0        4.992692    1.521035   -2.730345
     64          6           0        3.548626   -2.261079   -1.949942
     65          1           0        4.346281   -2.203156   -2.702352
     66          1           0        3.965165   -2.821474   -1.103400
     67          6           0        2.341062   -3.055867   -2.482243
     68          1           0        2.571471   -4.124205   -2.578596
     69          1           0        1.502694   -2.970082   -1.787542
     70          7           0        1.834090   -2.564846   -3.780166
     71          1           0        0.937675   -2.083929   -3.789256
     72          7           0        3.534938   -3.503778   -5.059549
     73          1           0        3.868185   -3.852649   -5.946049
     74          1           0        4.068865   -3.742890   -4.238384
     75          7           0        1.749178   -2.460578   -6.093445
     76          1           0        0.805542   -2.073578   -6.087518
     77          1           0        2.206363   -2.547055   -6.989176
     78          6           0        2.366240   -2.843894   -4.968422
     79          8           0        6.205779   -0.342422   -2.336019
     80          1           0        6.723686    0.041896   -3.071287
     81          1           0        0.030729   -0.393794    6.297091
 ---------------------------------------------------------------------

 SCF Done:  E(RB3LYP) =  -2053.95746644     A.U. after    1 cycles

 Alpha  occ. eigenvalues --  -19.29514 -19.25208 -19.23552 -19.21868 -19.21170
 Alpha  occ. eigenvalues --  -19.21009 -19.20474 -19.19612 -14.52941 -14.52306
 Alpha  occ. eigenvalues --  -14.51838 -14.47564 -14.46127 -14.45009 -14.44490
 Alpha  occ. eigenvalues --  -14.39184 -10.48890 -10.41581 -10.38236 -10.37978
 Alpha  occ. eigenvalues --  -10.37764 -10.37673 -10.36086 -10.33384 -10.32712
 Alpha  occ. eigenvalues --  -10.32084 -10.31596 -10.31407 -10.31146 -10.31097
 Alpha  occ. eigenvalues --  -10.30978 -10.29868 -10.29746 -10.29183 -10.29027
 Alpha  occ. eigenvalues --  -10.28865 -10.28841 -10.28623 -10.27519 -10.27009
 Alpha  occ. eigenvalues --  -10.26660 -10.24013  -1.20187  -1.17326  -1.16106
 Alpha  occ. eigenvalues --   -1.13406  -1.13036  -1.11993  -1.11236  -1.08659
 Alpha  occ. eigenvalues --   -1.07523  -1.07144  -1.06454  -1.05411  -1.02643
 Alpha  occ. eigenvalues --   -1.01646  -1.00524  -0.96879  -0.94155  -0.91801
 Alpha  occ. eigenvalues --   -0.90073  -0.87164  -0.86489  -0.85508  -0.84407
 Alpha  occ. eigenvalues --   -0.83614  -0.81826  -0.81439  -0.78942  -0.78829
 Alpha  occ. eigenvalues --   -0.78060  -0.75136  -0.75068  -0.73645  -0.72218
 Alpha  occ. eigenvalues --   -0.71527  -0.70910  -0.69443  -0.69284  -0.68046
 Alpha  occ. eigenvalues --   -0.67514  -0.66892  -0.66415  -0.65823  -0.65630
 Alpha  occ. eigenvalues --   -0.65110  -0.64579  -0.63520  -0.62664  -0.61834
 Alpha  occ. eigenvalues --   -0.61236  -0.60026  -0.59496  -0.58807  -0.58473
 Alpha  occ. eigenvalues --   -0.58115  -0.57452  -0.57332  -0.57201  -0.56810
 Alpha  occ. eigenvalues --   -0.56668  -0.56068  -0.54866  -0.54227  -0.54004
 Alpha  occ. eigenvalues --   -0.53798  -0.53271  -0.53100  -0.53019  -0.52816
 Alpha  occ. eigenvalues --   -0.52396  -0.52284  -0.51564  -0.51316  -0.51121
 Alpha  occ. eigenvalues --   -0.50169  -0.50022  -0.49694  -0.49559  -0.49128
 Alpha  occ. eigenvalues --   -0.48771  -0.48545  -0.47916  -0.47538  -0.46806
 Alpha  occ. eigenvalues --   -0.46559  -0.45886  -0.45747  -0.45531  -0.45083
 Alpha  occ. eigenvalues --   -0.44965  -0.44677  -0.44489  -0.43742  -0.43553
 Alpha  occ. eigenvalues --   -0.43402  -0.43213  -0.42968  -0.42338  -0.41949
 Alpha  occ. eigenvalues --   -0.41499  -0.40934  -0.40497  -0.37792  -0.37444
 Alpha  occ. eigenvalues --   -0.37385  -0.37177  -0.36512  -0.35398  -0.34806
 Alpha  occ. eigenvalues --   -0.34472  -0.33730  -0.33380  -0.32568  -0.32496
 Alpha  occ. eigenvalues --   -0.31980  -0.29834
 Alpha virt. eigenvalues --   -0.12434  -0.11534  -0.09058  -0.08898  -0.08398
 Alpha virt. eigenvalues --   -0.08144  -0.07900  -0.05751  -0.05327  -0.04506
 Alpha virt. eigenvalues --   -0.04183  -0.03082  -0.02212  -0.01872  -0.01793

 Mulliken charges:
               1
     1  N   -0.683405
     2  H    0.306514
     3  H    0.306637
     4  C   -0.100043
     5  H    0.166581
     6  C    0.581302
     7  C   -0.266198
     8  H    0.157439
     9  H    0.184191
    10  O   -0.545547
    11  C   -0.377733
    12  H    0.173688
    13  H    0.190836
    14  C    0.605589
    15  O   -0.465719
    16  O   -0.564002
    17  N   -0.636339
    18  H    0.348459
    19  C   -0.035786
    20  H    0.198041
    21  C    0.606069
    22  C   -0.369285
    23  H    0.177204
    24  H    0.161074
    25  O   -0.544665
    26  C    0.082018
    27  C    0.033242
    28  H    0.184830
    29  C    0.069798
    30  C    0.325604
    31  C   -0.234503
    32  H    0.151885
    33  N   -0.685895
    34  H    0.344897
    35  C   -0.224423
    36  H    0.148867
    37  C   -0.168263
    38  H    0.147885
    39  C   -0.162324
    40  H    0.146725
    41  N   -0.602638
    42  H    0.364897
    43  C   -0.078271
    44  H    0.185143
    45  C    0.622905
    46  C    0.116111
    47  H    0.146524
    48  O   -0.542399
    49  C   -0.449546
    50  H    0.149513
    51  H    0.175231
    52  H    0.163403
    53  O   -0.651354
    54  H    0.422353
    55  N   -0.605468
    56  H    0.378371
    57  C   -0.042122
    58  H    0.207662
    59  C    0.582381
    60  C   -0.295674
    61  H    0.162127
    62  H    0.183225
    63  O   -0.447549
    64  C   -0.285935
    65  H    0.147978
    66  H    0.183062
    67  C   -0.208595
    68  H    0.178858
    69  H    0.233504
    70  N   -0.596567
    71  H    0.381004
    72  N   -0.763310
    73  H    0.380777
    74  H    0.390959
    75  N   -0.785931
    76  H    0.396084
    77  H    0.371903
    78  C    0.825385
    79  O   -0.567151
    80  H    0.419695
    81  H    0.418211
 Sum of Mulliken charges =   1.00000

 Dipole moment (field-independent basis, Debye):
    X=              9.0951    Y=             -8.0894    Z=            -21.0131  Tot=             24.2840
 Quadrupole moment (field-independent basis, Debye-Ang):
   XX=           -197.3693   YY=           -197.0655   ZZ=           -104.4291
   XY=            -34.1887   XZ=            -46.3766   YZ=             49.4475

 Normal termination of Gaussian 16 at Thu May 26 18:04:13 2022.
