 Gaussian 16, Revision C.01,
 Gaussian 16:  ES64L-G16RevC.01  3-Jul-2019

 -------------------------------------------------------------------
 # B3LYP/6-31G* guess=read geom=check nosymm integral(ultrafinegrid)
 -------------------------------------------------------------------

 ------------------------------------------------------
 Candidate Structure: Conf:234 Charge calc in gas phase
 ------------------------------------------------------
 Structure from the checkpoint file:  "conf-234.chk"
 Charge =  1 Multiplicity = 1

                          Input orientation:
 ---------------------------------------------------------------------
 Center     Atomic      Atomic             Coordinates (Angstroms)
 Number     Number       Type             X           Y           Z
 ---------------------------------------------------------------------
      1          7           0       -3.268880   -1.813850    0.332019
      2          1           0       -2.378163   -2.271421    0.527153
      3          1           0       -3.973422   -2.359967    0.825142
      4          6           0       -3.238157   -0.460169    0.907437
      5          1           0       -4.275925   -0.143135    1.064903
      6          6           0       -2.601327    0.486964   -0.117680
      7          6           0       -2.483085   -0.407903    2.264335
      8          1           0       -2.927700   -1.187668    2.895141
      9          1           0       -1.437746   -0.695412    2.096544
     10          8           0       -1.749250    0.072469   -0.938886
     11          6           0       -2.533350    0.933783    3.017618
     12          1           0       -3.565534    1.246335    3.199891
     13          1           0       -2.036055    1.719289    2.436349
     14          6           0       -1.844564    0.861314    4.367221
     15          8           0       -2.360457    1.095511    5.433303
     16          8           0       -0.542491    0.496667    4.236577
     17          7           0       -2.954062    1.777235   -0.064957
     18          1           0       -3.720603    2.041755    0.547789
     19          6           0       -2.480604    2.815454   -1.001354
     20          1           0       -2.627548    2.424266   -2.015007
     21          6           0       -0.966876    3.108586   -0.777471
     22          6           0       -3.297605    4.115147   -0.816557
     23          1           0       -3.043917    4.771914   -1.655879
     24          1           0       -2.921812    4.617831    0.080627
     25          8           0       -0.578583    3.958016    0.006704
     26          6           0       -4.782255    3.906825   -0.727132
     27          6           0       -5.686397    3.845180   -1.760868
     28          1           0       -5.531320    3.981693   -2.822864
     29          6           0       -5.536494    3.677544    0.484776
     30          6           0       -6.891870    3.470961    0.104792
     31          6           0       -5.202767    3.642274    1.854543
     32          1           0       -4.187579    3.850816    2.185945
     33          7           0       -6.947183    3.576940   -1.269978
     34          1           0       -7.790509    3.549961   -1.823044
     35          6           0       -7.536665    3.174988    2.381761
     36          1           0       -8.297329    2.986346    3.133377
     37          6           0       -7.900407    3.219520    1.040863
     38          1           0       -8.931993    3.069996    0.734264
     39          6           0       -6.202568    3.387957    2.786550
     40          1           0       -5.959058    3.373675    3.844947
     41          7           0       -0.145011    2.345206   -1.569268
     42          1           0       -0.582724    1.491745   -1.901242
     43          6           0        1.300440    2.260134   -1.381293
     44          1           0        1.632976    3.191653   -0.914680
     45          6           0        2.046661    2.083583   -2.717576
     46          6           0        1.693176    1.056731   -0.473296
     47          1           0        2.759998    0.884043   -0.623861
     48          8           0        3.248742    1.839397   -2.726531
     49          6           0        1.402999    1.277801    1.005825
     50          1           0        1.964978    2.136980    1.384976
     51          1           0        1.693854    0.392551    1.579482
     52          1           0        0.341641    1.476688    1.191290
     53          8           0        1.038059   -0.141929   -0.950754
     54          1           0        0.116080   -0.116885   -0.629699
     55          7           0        1.279060    2.106068   -3.840946
     56          1           0        0.342901    2.481170   -3.774982
     57          6           0        1.806534    1.754301   -5.149782
     58          1           0        2.890813    1.913500   -5.113634
     59          6           0        1.270743    2.647199   -6.265926
     60          6           0        1.518566    0.269025   -5.481411
     61          1           0        1.709394    0.105876   -6.546480
     62          1           0        0.445901    0.098127   -5.316236
     63          8           0        1.513869    2.467226   -7.435263
     64          6           0        2.352764   -0.712852   -4.631082
     65          1           0        3.283665   -0.952433   -5.157175
     66          1           0        2.662920   -0.257457   -3.686447
     67          6           0        1.637610   -2.034990   -4.334873
     68          1           0        1.175291   -2.419855   -5.250903
     69          1           0        2.361787   -2.778766   -3.976839
     70          7           0        0.579360   -1.854397   -3.323924
     71          1           0        0.775218   -1.191923   -2.560854
     72          7           0       -0.617411   -3.735901   -3.990430
     73          1           0       -1.464280   -4.284246   -3.973788
     74          1           0        0.180357   -4.140090   -4.456150
     75          7           0       -1.449101   -2.376621   -2.311774
     76          1           0       -1.544955   -1.474172   -1.830610
     77          1           0       -2.209743   -3.023015   -2.159113
     78          6           0       -0.485767   -2.649207   -3.199104
     79          8           0        0.483906    3.652538   -5.815285
     80          1           0        0.216133    4.166121   -6.601961
     81          1           0       -0.167247    0.483505    5.138056
 ---------------------------------------------------------------------

 SCF Done:  E(RB3LYP) =  -2053.96668446     A.U. after    1 cycles

 Alpha  occ. eigenvalues --  -19.28985 -19.27529 -19.25623 -19.25316 -19.22734
 Alpha  occ. eigenvalues --  -19.21778 -19.21737 -19.20275 -14.51230 -14.49827
 Alpha  occ. eigenvalues --  -14.49260 -14.48874 -14.46358 -14.45726 -14.45330
 Alpha  occ. eigenvalues --  -14.43643 -10.46823 -10.41765 -10.41178 -10.40115
 Alpha  occ. eigenvalues --  -10.38819 -10.37819 -10.34861 -10.34476 -10.34404
 Alpha  occ. eigenvalues --  -10.33319 -10.33285 -10.32396 -10.30476 -10.30265
 Alpha  occ. eigenvalues --  -10.30078 -10.29353 -10.29076 -10.28874 -10.28721
 Alpha  occ. eigenvalues --  -10.26947 -10.26890 -10.26825 -10.26805 -10.26414
 Alpha  occ. eigenvalues --  -10.26170 -10.25988  -1.19680  -1.18251  -1.16770
 Alpha  occ. eigenvalues --   -1.15097  -1.13672  -1.12679  -1.11802  -1.10610
 Alpha  occ. eigenvalues --   -1.09349  -1.06248  -1.04949  -1.04360  -1.03155
 Alpha  occ. eigenvalues --   -1.02976  -1.01278  -1.00655  -0.91923  -0.90569
 Alpha  occ. eigenvalues --   -0.90231  -0.89051  -0.87410  -0.85652  -0.85111
 Alpha  occ. eigenvalues --   -0.81726  -0.81387  -0.80821  -0.79778  -0.79059
 Alpha  occ. eigenvalues --   -0.76976  -0.75835  -0.74192  -0.73163  -0.71732
 Alpha  occ. eigenvalues --   -0.71023  -0.70530  -0.70241  -0.69376  -0.68761
 Alpha  occ. eigenvalues --   -0.68600  -0.67952  -0.67487  -0.67045  -0.65029
 Alpha  occ. eigenvalues --   -0.64584  -0.64282  -0.63698  -0.62889  -0.62387
 Alpha  occ. eigenvalues --   -0.61757  -0.60418  -0.59738  -0.58895  -0.58743
 Alpha  occ. eigenvalues --   -0.58122  -0.58088  -0.57061  -0.56889  -0.56593
 Alpha  occ. eigenvalues --   -0.56357  -0.56181  -0.55139  -0.54994  -0.54768
 Alpha  occ. eigenvalues --   -0.54714  -0.54208  -0.54096  -0.53695  -0.53113
 Alpha  occ. eigenvalues --   -0.52852  -0.52565  -0.52123  -0.51610  -0.51197
 Alpha  occ. eigenvalues --   -0.50629  -0.50493  -0.50235  -0.50085  -0.49448
 Alpha  occ. eigenvalues --   -0.49212  -0.48671  -0.48621  -0.48194  -0.47776
 Alpha  occ. eigenvalues --   -0.47100  -0.46755  -0.46598  -0.46410  -0.46211
 Alpha  occ. eigenvalues --   -0.45857  -0.45393  -0.45178  -0.44771  -0.44503
 Alpha  occ. eigenvalues --   -0.44249  -0.43137  -0.42521  -0.41904  -0.41536
 Alpha  occ. eigenvalues --   -0.41323  -0.40638  -0.40048  -0.39649  -0.39480
 Alpha  occ. eigenvalues --   -0.39017  -0.38722  -0.37229  -0.36741  -0.36333
 Alpha  occ. eigenvalues --   -0.35708  -0.35026  -0.34766  -0.34025  -0.33105
 Alpha  occ. eigenvalues --   -0.30397  -0.28580
 Alpha virt. eigenvalues --   -0.11510  -0.10649  -0.09364  -0.08706  -0.08125
 Alpha virt. eigenvalues --   -0.07196  -0.06857  -0.06726  -0.05857  -0.04354
 Alpha virt. eigenvalues --   -0.03242  -0.02524  -0.01982  -0.01484  -0.00697

 Mulliken charges:
               1
     1  N   -0.727125
     2  H    0.307743
     3  H    0.325733
     4  C   -0.104937
     5  H    0.176662
     6  C    0.665757
     7  C   -0.291372
     8  H    0.170066
     9  H    0.170152
    10  O   -0.608467
    11  C   -0.371183
    12  H    0.186228
    13  H    0.188291
    14  C    0.569903
    15  O   -0.436175
    16  O   -0.565883
    17  N   -0.597051
    18  H    0.375621
    19  C   -0.042398
    20  H    0.163158
    21  C    0.624453
    22  C   -0.402548
    23  H    0.176226
    24  H    0.204219
    25  O   -0.494621
    26  C    0.053019
    27  C    0.007274
    28  H    0.160192
    29  C    0.049867
    30  C    0.317337
    31  C   -0.243815
    32  H    0.142590
    33  N   -0.685489
    34  H    0.341555
    35  C   -0.151974
    36  H    0.147555
    37  C   -0.157636
    38  H    0.143274
    39  C   -0.142859
    40  H    0.149405
    41  N   -0.649397
    42  H    0.344503
    43  C   -0.063143
    44  H    0.216205
    45  C    0.620183
    46  C    0.110083
    47  H    0.196888
    48  O   -0.522039
    49  C   -0.482317
    50  H    0.181102
    51  H    0.171485
    52  H    0.149759
    53  O   -0.687306
    54  H    0.426328
    55  N   -0.613134
    56  H    0.349643
    57  C   -0.063002
    58  H    0.227395
    59  C    0.588151
    60  C   -0.268078
    61  H    0.190121
    62  H    0.134838
    63  O   -0.443701
    64  C   -0.314755
    65  H    0.178427
    66  H    0.201980
    67  C   -0.165837
    68  H    0.169364
    69  H    0.183310
    70  N   -0.633078
    71  H    0.409112
    72  N   -0.763789
    73  H    0.373307
    74  H    0.383672
    75  N   -0.811446
    76  H    0.437241
    77  H    0.362898
    78  C    0.807879
    79  O   -0.574076
    80  H    0.426404
    81  H    0.422075
 Sum of Mulliken charges =   1.00000

 Dipole moment (field-independent basis, Debye):
    X=            -12.0173    Y=             -6.3931    Z=            -11.3800  Tot=             17.7424
 Quadrupole moment (field-independent basis, Debye-Ang):
   XX=           -173.9194   YY=           -192.8776   ZZ=           -193.5608
   XY=            -17.7087   XZ=             22.6645   YZ=             11.6151

 Normal termination of Gaussian 16 at Thu May 26 18:04:03 2022.
