 Gaussian 16, Revision C.01,
 Gaussian 16:  ES64L-G16RevC.01  3-Jul-2019

 -------------------------------------------------------------------
 # B3LYP/6-31G* guess=read geom=check nosymm integral(ultrafinegrid)
 -------------------------------------------------------------------

 ------------------------------------------------------
 Candidate Structure: Conf:538 Charge calc in gas phase
 ------------------------------------------------------
 Structure from the checkpoint file:  "conf-538.chk"
 Charge =  1 Multiplicity = 1

                          Input orientation:
 ---------------------------------------------------------------------
 Center     Atomic      Atomic             Coordinates (Angstroms)
 Number     Number       Type             X           Y           Z
 ---------------------------------------------------------------------
      1          7           0       -5.655417    3.265023    1.888471
      2          1           0       -5.793408    3.672342    0.964041
      3          1           0       -6.100158    2.347640    1.844344
      4          6           0       -4.226727    3.061588    2.114765
      5          1           0       -3.712891    3.999160    1.865161
      6          6           0       -3.652955    1.934171    1.236607
      7          6           0       -3.941918    2.773417    3.608206
      8          1           0       -2.864164    2.636649    3.754173
      9          1           0       -4.240547    3.665263    4.169996
     10          8           0       -4.307295    0.935379    0.951881
     11          6           0       -4.696440    1.550771    4.162735
     12          1           0       -4.462900    0.660889    3.565485
     13          1           0       -5.775398    1.714126    4.124532
     14          6           0       -4.347429    1.253886    5.605108
     15          8           0       -5.126774    1.195083    6.527498
     16          8           0       -3.012153    1.040119    5.767120
     17          7           0       -2.367684    2.115457    0.795505
     18          1           0       -1.804426    2.882511    1.145308
     19          6           0       -1.639274    1.075329    0.100637
     20          1           0       -2.114291    0.117495    0.332915
     21          6           0       -0.176682    1.129562    0.553511
     22          6           0       -1.624833    1.275213   -1.450236
     23          1           0       -1.040575    0.452286   -1.883650
     24          1           0       -1.061695    2.199852   -1.637708
     25          8           0        0.355566    2.220505    0.800037
     26          6           0       -2.965893    1.350294   -2.117687
     27          6           0       -3.659037    0.307186   -2.685278
     28          1           0       -3.392986   -0.739081   -2.753768
     29          6           0       -3.794529    2.523116   -2.287193
     30          6           0       -4.970786    2.109865   -2.981532
     31          6           0       -3.668625    3.880742   -1.921699
     32          1           0       -2.802289    4.221233   -1.361116
     33          7           0       -4.852502    0.756651   -3.206897
     34          1           0       -5.559611    0.168857   -3.623166
     35          6           0       -5.827311    4.337945   -2.965959
     36          1           0       -6.606766    5.054295   -3.208410
     37          6           0       -5.988675    3.005519   -3.330375
     38          1           0       -6.880383    2.671076   -3.853177
     39          6           0       -4.679459    4.771545   -2.266223
     40          1           0       -4.596531    5.815773   -1.978029
     41          7           0        0.495290   -0.039197    0.558499
     42          1           0        0.049747   -0.912885    0.294367
     43          6           0        1.945047   -0.132804    0.740069
     44          1           0        2.243251    0.580453    1.514627
     45          6           0        2.615606    0.233572   -0.602478
     46          6           0        2.296305   -1.581071    1.149539
     47          1           0        3.389816   -1.677519    1.103741
     48          8           0        3.000949   -0.623068   -1.399004
     49          6           0        1.814073   -1.937359    2.548973
     50          1           0        2.293624   -1.301542    3.300677
     51          1           0        2.063819   -2.979977    2.763116
     52          1           0        0.729047   -1.821894    2.638400
     53          8           0        1.682523   -2.476771    0.225358
     54          1           0        2.139639   -2.313506   -0.622440
     55          7           0        2.685382    1.571002   -0.851421
     56          1           0        2.210237    2.188537   -0.195872
     57          6           0        3.096048    2.080005   -2.148762
     58          1           0        3.398760    1.189991   -2.716117
     59          6           0        4.334823    2.979107   -2.049004
     60          6           0        1.946975    2.809025   -2.877779
     61          1           0        1.845903    3.820660   -2.466646
     62          1           0        1.023669    2.268416   -2.641546
     63          8           0        4.477500    4.009614   -2.673672
     64          6           0        2.148318    2.884911   -4.399757
     65          1           0        3.159566    3.242964   -4.611529
     66          1           0        2.061084    1.885320   -4.846787
     67          6           0        1.201630    3.852849   -5.112753
     68          1           0        1.350971    4.867746   -4.725161
     69          1           0        1.432335    3.852035   -6.186490
     70          7           0       -0.216780    3.490599   -4.920373
     71          1           0       -0.428569    2.598379   -4.491932
     72          7           0       -1.037448    5.312694   -6.093869
     73          1           0       -1.792075    5.937976   -6.336760
     74          1           0       -0.140258    5.484573   -6.523092
     75          7           0       -2.504300    3.871361   -5.014350
     76          1           0       -2.696115    3.313117   -4.182441
     77          1           0       -3.288171    4.427568   -5.328375
     78          6           0       -1.252986    4.224399   -5.337658
     79          8           0        5.259077    2.478862   -1.214890
     80          1           0        6.022999    3.087323   -1.236088
     81          1           0       -2.886436    0.855746    6.717295
 ---------------------------------------------------------------------

 SCF Done:  E(RB3LYP) =  -2053.94793917     A.U. after    2 cycles

 Alpha  occ. eigenvalues --  -19.29037 -19.24173 -19.23746 -19.22140 -19.21887
 Alpha  occ. eigenvalues --  -19.21754 -19.18979 -19.18339 -14.53917 -14.53556
 Alpha  occ. eigenvalues --  -14.52411 -14.48290 -14.46442 -14.45830 -14.44046
 Alpha  occ. eigenvalues --  -14.37643 -10.49772 -10.41814 -10.39019 -10.38627
 Alpha  occ. eigenvalues --  -10.37470 -10.36591 -10.35706 -10.34255 -10.32962
 Alpha  occ. eigenvalues --  -10.32446 -10.32444 -10.32192 -10.32087 -10.31675
 Alpha  occ. eigenvalues --  -10.30845 -10.30357 -10.29288 -10.29253 -10.29178
 Alpha  occ. eigenvalues --  -10.29165 -10.28780 -10.28776 -10.28572 -10.25425
 Alpha  occ. eigenvalues --  -10.24917 -10.24777  -1.20209  -1.18232  -1.14881
 Alpha  occ. eigenvalues --   -1.14285  -1.13336  -1.11217  -1.10819  -1.09421
 Alpha  occ. eigenvalues --   -1.08284  -1.07525  -1.06220  -1.05857  -1.02931
 Alpha  occ. eigenvalues --   -1.02132  -1.00553  -0.95231  -0.94298  -0.92830
 Alpha  occ. eigenvalues --   -0.90688  -0.88163  -0.86535  -0.85033  -0.84554
 Alpha  occ. eigenvalues --   -0.83822  -0.82089  -0.81686  -0.80282  -0.78868
 Alpha  occ. eigenvalues --   -0.77941  -0.75733  -0.75247  -0.74315  -0.72496
 Alpha  occ. eigenvalues --   -0.71590  -0.70560  -0.69614  -0.69381  -0.68812
 Alpha  occ. eigenvalues --   -0.67994  -0.67050  -0.67006  -0.66439  -0.65991
 Alpha  occ. eigenvalues --   -0.65659  -0.64621  -0.63963  -0.63426  -0.62152
 Alpha  occ. eigenvalues --   -0.61516  -0.61247  -0.59446  -0.59167  -0.58901
 Alpha  occ. eigenvalues --   -0.58373  -0.57562  -0.57533  -0.57486  -0.56800
 Alpha  occ. eigenvalues --   -0.56509  -0.55632  -0.54949  -0.54453  -0.54240
 Alpha  occ. eigenvalues --   -0.53443  -0.53351  -0.53259  -0.53037  -0.52810
 Alpha  occ. eigenvalues --   -0.52162  -0.52056  -0.51443  -0.51234  -0.51101
 Alpha  occ. eigenvalues --   -0.50751  -0.50220  -0.50007  -0.49067  -0.48628
 Alpha  occ. eigenvalues --   -0.48575  -0.48283  -0.47533  -0.47443  -0.46994
 Alpha  occ. eigenvalues --   -0.46847  -0.46157  -0.46026  -0.45787  -0.45586
 Alpha  occ. eigenvalues --   -0.45561  -0.45176  -0.44884  -0.44063  -0.43974
 Alpha  occ. eigenvalues --   -0.43692  -0.43609  -0.42087  -0.41723  -0.41281
 Alpha  occ. eigenvalues --   -0.41131  -0.41072  -0.40616  -0.38369  -0.38076
 Alpha  occ. eigenvalues --   -0.37790  -0.36571  -0.36291  -0.35393  -0.34846
 Alpha  occ. eigenvalues --   -0.33991  -0.33569  -0.33082  -0.32878  -0.31816
 Alpha  occ. eigenvalues --   -0.30402  -0.29901
 Alpha virt. eigenvalues --   -0.13592  -0.11680  -0.09666  -0.09316  -0.08983
 Alpha virt. eigenvalues --   -0.08109  -0.07276  -0.06654  -0.05337  -0.05039
 Alpha virt. eigenvalues --   -0.04228  -0.03410  -0.02943  -0.01929  -0.01295

 Mulliken charges:
               1
     1  N   -0.696873
     2  H    0.301847
     3  H    0.320153
     4  C   -0.086390
     5  H    0.131825
     6  C    0.610232
     7  C   -0.261074
     8  H    0.154262
     9  H    0.172358
    10  O   -0.530536
    11  C   -0.352778
    12  H    0.185428
    13  H    0.188064
    14  C    0.561845
    15  O   -0.447650
    16  O   -0.570123
    17  N   -0.620758
    18  H    0.347578
    19  C   -0.022693
    20  H    0.187095
    21  C    0.625588
    22  C   -0.374663
    23  H    0.148703
    24  H    0.139550
    25  O   -0.563238
    26  C    0.077873
    27  C    0.021370
    28  H    0.174614
    29  C    0.013222
    30  C    0.327330
    31  C   -0.239960
    32  H    0.138308
    33  N   -0.678291
    34  H    0.348747
    35  C   -0.167979
    36  H    0.153339
    37  C   -0.166594
    38  H    0.153499
    39  C   -0.155580
    40  H    0.145395
    41  N   -0.600022
    42  H    0.357271
    43  C   -0.080249
    44  H    0.188043
    45  C    0.627847
    46  C    0.105575
    47  H    0.154446
    48  O   -0.533292
    49  C   -0.451916
    50  H    0.154936
    51  H    0.181639
    52  H    0.155906
    53  O   -0.646006
    54  H    0.420896
    55  N   -0.614271
    56  H    0.372636
    57  C   -0.055192
    58  H    0.218378
    59  C    0.598463
    60  C   -0.279366
    61  H    0.167352
    62  H    0.143282
    63  O   -0.467328
    64  C   -0.322277
    65  H    0.210156
    66  H    0.166067
    67  C   -0.157894
    68  H    0.196904
    69  H    0.182529
    70  N   -0.608136
    71  H    0.372844
    72  N   -0.757659
    73  H    0.385002
    74  H    0.393024
    75  N   -0.764820
    76  H    0.397333
    77  H    0.376555
    78  C    0.822226
    79  O   -0.543433
    80  H    0.427662
    81  H    0.411844
 Sum of Mulliken charges =   1.00000

 Dipole moment (field-independent basis, Debye):
    X=             -2.7996    Y=             17.1883    Z=            -23.4435  Tot=             29.2040
 Quadrupole moment (field-independent basis, Debye-Ang):
   XX=           -206.4128   YY=           -161.7900   ZZ=           -124.7482
   XY=            -13.7643   XZ=             65.7794   YZ=            -98.6624

 Normal termination of Gaussian 16 at Thu May 26 18:08:40 2022.
