 Gaussian 16, Revision C.01,
 Gaussian 16:  ES64L-G16RevC.01  3-Jul-2019

 -------------------------------------------------------------------
 # B3LYP/6-31G* guess=read geom=check nosymm integral(ultrafinegrid)
 -------------------------------------------------------------------

 ------------------------------------------------------
 Candidate Structure: Conf:497 Charge calc in gas phase
 ------------------------------------------------------
 Structure from the checkpoint file:  "conf-497.chk"
 Charge =  1 Multiplicity = 1

                          Input orientation:
 ---------------------------------------------------------------------
 Center     Atomic      Atomic             Coordinates (Angstroms)
 Number     Number       Type             X           Y           Z
 ---------------------------------------------------------------------
      1          7           0       -3.515319    4.357329   -0.062473
      2          1           0       -4.342579    3.784950   -0.230797
      3          1           0       -3.837682    5.269197    0.254956
      4          6           0       -2.713031    3.703865    0.974286
      5          1           0       -1.752478    4.235761    1.039905
      6          6           0       -2.477433    2.269254    0.486911
      7          6           0       -3.335510    3.637763    2.390858
      8          1           0       -4.280662    3.086043    2.324359
      9          1           0       -2.673854    3.064612    3.052084
     10          8           0       -3.427285    1.530142    0.231778
     11          6           0       -3.573022    5.028218    3.007188
     12          1           0       -4.252941    5.624730    2.393470
     13          1           0       -2.618190    5.564300    3.089352
     14          6           0       -4.195390    4.949764    4.386073
     15          8           0       -5.296830    5.347298    4.687574
     16          8           0       -3.359135    4.356196    5.276738
     17          7           0       -1.183387    1.876538    0.362446
     18          1           0       -0.418010    2.483472    0.630410
     19          6           0       -0.816361    0.520904    0.004575
     20          1           0       -1.395735   -0.182782    0.613699
     21          6           0        0.676522    0.367852    0.307100
     22          6           0       -1.114899    0.201139   -1.503471
     23          1           0       -0.353287    0.685976   -2.128360
     24          1           0       -2.068720    0.689481   -1.722780
     25          8           0        1.381714    1.340300    0.607311
     26          6           0       -1.222016   -1.262889   -1.820799
     27          6           0       -0.331527   -2.047106   -2.525591
     28          1           0        0.619516   -1.788495   -2.973776
     29          6           0       -2.325825   -2.124229   -1.457837
     30          6           0       -2.037407   -3.415096   -1.973981
     31          6           0       -3.528362   -1.915205   -0.756155
     32          1           0       -3.773148   -0.932138   -0.362109
     33          7           0       -0.814807   -3.336395   -2.615375
     34          1           0       -0.358800   -4.093228   -3.101592
     35          6           0       -4.083672   -4.265968   -1.104477
     36          1           0       -4.782729   -5.083801   -0.954891
     37          6           0       -2.906352   -4.498753   -1.804501
     38          1           0       -2.673206   -5.481575   -2.204989
     39          6           0       -4.391837   -2.989510   -0.587909
     40          1           0       -5.325277   -2.847284   -0.051050
     41          7           0        1.171783   -0.892678    0.182756
     42          1           0        0.594135   -1.551463   -0.340667
     43          6           0        2.616536   -1.160844    0.228893
     44          1           0        3.025186   -0.559159    1.045174
     45          6           0        3.234147   -0.718111   -1.109850
     46          6           0        2.857229   -2.647662    0.560375
     47          1           0        2.386344   -3.255936   -0.228791
     48          8           0        3.357897   -1.458749   -2.077700
     49          6           0        4.338447   -2.993731    0.640373
     50          1           0        4.823615   -2.874471   -0.331539
     51          1           0        4.444120   -4.034082    0.959716
     52          1           0        4.841318   -2.361656    1.380904
     53          8           0        2.297389   -2.943127    1.831383
     54          1           0        1.358785   -2.695533    1.817919
     55          7           0        3.591437    0.610509   -1.130624
     56          1           0        3.194287    1.189081   -0.391013
     57          6           0        4.006009    1.239399   -2.371597
     58          1           0        4.185393    0.406806   -3.064529
     59          6           0        5.349209    1.942989   -2.154901
     60          6           0        2.929727    2.180060   -2.943592
     61          1           0        2.823429    3.042230   -2.273218
     62          1           0        1.978756    1.642230   -2.893669
     63          8           0        5.574465    3.133797   -2.351813
     64          6           0        3.188020    2.639144   -4.402840
     65          1           0        4.207834    2.390058   -4.720478
     66          1           0        2.520934    2.105516   -5.086547
     67          6           0        2.974987    4.141149   -4.622595
     68          1           0        3.080834    4.387162   -5.686257
     69          1           0        1.966330    4.431523   -4.298123
     70          7           0        3.982241    4.882652   -3.849242
     71          1           0        4.569546    4.312355   -3.224356
     72          7           0        3.423427    7.007163   -4.616429
     73          1           0        3.714180    7.945726   -4.849397
     74          1           0        2.570315    6.670260   -5.037038
     75          7           0        5.317716    6.691429   -3.317137
     76          1           0        5.940655    6.074605   -2.812647
     77          1           0        5.371979    7.675305   -3.094607
     78          6           0        4.227994    6.181295   -3.926161
     79          8           0        6.288396    1.112222   -1.713217
     80          1           0        7.113996    1.619038   -1.586775
     81          1           0       -3.839477    4.332072    6.126137
 ---------------------------------------------------------------------

 SCF Done:  E(RB3LYP) =  -2053.94707258     A.U. after    2 cycles

 Alpha  occ. eigenvalues --  -19.32363 -19.28217 -19.24554 -19.22195 -19.21693
 Alpha  occ. eigenvalues --  -19.21177 -19.18802 -19.18164 -14.53530 -14.52957
 Alpha  occ. eigenvalues --  -14.52064 -14.45973 -14.45644 -14.44475 -14.43074
 Alpha  occ. eigenvalues --  -14.37664 -10.49385 -10.45623 -10.38671 -10.38515
 Alpha  occ. eigenvalues --  -10.37379 -10.37100 -10.35500 -10.35190 -10.32416
 Alpha  occ. eigenvalues --  -10.31875 -10.31623 -10.31533 -10.31490 -10.28922
 Alpha  occ. eigenvalues --  -10.28881 -10.27823 -10.27213 -10.25965 -10.25386
 Alpha  occ. eigenvalues --  -10.25271 -10.24385 -10.24265 -10.24038 -10.23816
 Alpha  occ. eigenvalues --  -10.23583 -10.23193  -1.23994  -1.17891  -1.15325
 Alpha  occ. eigenvalues --   -1.14833  -1.14053  -1.13162  -1.10065  -1.09003
 Alpha  occ. eigenvalues --   -1.07009  -1.06341  -1.06229  -1.04296  -1.03061
 Alpha  occ. eigenvalues --   -1.01804  -0.99598  -0.95026  -0.93112  -0.89459
 Alpha  occ. eigenvalues --   -0.88669  -0.87513  -0.85330  -0.84993  -0.82678
 Alpha  occ. eigenvalues --   -0.82270  -0.80117  -0.79063  -0.78619  -0.78231
 Alpha  occ. eigenvalues --   -0.76815  -0.75946  -0.74993  -0.73813  -0.72226
 Alpha  occ. eigenvalues --   -0.70970  -0.69819  -0.68818  -0.67987  -0.67489
 Alpha  occ. eigenvalues --   -0.66883  -0.66273  -0.66139  -0.65467  -0.65193
 Alpha  occ. eigenvalues --   -0.65040  -0.64699  -0.63114  -0.62480  -0.62164
 Alpha  occ. eigenvalues --   -0.61064  -0.60045  -0.59601  -0.59373  -0.59080
 Alpha  occ. eigenvalues --   -0.58338  -0.57844  -0.56964  -0.56371  -0.55733
 Alpha  occ. eigenvalues --   -0.55454  -0.54871  -0.54389  -0.54093  -0.53429
 Alpha  occ. eigenvalues --   -0.53113  -0.52867  -0.52539  -0.51973  -0.51791
 Alpha  occ. eigenvalues --   -0.51435  -0.50768  -0.50552  -0.50022  -0.49555
 Alpha  occ. eigenvalues --   -0.49040  -0.48910  -0.48528  -0.48280  -0.47938
 Alpha  occ. eigenvalues --   -0.47741  -0.47233  -0.47167  -0.47010  -0.46714
 Alpha  occ. eigenvalues --   -0.46072  -0.45905  -0.45016  -0.44989  -0.44755
 Alpha  occ. eigenvalues --   -0.44642  -0.44395  -0.43988  -0.43605  -0.43185
 Alpha  occ. eigenvalues --   -0.42410  -0.42076  -0.41728  -0.41713  -0.40822
 Alpha  occ. eigenvalues --   -0.40584  -0.40024  -0.38964  -0.38881  -0.37779
 Alpha  occ. eigenvalues --   -0.36693  -0.36201  -0.35738  -0.34917  -0.33589
 Alpha  occ. eigenvalues --   -0.33047  -0.32535  -0.32305  -0.32000  -0.29674
 Alpha  occ. eigenvalues --   -0.28091  -0.26507
 Alpha virt. eigenvalues --   -0.13250  -0.12797  -0.09130  -0.08606  -0.07360
 Alpha virt. eigenvalues --   -0.07022  -0.05707  -0.04947  -0.04031  -0.03779
 Alpha virt. eigenvalues --   -0.03418  -0.03316  -0.02967  -0.02078  -0.01367

 Mulliken charges:
               1
     1  N   -0.726324
     2  H    0.321991
     3  H    0.305901
     4  C   -0.060871
     5  H    0.121559
     6  C    0.640386
     7  C   -0.279131
     8  H    0.174654
     9  H    0.160882
    10  O   -0.531701
    11  C   -0.340456
    12  H    0.165263
    13  H    0.163314
    14  C    0.562411
    15  O   -0.445629
    16  O   -0.563306
    17  N   -0.630928
    18  H    0.348126
    19  C   -0.029143
    20  H    0.198607
    21  C    0.603369
    22  C   -0.365682
    23  H    0.133553
    24  H    0.208764
    25  O   -0.559789
    26  C    0.015977
    27  C   -0.031567
    28  H    0.166807
    29  C    0.078884
    30  C    0.308257
    31  C   -0.222525
    32  H    0.179047
    33  N   -0.683152
    34  H    0.337497
    35  C   -0.146114
    36  H    0.139049
    37  C   -0.162268
    38  H    0.134081
    39  C   -0.145184
    40  H    0.137686
    41  N   -0.636085
    42  H    0.363865
    43  C   -0.079383
    44  H    0.185934
    45  C    0.626924
    46  C    0.133738
    47  H    0.135335
    48  O   -0.520615
    49  C   -0.466918
    50  H    0.168223
    51  H    0.179480
    52  H    0.154741
    53  O   -0.616717
    54  H    0.400150
    55  N   -0.615871
    56  H    0.372964
    57  C   -0.056166
    58  H    0.224236
    59  C    0.618952
    60  C   -0.301270
    61  H    0.159303
    62  H    0.189740
    63  O   -0.524436
    64  C   -0.313560
    65  H    0.172737
    66  H    0.191089
    67  C   -0.161551
    68  H    0.185916
    69  H    0.185661
    70  N   -0.635299
    71  H    0.426132
    72  N   -0.760872
    73  H    0.385319
    74  H    0.391411
    75  N   -0.763872
    76  H    0.391523
    77  H    0.380094
    78  C    0.817163
    79  O   -0.517380
    80  H    0.431958
    81  H    0.415116
 Sum of Mulliken charges =   1.00000

 Dipole moment (field-independent basis, Debye):
    X=             20.2717    Y=             22.0550    Z=            -16.8916  Tot=             34.3903
 Quadrupole moment (field-independent basis, Debye-Ang):
   XX=           -161.5091   YY=            -69.7168   ZZ=           -167.0025
   XY=            115.4853   XZ=            -62.7661   YZ=            -86.5128

 Normal termination of Gaussian 16 at Thu May 26 18:08:54 2022.
