 Gaussian 16, Revision C.01,
 Gaussian 16:  ES64L-G16RevC.01  3-Jul-2019

 ----------------------------------------------------------------------
 # B3LYP/6-31G* empiricaldispersion=gd3 guess=read geom=check nosymm in
 tegral(ultrafinegrid)
 ----------------------------------------------------------------------

 ------------------------------------------------------
 Candidate Structure: Conf:497 Charge calc in gas phase
 ------------------------------------------------------
 Structure from the checkpoint file:  "conf-497.chk"
 Charge =  1 Multiplicity = 1

                          Input orientation:
 ---------------------------------------------------------------------
 Center     Atomic      Atomic             Coordinates (Angstroms)
 Number     Number       Type             X           Y           Z
 ---------------------------------------------------------------------
      1          7           0       -3.784321    4.614887    0.239539
      2          1           0       -4.611465    4.047678    0.054299
      3          1           0       -4.105449    5.506621    0.610296
      4          6           0       -2.961284    3.912628    1.227180
      5          1           0       -2.020047    4.471006    1.336569
      6          6           0       -2.684718    2.527980    0.636247
      7          6           0       -3.583653    3.715752    2.629099
      8          1           0       -4.501401    3.127033    2.514728
      9          1           0       -2.898182    3.129187    3.253156
     10          8           0       -3.608293    1.765277    0.356327
     11          6           0       -3.888767    5.046692    3.336623
     12          1           0       -4.604346    5.645118    2.767514
     13          1           0       -2.962676    5.624710    3.453145
     14          6           0       -4.494977    4.832178    4.706929
     15          8           0       -5.616021    5.138580    5.040343
     16          8           0       -3.615684    4.221946    5.544209
     17          7           0       -1.381656    2.185573    0.455883
     18          1           0       -0.623550    2.823215    0.660803
     19          6           0       -1.029779    0.887195   -0.075048
     20          1           0       -1.655904    0.138600    0.418368
     21          6           0        0.439901    0.614038    0.236299
     22          6           0       -1.308565    0.795253   -1.616038
     23          1           0       -0.718872    1.570569   -2.120738
     24          1           0       -2.365583    1.052136   -1.737186
     25          8           0        1.245794    1.539363    0.412308
     26          6           0       -0.992149   -0.564125   -2.155388
     27          6           0        0.056100   -0.918033   -2.967293
     28          1           0        0.767122   -0.292488   -3.487496
     29          6           0       -1.577143   -1.802126   -1.689912
     30          6           0       -0.811899   -2.863645   -2.250171
     31          6           0       -2.647061   -2.104559   -0.824236
     32          1           0       -3.261423   -1.308736   -0.409729
     33          7           0        0.151211   -2.292839   -3.059782
     34          1           0        0.979229   -2.767435   -3.388495
     35          6           0       -2.124422   -4.473702   -1.081648
     36          1           0       -2.352351   -5.504456   -0.826739
     37          6           0       -1.074098   -4.205998   -1.952238
     38          1           0       -0.480799   -5.006389   -2.384964
     39          6           0       -2.906214   -3.436489   -0.527870
     40          1           0       -3.727424   -3.688647    0.136396
     41          7           0        0.788156   -0.697231    0.264496
     42          1           0        0.107518   -1.350291   -0.117162
     43          6           0        2.178848   -1.167612    0.317880
     44          1           0        2.688684   -0.592703    1.096882
     45          6           0        2.834609   -0.901291   -1.050744
     46          6           0        2.193844   -2.654734    0.721507
     47          1           0        1.626957   -3.218596   -0.037805
     48          8           0        2.916230   -1.735914   -1.943643
     49          6           0        3.608748   -3.209179    0.811243
     50          1           0        4.096553   -3.196157   -0.166032
     51          1           0        3.564912   -4.239617    1.173501
     52          1           0        4.200204   -2.624866    1.525060
     53          8           0        1.614404   -2.803992    2.009768
     54          1           0        0.696586   -2.490958    1.978089
     55          7           0        3.270751    0.394536   -1.185620
     56          1           0        2.917699    1.050301   -0.486924
     57          6           0        3.606211    0.929954   -2.491320
     58          1           0        3.543448    0.085059   -3.189410
     59          6           0        5.067577    1.387932   -2.486105
     60          6           0        2.638361    2.052448   -2.899208
     61          1           0        2.806042    2.911576   -2.237895
     62          1           0        1.628004    1.703907   -2.672729
     63          8           0        5.464153    2.526098   -2.722184
     64          6           0        2.737002    2.465558   -4.389419
     65          1           0        3.636224    2.043122   -4.854658
     66          1           0        1.887138    2.063451   -4.949446
     67          6           0        2.764252    3.983645   -4.597360
     68          1           0        2.753291    4.224455   -5.667346
     69          1           0        1.885546    4.445893   -4.127293
     70          7           0        3.992815    4.514074   -3.990614
     71          1           0        4.548692    3.837102   -3.448293
     72          7           0        3.748611    6.715843   -4.703147
     73          1           0        4.178559    7.581968   -4.994176
     74          1           0        2.791447    6.559719   -4.981946
     75          7           0        5.717362    6.018218   -3.691286
     76          1           0        6.272105    5.281899   -3.274164
     77          1           0        5.992581    6.967977   -3.484381
     78          6           0        4.470391    5.740586   -4.124915
     79          8           0        5.897877    0.396726   -2.181512
     80          1           0        6.810774    0.744069   -2.171839
     81          1           0       -4.081746    4.102683    6.393304
 ---------------------------------------------------------------------

 SCF Done:  E(RB3LYP) =  -2054.04831883     A.U. after    1 cycles

 Alpha  occ. eigenvalues --  -19.32449 -19.28337 -19.24442 -19.22168 -19.21766
 Alpha  occ. eigenvalues --  -19.21267 -19.18693 -19.18067 -14.53536 -14.52912
 Alpha  occ. eigenvalues --  -14.52011 -14.45762 -14.45736 -14.44769 -14.43291
 Alpha  occ. eigenvalues --  -14.37649 -10.49364 -10.45684 -10.38650 -10.38528
 Alpha  occ. eigenvalues --  -10.37457 -10.36969 -10.35594 -10.35156 -10.32619
 Alpha  occ. eigenvalues --  -10.31939 -10.31575 -10.31544 -10.31524 -10.29347
 Alpha  occ. eigenvalues --  -10.28959 -10.28857 -10.27317 -10.25777 -10.25759
 Alpha  occ. eigenvalues --  -10.25616 -10.25469 -10.25250 -10.25110 -10.25062
 Alpha  occ. eigenvalues --  -10.24593 -10.23963  -1.24077  -1.17889  -1.15181
 Alpha  occ. eigenvalues --   -1.14972  -1.14041  -1.13129  -1.10108  -1.09060
 Alpha  occ. eigenvalues --   -1.07035  -1.06248  -1.06210  -1.04963  -1.03198
 Alpha  occ. eigenvalues --   -1.01942  -0.99711  -0.95034  -0.93298  -0.90653
 Alpha  occ. eigenvalues --   -0.88919  -0.87989  -0.85569  -0.84934  -0.82971
 Alpha  occ. eigenvalues --   -0.82366  -0.80221  -0.80176  -0.79335  -0.78436
 Alpha  occ. eigenvalues --   -0.77047  -0.76083  -0.75029  -0.73858  -0.72278
 Alpha  occ. eigenvalues --   -0.71081  -0.69891  -0.69070  -0.68762  -0.67446
 Alpha  occ. eigenvalues --   -0.66956  -0.66359  -0.66133  -0.66124  -0.65837
 Alpha  occ. eigenvalues --   -0.65004  -0.64684  -0.63310  -0.62922  -0.62320
 Alpha  occ. eigenvalues --   -0.61268  -0.60553  -0.60208  -0.59567  -0.59146
 Alpha  occ. eigenvalues --   -0.58417  -0.57820  -0.56986  -0.56677  -0.56018
 Alpha  occ. eigenvalues --   -0.55462  -0.55276  -0.54947  -0.54014  -0.53920
 Alpha  occ. eigenvalues --   -0.53688  -0.52964  -0.52483  -0.52048  -0.51988
 Alpha  occ. eigenvalues --   -0.51316  -0.50827  -0.50740  -0.50129  -0.49815
 Alpha  occ. eigenvalues --   -0.49568  -0.49251  -0.49145  -0.48744  -0.48563
 Alpha  occ. eigenvalues --   -0.47952  -0.47663  -0.47408  -0.47181  -0.46769
 Alpha  occ. eigenvalues --   -0.46140  -0.45924  -0.45543  -0.45118  -0.44834
 Alpha  occ. eigenvalues --   -0.44668  -0.44456  -0.44391  -0.43591  -0.43183
 Alpha  occ. eigenvalues --   -0.42403  -0.42193  -0.41975  -0.41726  -0.41380
 Alpha  occ. eigenvalues --   -0.40692  -0.40385  -0.40009  -0.39635  -0.38005
 Alpha  occ. eigenvalues --   -0.36594  -0.36317  -0.35602  -0.35034  -0.34305
 Alpha  occ. eigenvalues --   -0.33112  -0.32590  -0.32411  -0.31984  -0.29615
 Alpha  occ. eigenvalues --   -0.29257  -0.27290
 Alpha virt. eigenvalues --   -0.13273  -0.12823  -0.09129  -0.08951  -0.08199
 Alpha virt. eigenvalues --   -0.07130  -0.05706  -0.04878  -0.04484  -0.04012
 Alpha virt. eigenvalues --   -0.03982  -0.03704  -0.03274  -0.01894  -0.01396

 Mulliken charges:
               1
     1  N   -0.724164
     2  H    0.321245
     3  H    0.307402
     4  C   -0.062519
     5  H    0.122859
     6  C    0.644793
     7  C   -0.279382
     8  H    0.175168
     9  H    0.161180
    10  O   -0.539056
    11  C   -0.340113
    12  H    0.165490
    13  H    0.164130
    14  C    0.562192
    15  O   -0.445312
    16  O   -0.563973
    17  N   -0.625204
    18  H    0.343517
    19  C   -0.039870
    20  H    0.190706
    21  C    0.620015
    22  C   -0.348048
    23  H    0.131448
    24  H    0.205780
    25  O   -0.572241
    26  C    0.049105
    27  C   -0.001354
    28  H    0.130626
    29  C    0.013665
    30  C    0.304686
    31  C   -0.225559
    32  H    0.168911
    33  N   -0.660408
    34  H    0.348397
    35  C   -0.148544
    36  H    0.145299
    37  C   -0.166757
    38  H    0.142266
    39  C   -0.143486
    40  H    0.144049
    41  N   -0.628719
    42  H    0.373326
    43  C   -0.074815
    44  H    0.185991
    45  C    0.642299
    46  C    0.120054
    47  H    0.141332
    48  O   -0.534071
    49  C   -0.467440
    50  H    0.169979
    51  H    0.178376
    52  H    0.154662
    53  O   -0.616640
    54  H    0.399513
    55  N   -0.618968
    56  H    0.379345
    57  C   -0.055599
    58  H    0.214464
    59  C    0.625072
    60  C   -0.316395
    61  H    0.164305
    62  H    0.193803
    63  O   -0.526256
    64  C   -0.317187
    65  H    0.172676
    66  H    0.189719
    67  C   -0.159356
    68  H    0.186004
    69  H    0.185586
    70  N   -0.636162
    71  H    0.428469
    72  N   -0.761133
    73  H    0.385418
    74  H    0.390976
    75  N   -0.764056
    76  H    0.391787
    77  H    0.379759
    78  C    0.815565
    79  O   -0.515727
    80  H    0.432264
    81  H    0.414838
 Sum of Mulliken charges =   1.00000

 Dipole moment (field-independent basis, Debye):
    X=             21.1429    Y=             20.7367    Z=            -17.3036  Tot=             34.2994
 Quadrupole moment (field-independent basis, Debye-Ang):
   XX=           -156.3055   YY=            -92.9871   ZZ=           -163.3360
   XY=            106.8399   XZ=            -74.1335   YZ=            -89.5933

 Normal termination of Gaussian 16 at Thu May 12 23:07:31 2022.
