 Gaussian 16, Revision C.01,
 Gaussian 16:  ES64L-G16RevC.01  3-Jul-2019

 -------------------------------------------------------------------
 # B3LYP/6-31G* guess=read geom=check nosymm integral(ultrafinegrid)
 -------------------------------------------------------------------

 ------------------------------------------------------
 Candidate Structure: Conf:749 Charge calc in gas phase
 ------------------------------------------------------
 Structure from the checkpoint file:  "conf-749.chk"
 Charge =  1 Multiplicity = 1

                          Input orientation:
 ---------------------------------------------------------------------
 Center     Atomic      Atomic             Coordinates (Angstroms)
 Number     Number       Type             X           Y           Z
 ---------------------------------------------------------------------
      1          7           0       -3.418655    1.424320    5.018877
      2          1           0       -4.351605    1.055901    4.836131
      3          1           0       -2.836887    0.602341    5.189367
      4          6           0       -2.912104    2.078851    3.813528
      5          1           0       -3.674165    2.782620    3.462066
      6          6           0       -2.604458    1.067053    2.693483
      7          6           0       -1.638084    2.866677    4.196000
      8          1           0       -1.901952    3.507726    5.043251
      9          1           0       -0.887535    2.153074    4.557092
     10          8           0       -2.195334   -0.064915    2.948581
     11          6           0       -0.980763    3.706616    3.072827
     12          1           0       -0.653985    3.061861    2.250559
     13          1           0       -0.105365    4.217562    3.482350
     14          6           0       -1.929893    4.732168    2.506648
     15          8           0       -2.819557    4.504976    1.698870
     16          8           0       -1.736026    5.966024    3.011112
     17          7           0       -2.820190    1.489183    1.409814
     18          1           0       -2.918523    2.490944    1.243941
     19          6           0       -2.386582    0.637715    0.326448
     20          1           0       -2.771024   -0.366120    0.536276
     21          6           0       -0.847408    0.517835    0.280187
     22          6           0       -2.991874    1.079796   -1.034611
     23          1           0       -4.041179    0.764648   -1.029552
     24          1           0       -2.498321    0.490666   -1.819461
     25          8           0       -0.087266    1.431383    0.594415
     26          6           0       -2.957053    2.545770   -1.378121
     27          6           0       -4.062663    3.362326   -1.362584
     28          1           0       -5.076683    3.129599   -1.066368
     29          6           0       -1.863154    3.368739   -1.844253
     30          6           0       -2.396268    4.665330   -2.110423
     31          6           0       -0.484950    3.159143   -2.058133
     32          1           0       -0.020576    2.217719   -1.786178
     33          7           0       -3.741480    4.622851   -1.819152
     34          1           0       -4.352705    5.424629   -1.773536
     35          6           0       -0.263063    5.477414   -2.814079
     36          1           0        0.374414    6.279160   -3.174623
     37          6           0       -1.614383    5.719717   -2.598584
     38          1           0       -2.045190    6.699295   -2.788045
     39          6           0        0.296444    4.210234   -2.539346
     40          1           0        1.367858    4.069517   -2.657734
     41          7           0       -0.400162   -0.678836   -0.189644
     42          1           0       -1.039389   -1.457217   -0.316290
     43          6           0        0.996991   -1.077287   -0.105808
     44          1           0        1.484057   -0.437542    0.635993
     45          6           0        1.679058   -0.924587   -1.472972
     46          6           0        1.050568   -2.568405    0.332171
     47          1           0        2.084409   -2.922773    0.198010
     48          8           0        1.455799   -1.708584   -2.401914
     49          6           0        0.636100   -2.758230    1.785562
     50          1           0        1.374086   -2.307283    2.457389
     51          1           0        0.573299   -3.827710    2.005384
     52          1           0       -0.337425   -2.302038    1.992192
     53          8           0        0.162130   -3.320184   -0.489565
     54          1           0        0.476805   -3.185983   -1.405556
     55          7           0        2.539329    0.121830   -1.596545
     56          1           0        2.775799    0.668629   -0.774837
     57          6           0        3.455288    0.237208   -2.719280
     58          1           0        3.571664   -0.757783   -3.162379
     59          6           0        4.804440    0.696105   -2.167904
     60          6           0        2.981588    1.215946   -3.820761
     61          1           0        3.765655    1.262445   -4.585982
     62          1           0        2.897804    2.221164   -3.385835
     63          8           0        4.975544    1.115613   -1.045674
     64          6           0        1.646682    0.811892   -4.459531
     65          1           0        1.714566   -0.211013   -4.848649
     66          1           0        0.853670    0.803195   -3.704592
     67          6           0        1.272424    1.776581   -5.591134
     68          1           0        1.176637    2.803098   -5.226813
     69          1           0        2.049330    1.787124   -6.363437
     70          7           0        0.011618    1.415996   -6.263161
     71          1           0        0.026271    0.574672   -6.826402
     72          7           0       -1.389044    2.939037   -5.186202
     73          1           0       -2.226117    3.504269   -5.201916
     74          1           0       -0.814222    3.027066   -4.345919
     75          7           0       -2.168866    1.696894   -6.976752
     76          1           0       -1.981955    1.233323   -7.854175
     77          1           0       -3.125744    1.953257   -6.782209
     78          6           0       -1.173597    2.018900   -6.125521
     79          8           0        5.773999    0.605884   -3.096405
     80          1           0        6.600149    0.926205   -2.684710
     81          1           0       -2.421201    6.542705    2.622142
 ---------------------------------------------------------------------

 SCF Done:  E(RB3LYP) =  -2053.95871557     A.U. after    1 cycles

 Alpha  occ. eigenvalues --  -19.29542 -19.26651 -19.24028 -19.21366 -19.21257
 Alpha  occ. eigenvalues --  -19.20765 -19.19373 -19.17396 -14.53347 -14.53227
 Alpha  occ. eigenvalues --  -14.52174 -14.47526 -14.45751 -14.43683 -14.41460
 Alpha  occ. eigenvalues --  -14.36201 -10.49463 -10.42050 -10.39118 -10.38092
 Alpha  occ. eigenvalues --  -10.36633 -10.36191 -10.34119 -10.33752 -10.31897
 Alpha  occ. eigenvalues --  -10.31296 -10.31200 -10.31020 -10.30789 -10.30759
 Alpha  occ. eigenvalues --  -10.30485 -10.29001 -10.28743 -10.28610 -10.28514
 Alpha  occ. eigenvalues --  -10.28489 -10.28456 -10.27746 -10.27524 -10.25516
 Alpha  occ. eigenvalues --  -10.25028 -10.23324  -1.20553  -1.17761  -1.17595
 Alpha  occ. eigenvalues --   -1.13233  -1.11698  -1.11177  -1.09021  -1.08426
 Alpha  occ. eigenvalues --   -1.08295  -1.07560  -1.07152  -1.05679  -1.02298
 Alpha  occ. eigenvalues --   -0.99942  -0.98385  -0.93861  -0.93767  -0.92283
 Alpha  occ. eigenvalues --   -0.89484  -0.87704  -0.85496  -0.84847  -0.83814
 Alpha  occ. eigenvalues --   -0.83257  -0.81849  -0.81160  -0.78914  -0.78014
 Alpha  occ. eigenvalues --   -0.76683  -0.75126  -0.74088  -0.72926  -0.71935
 Alpha  occ. eigenvalues --   -0.71514  -0.71303  -0.69597  -0.68981  -0.68120
 Alpha  occ. eigenvalues --   -0.66956  -0.66625  -0.66110  -0.65854  -0.65770
 Alpha  occ. eigenvalues --   -0.64626  -0.63410  -0.63205  -0.61783  -0.61589
 Alpha  occ. eigenvalues --   -0.60275  -0.59689  -0.58763  -0.58464  -0.57885
 Alpha  occ. eigenvalues --   -0.57843  -0.57246  -0.56997  -0.56886  -0.56299
 Alpha  occ. eigenvalues --   -0.56106  -0.55461  -0.54846  -0.54241  -0.53912
 Alpha  occ. eigenvalues --   -0.53483  -0.53125  -0.52737  -0.52180  -0.51897
 Alpha  occ. eigenvalues --   -0.51762  -0.51006  -0.50915  -0.50520  -0.50413
 Alpha  occ. eigenvalues --   -0.49903  -0.49579  -0.48678  -0.48565  -0.48377
 Alpha  occ. eigenvalues --   -0.47956  -0.47305  -0.47192  -0.47107  -0.46829
 Alpha  occ. eigenvalues --   -0.46396  -0.45761  -0.44989  -0.44690  -0.44587
 Alpha  occ. eigenvalues --   -0.44258  -0.44198  -0.44059  -0.43554  -0.43006
 Alpha  occ. eigenvalues --   -0.42672  -0.42615  -0.41814  -0.41793  -0.41534
 Alpha  occ. eigenvalues --   -0.41050  -0.40158  -0.39438  -0.38606  -0.37739
 Alpha  occ. eigenvalues --   -0.37257  -0.35932  -0.35538  -0.34794  -0.34482
 Alpha  occ. eigenvalues --   -0.33542  -0.32440  -0.32226  -0.32013  -0.30863
 Alpha  occ. eigenvalues --   -0.30002  -0.28734
 Alpha virt. eigenvalues --   -0.13371  -0.11263  -0.09402  -0.08931  -0.08000
 Alpha virt. eigenvalues --   -0.07518  -0.06297  -0.05718  -0.05281  -0.04617
 Alpha virt. eigenvalues --   -0.03796  -0.03385  -0.03199  -0.01715  -0.01139

 Mulliken charges:
               1
     1  N   -0.696474
     2  H    0.302218
     3  H    0.315157
     4  C   -0.091518
     5  H    0.149843
     6  C    0.594916
     7  C   -0.264184
     8  H    0.176451
     9  H    0.164919
    10  O   -0.540634
    11  C   -0.386173
    12  H    0.219834
    13  H    0.175770
    14  C    0.589190
    15  O   -0.494356
    16  O   -0.543940
    17  N   -0.630746
    18  H    0.387075
    19  C   -0.041246
    20  H    0.173422
    21  C    0.643666
    22  C   -0.370795
    23  H    0.166868
    24  H    0.144990
    25  O   -0.542158
    26  C    0.058611
    27  C    0.019121
    28  H    0.174233
    29  C    0.079688
    30  C    0.306118
    31  C   -0.272024
    32  H    0.166279
    33  N   -0.679941
    34  H    0.344406
    35  C   -0.149876
    36  H    0.148860
    37  C   -0.175310
    38  H    0.147635
    39  C   -0.186445
    40  H    0.141492
    41  N   -0.600501
    42  H    0.351707
    43  C   -0.081940
    44  H    0.179338
    45  C    0.640484
    46  C    0.110558
    47  H    0.137057
    48  O   -0.558144
    49  C   -0.462174
    50  H    0.152783
    51  H    0.175528
    52  H    0.180755
    53  O   -0.642150
    54  H    0.416871
    55  N   -0.607309
    56  H    0.368323
    57  C   -0.045305
    58  H    0.207517
    59  C    0.584609
    60  C   -0.284749
    61  H    0.175359
    62  H    0.159429
    63  O   -0.449370
    64  C   -0.270266
    65  H    0.174037
    66  H    0.170179
    67  C   -0.174357
    68  H    0.186430
    69  H    0.193036
    70  N   -0.596149
    71  H    0.364782
    72  N   -0.763711
    73  H    0.378588
    74  H    0.406175
    75  N   -0.763436
    76  H    0.382610
    77  H    0.382548
    78  C    0.816026
    79  O   -0.560855
    80  H    0.430964
    81  H    0.409782
 Sum of Mulliken charges =   1.00000

 Dipole moment (field-independent basis, Debye):
    X=             -4.5250    Y=             13.3308    Z=            -26.3446  Tot=             29.8701
 Quadrupole moment (field-independent basis, Debye-Ang):
   XX=           -172.1543   YY=           -189.7016   ZZ=            -88.3573
   XY=            -34.1984   XZ=             24.4673   YZ=            -49.6978

 Normal termination of Gaussian 16 at Thu May 26 18:08:25 2022.
