 Gaussian 16, Revision C.01,
 Gaussian 16:  ES64L-G16RevC.01  3-Jul-2019

 -------------------------------------------------------------------
 # B3LYP/6-31G* guess=read geom=check nosymm integral(ultrafinegrid)
 -------------------------------------------------------------------

 ------------------------------------------------------
 Candidate Structure: Conf:807 Charge calc in gas phase
 ------------------------------------------------------
 Structure from the checkpoint file:  "conf-807.chk"
 Charge =  1 Multiplicity = 1

                          Input orientation:
 ---------------------------------------------------------------------
 Center     Atomic      Atomic             Coordinates (Angstroms)
 Number     Number       Type             X           Y           Z
 ---------------------------------------------------------------------
      1          7           0       -3.658434   -0.718535    2.773321
      2          1           0       -4.577304   -0.734697    2.329795
      3          1           0       -3.717335   -1.336305    3.580471
      4          6           0       -2.635843   -1.201523    1.837769
      5          1           0       -1.747888   -1.443291    2.439458
      6          6           0       -2.212042   -0.043317    0.918191
      7          6           0       -3.019398   -2.438031    0.989039
      8          1           0       -3.582061   -3.137818    1.616710
      9          1           0       -3.694696   -2.104767    0.191732
     10          8           0       -1.803041   -0.238458   -0.231728
     11          6           0       -1.800270   -3.168967    0.360174
     12          1           0       -1.410732   -3.916424    1.057713
     13          1           0       -1.022867   -2.444547    0.123152
     14          6           0       -2.201420   -3.820007   -0.945888
     15          8           0       -2.128088   -3.306112   -2.047135
     16          8           0       -2.733904   -5.046580   -0.754631
     17          7           0       -2.293903    1.204988    1.439468
     18          1           0       -2.834372    1.290300    2.297625
     19          6           0       -2.068769    2.350966    0.565020
     20          1           0       -2.572389    2.164561   -0.384079
     21          6           0       -0.590911    2.522779    0.185659
     22          6           0       -2.662713    3.651376    1.166051
     23          1           0       -2.225014    4.494639    0.615552
     24          1           0       -2.342140    3.757833    2.209857
     25          8           0       -0.275506    2.941094   -0.936246
     26          6           0       -4.156978    3.671285    1.047942
     27          6           0       -5.091472    3.595966    2.051773
     28          1           0       -4.951771    3.572788    3.124549
     29          6           0       -4.890813    3.697944   -0.193772
     30          6           0       -6.271898    3.622296    0.133011
     31          6           0       -4.516769    3.798761   -1.548099
     32          1           0       -3.472372    3.937395   -1.823839
     33          7           0       -6.361025    3.559395    1.509945
     34          1           0       -7.219236    3.564834    2.040421
     35          6           0       -6.870420    3.699875   -2.175400
     36          1           0       -7.622595    3.704144   -2.958648
     37          6           0       -7.271127    3.620508   -0.846617
     38          1           0       -8.323381    3.565490   -0.581398
     39          6           0       -5.506936    3.795270   -2.524807
     40          1           0       -5.233873    3.891139   -3.572096
     41          7           0        0.296573    2.235841    1.160435
     42          1           0       -0.044080    1.764208    1.994253
     43          6           0        1.728727    2.087966    0.957766
     44          1           0        2.114970    2.959375    0.421014
     45          6           0        2.017341    0.786965    0.189875
     46          6           0        2.396624    1.966694    2.361674
     47          1           0        3.440391    1.651969    2.203709
     48          8           0        1.602572   -0.299043    0.612003
     49          6           0        2.382334    3.273268    3.143170
     50          1           0        2.987141    4.033536    2.637854
     51          1           0        2.796139    3.102480    4.140778
     52          1           0        1.363204    3.655709    3.253576
     53          8           0        1.693967    0.991718    3.122381
     54          1           0        1.694877    0.170314    2.589187
     55          7           0        2.799530    0.895858   -0.909566
     56          1           0        3.191580    1.790402   -1.183644
     57          6           0        3.269165   -0.271103   -1.637929
     58          1           0        3.523144   -1.057220   -0.919057
     59          6           0        4.538851    0.133682   -2.376515
     60          6           0        2.187446   -0.830699   -2.595240
     61          1           0        1.308418   -1.045117   -1.977964
     62          1           0        2.545265   -1.782022   -3.005421
     63          8           0        4.953389    1.270954   -2.450831
     64          6           0        1.836708    0.139342   -3.728680
     65          1           0        1.692332    1.144799   -3.315107
     66          1           0        2.673985    0.214739   -4.434561
     67          6           0        0.601923   -0.265740   -4.544656
     68          1           0        0.525549    0.347726   -5.451441
     69          1           0        0.694465   -1.300526   -4.884466
     70          7           0       -0.671178   -0.199737   -3.808807
     71          1           0       -1.181438   -1.063963   -3.661484
     72          7           0       -0.831898    2.143193   -3.653805
     73          1           0       -0.831633    2.785388   -2.857527
     74          1           0       -0.044341    2.247109   -4.278691
     75          7           0       -2.411053    0.770275   -2.654396
     76          1           0       -2.399562    0.111231   -1.870007
     77          1           0       -2.916673    1.626971   -2.451988
     78          6           0       -1.275093    0.903875   -3.367168
     79          8           0        5.127959   -0.922808   -2.962991
     80          1           0        5.930938   -0.595907   -3.414711
     81          1           0       -3.011404   -5.378357   -1.630771
 ---------------------------------------------------------------------

 SCF Done:  E(RB3LYP) =  -2053.98188088     A.U. after    1 cycles

 Alpha  occ. eigenvalues --  -19.29963 -19.27674 -19.24563 -19.22806 -19.22716
 Alpha  occ. eigenvalues --  -19.22254 -19.22228 -19.21982 -14.50099 -14.48358
 Alpha  occ. eigenvalues --  -14.46837 -14.46530 -14.46386 -14.46163 -14.45732
 Alpha  occ. eigenvalues --  -14.42785 -10.44981 -10.42527 -10.40414 -10.39355
 Alpha  occ. eigenvalues --  -10.38941 -10.38936 -10.35136 -10.34242 -10.33334
 Alpha  occ. eigenvalues --  -10.33272 -10.32993 -10.32907 -10.30456 -10.30199
 Alpha  occ. eigenvalues --  -10.30010 -10.29430 -10.29396 -10.28831 -10.28042
 Alpha  occ. eigenvalues --  -10.27022 -10.26859 -10.26852 -10.26655 -10.26285
 Alpha  occ. eigenvalues --  -10.26229 -10.25613  -1.20994  -1.18513  -1.14845
 Alpha  occ. eigenvalues --   -1.14129  -1.13678  -1.13111  -1.12139  -1.10323
 Alpha  occ. eigenvalues --   -1.09377  -1.06054  -1.03698  -1.03421  -1.02976
 Alpha  occ. eigenvalues --   -1.01863  -1.01026  -0.99347  -0.91946  -0.91252
 Alpha  occ. eigenvalues --   -0.89743  -0.88076  -0.87582  -0.85860  -0.84539
 Alpha  occ. eigenvalues --   -0.81633  -0.80859  -0.80544  -0.79890  -0.79214
 Alpha  occ. eigenvalues --   -0.75801  -0.75568  -0.73291  -0.72729  -0.71818
 Alpha  occ. eigenvalues --   -0.70350  -0.70234  -0.68822  -0.68320  -0.68069
 Alpha  occ. eigenvalues --   -0.67982  -0.67649  -0.67179  -0.66047  -0.64747
 Alpha  occ. eigenvalues --   -0.63622  -0.63353  -0.63004  -0.61906  -0.61846
 Alpha  occ. eigenvalues --   -0.61189  -0.60069  -0.59773  -0.59069  -0.58542
 Alpha  occ. eigenvalues --   -0.58234  -0.57815  -0.57765  -0.57423  -0.56735
 Alpha  occ. eigenvalues --   -0.56496  -0.56161  -0.55198  -0.54638  -0.54256
 Alpha  occ. eigenvalues --   -0.54222  -0.53692  -0.53487  -0.53218  -0.52578
 Alpha  occ. eigenvalues --   -0.52294  -0.51683  -0.51500  -0.51394  -0.51185
 Alpha  occ. eigenvalues --   -0.50861  -0.50778  -0.50305  -0.49770  -0.49732
 Alpha  occ. eigenvalues --   -0.49343  -0.49041  -0.48482  -0.47733  -0.47438
 Alpha  occ. eigenvalues --   -0.46705  -0.46594  -0.46556  -0.46299  -0.46184
 Alpha  occ. eigenvalues --   -0.45537  -0.45177  -0.45012  -0.44633  -0.44483
 Alpha  occ. eigenvalues --   -0.43915  -0.43369  -0.42148  -0.42037  -0.41637
 Alpha  occ. eigenvalues --   -0.41254  -0.40543  -0.39888  -0.38741  -0.38393
 Alpha  occ. eigenvalues --   -0.38180  -0.37303  -0.37065  -0.36063  -0.36004
 Alpha  occ. eigenvalues --   -0.35962  -0.35618  -0.34797  -0.34196  -0.34059
 Alpha  occ. eigenvalues --   -0.30362  -0.28641
 Alpha virt. eigenvalues --   -0.11389  -0.09781  -0.09592  -0.09293  -0.08558
 Alpha virt. eigenvalues --   -0.07566  -0.07305  -0.05512  -0.04660  -0.02755
 Alpha virt. eigenvalues --   -0.02265  -0.02079  -0.01518  -0.00967  -0.00676

 Mulliken charges:
               1
     1  N   -0.742563
     2  H    0.317946
     3  H    0.329553
     4  C   -0.081457
     5  H    0.189716
     6  C    0.634989
     7  C   -0.283446
     8  H    0.162798
     9  H    0.157924
    10  O   -0.563265
    11  C   -0.333701
    12  H    0.175772
    13  H    0.203339
    14  C    0.556030
    15  O   -0.487033
    16  O   -0.546030
    17  N   -0.615245
    18  H    0.367873
    19  C   -0.021694
    20  H    0.151923
    21  C    0.649722
    22  C   -0.396315
    23  H    0.186257
    24  H    0.161938
    25  O   -0.581921
    26  C    0.069544
    27  C   -0.003137
    28  H    0.164576
    29  C    0.085075
    30  C    0.313376
    31  C   -0.245278
    32  H    0.123924
    33  N   -0.688350
    34  H    0.341542
    35  C   -0.149390
    36  H    0.145617
    37  C   -0.155646
    38  H    0.144019
    39  C   -0.140955
    40  H    0.134883
    41  N   -0.583423
    42  H    0.356591
    43  C   -0.083569
    44  H    0.168419
    45  C    0.649355
    46  C    0.109626
    47  H    0.144095
    48  O   -0.557578
    49  C   -0.449450
    50  H    0.155462
    51  H    0.183290
    52  H    0.157520
    53  O   -0.638226
    54  H    0.417504
    55  N   -0.610609
    56  H    0.361970
    57  C   -0.044261
    58  H    0.210620
    59  C    0.584682
    60  C   -0.275458
    61  H    0.191922
    62  H    0.173223
    63  O   -0.460069
    64  C   -0.290648
    65  H    0.154582
    66  H    0.170497
    67  C   -0.177237
    68  H    0.181372
    69  H    0.193958
    70  N   -0.571929
    71  H    0.387705
    72  N   -0.752056
    73  H    0.406271
    74  H    0.360548
    75  N   -0.758385
    76  H    0.408675
    77  H    0.366328
    78  C    0.737123
    79  O   -0.558992
    80  H    0.431147
    81  H    0.416502
 Sum of Mulliken charges =   1.00000

 Dipole moment (field-independent basis, Debye):
    X=             -6.3597    Y=              2.1386    Z=             -4.8767  Tot=              8.2947
 Quadrupole moment (field-independent basis, Debye-Ang):
   XX=           -148.7127   YY=           -214.2236   ZZ=           -181.5336
   XY=            -11.4371   XZ=            -32.5798   YZ=              7.6541

 Normal termination of Gaussian 16 at Thu May 26 18:08:25 2022.
