 Gaussian 16, Revision C.01,
 Gaussian 16:  ES64L-G16RevC.01  3-Jul-2019

 -------------------------------------------------------------------
 # B3LYP/6-31G* guess=read geom=check nosymm integral(ultrafinegrid)
 -------------------------------------------------------------------

 -----------------------------------------------------
 Candidate Structure: Conf:95 Charge calc in gas phase
 -----------------------------------------------------
 Structure from the checkpoint file:  "conf-95.chk"
 Charge =  1 Multiplicity = 1

                          Input orientation:
 ---------------------------------------------------------------------
 Center     Atomic      Atomic             Coordinates (Angstroms)
 Number     Number       Type             X           Y           Z
 ---------------------------------------------------------------------
      1          7           0       -4.054274    1.904846    4.409799
      2          1           0       -4.621255    1.101287    4.143021
      3          1           0       -3.219581    1.520991    4.855164
      4          6           0       -3.633928    2.636693    3.218036
      5          1           0       -4.522784    2.827255    2.604031
      6          6           0       -2.586127    1.844776    2.407221
      7          6           0       -3.051480    3.994665    3.668262
      8          1           0       -3.788862    4.454879    4.330855
      9          1           0       -2.147403    3.802981    4.257816
     10          8           0       -1.706152    1.193467    2.960626
     11          6           0       -2.702519    4.955758    2.527659
     12          1           0       -2.110178    4.445279    1.759261
     13          1           0       -2.093568    5.789004    2.906471
     14          6           0       -3.911471    5.572141    1.858641
     15          8           0       -5.047744    5.563583    2.252492
     16          8           0       -3.576072    6.219095    0.680862
     17          7           0       -2.661082    1.925372    1.035970
     18          1           0       -3.543485    2.229760    0.637523
     19          6           0       -1.905896    0.977297    0.223630
     20          1           0       -2.180051   -0.045263    0.516777
     21          6           0       -0.386728    1.130747    0.370897
     22          6           0       -2.235161    1.164560   -1.283413
     23          1           0       -1.608184    0.459316   -1.839611
     24          1           0       -1.901409    2.167833   -1.574397
     25          8           0        0.206346    2.207743    0.198240
     26          6           0       -3.685660    0.978360   -1.624202
     27          6           0       -4.305028   -0.198551   -1.974121
     28          1           0       -3.882457   -1.185563   -2.106831
     29          6           0       -4.717584    1.989917   -1.615089
     30          6           0       -5.940190    1.347951   -1.962400
     31          6           0       -4.734510    3.375333   -1.359542
     32          1           0       -3.816538    3.903925   -1.111149
     33          7           0       -5.651916    0.016227   -2.173158
     34          1           0       -6.315350   -0.686733   -2.462427
     35          6           0       -7.136362    3.403189   -1.780132
     36          1           0       -8.061633    3.968685   -1.834392
     37          6           0       -7.152512    2.039826   -2.048408
     38          1           0       -8.075356    1.531921   -2.314313
     39          6           0       -5.938252    4.064177   -1.441323
     40          1           0       -5.963928    5.132679   -1.244482
     41          7           0        0.273249   -0.030464    0.520622
     42          1           0       -0.202565   -0.844023    0.891410
     43          6           0        1.710893   -0.154333    0.372726
     44          1           0        2.225477    0.382833    1.180417
     45          6           0        2.113773    0.417581   -1.005302
     46          6           0        2.078272   -1.657110    0.432502
     47          1           0        1.737785   -2.113501   -0.509694
     48          8           0        1.404397    0.265449   -1.992781
     49          6           0        3.575914   -1.890898    0.617577
     50          1           0        4.165216   -1.451942   -0.194160
     51          1           0        3.790644   -2.965506    0.633527
     52          1           0        3.911765   -1.465292    1.569523
     53          8           0        1.328062   -2.189716    1.526645
     54          1           0        1.477763   -3.147634    1.559809
     55          7           0        3.299652    1.085364   -1.037917
     56          1           0        3.924553    1.071606   -0.240952
     57          6           0        3.844998    1.606980   -2.277793
     58          1           0        3.352328    1.089398   -3.106618
     59          6           0        5.338482    1.295926   -2.305628
     60          6           0        3.611887    3.132415   -2.406896
     61          1           0        4.141275    3.499958   -3.293455
     62          1           0        4.074362    3.613341   -1.533398
     63          8           0        5.969408    0.888977   -1.354217
     64          6           0        2.121703    3.505573   -2.476673
     65          1           0        1.717595    3.258866   -3.466328
     66          1           0        1.553184    2.923248   -1.746952
     67          6           0        1.935551    4.996332   -2.183377
     68          1           0        2.273613    5.226256   -1.168267
     69          1           0        2.531075    5.607096   -2.870805
     70          7           0        0.548150    5.483192   -2.296630
     71          1           0        0.237119    5.809931   -3.202119
     72          7           0       -0.122885    4.945551   -0.135243
     73          1           0       -0.682293    5.227130    0.658525
     74          1           0        0.130425    3.943456   -0.127160
     75          7           0       -1.341636    6.475126   -1.383202
     76          1           0       -1.322596    7.234184   -2.049674
     77          1           0       -2.102777    6.442976   -0.706620
     78          6           0       -0.308169    5.621799   -1.275224
     79          8           0        5.879320    1.558813   -3.508895
     80          1           0        6.833690    1.358371   -3.447273
     81          1           0       -4.414138    6.604665    0.358094
 ---------------------------------------------------------------------

 SCF Done:  E(RB3LYP) =  -2053.96384085     A.U. after    1 cycles

 Alpha  occ. eigenvalues --  -19.31120 -19.29034 -19.24693 -19.23829 -19.23539
 Alpha  occ. eigenvalues --  -19.21920 -19.20361 -19.20127 -14.51265 -14.50685
 Alpha  occ. eigenvalues --  -14.48876 -14.46148 -14.45249 -14.44983 -14.44684
 Alpha  occ. eigenvalues --  -14.38413 -10.46826 -10.42679 -10.41522 -10.38462
 Alpha  occ. eigenvalues --  -10.37838 -10.36481 -10.34765 -10.33459 -10.33324
 Alpha  occ. eigenvalues --  -10.32533 -10.32436 -10.30532 -10.30205 -10.30192
 Alpha  occ. eigenvalues --  -10.29989 -10.29351 -10.28870 -10.28463 -10.27342
 Alpha  occ. eigenvalues --  -10.27125 -10.26856 -10.26819 -10.26665 -10.26495
 Alpha  occ. eigenvalues --  -10.26292 -10.26168  -1.21055  -1.20029  -1.15250
 Alpha  occ. eigenvalues --   -1.13662  -1.12318  -1.12279  -1.11729  -1.11247
 Alpha  occ. eigenvalues --   -1.11084  -1.06065  -1.04858  -1.02830  -1.01883
 Alpha  occ. eigenvalues --   -1.01557  -1.00903  -0.96149  -0.91975  -0.90787
 Alpha  occ. eigenvalues --   -0.89245  -0.88739  -0.87612  -0.85489  -0.84330
 Alpha  occ. eigenvalues --   -0.81687  -0.80536  -0.80188  -0.79692  -0.78796
 Alpha  occ. eigenvalues --   -0.76496  -0.74950  -0.72997  -0.72320  -0.72088
 Alpha  occ. eigenvalues --   -0.71425  -0.70373  -0.69382  -0.68955  -0.68326
 Alpha  occ. eigenvalues --   -0.67833  -0.67416  -0.66746  -0.65616  -0.64339
 Alpha  occ. eigenvalues --   -0.64169  -0.63527  -0.62183  -0.62142  -0.60923
 Alpha  occ. eigenvalues --   -0.60586  -0.60245  -0.59294  -0.59022  -0.58668
 Alpha  occ. eigenvalues --   -0.58442  -0.57934  -0.57830  -0.57166  -0.56940
 Alpha  occ. eigenvalues --   -0.56543  -0.56037  -0.55302  -0.54958  -0.54880
 Alpha  occ. eigenvalues --   -0.54441  -0.54164  -0.53104  -0.52386  -0.52043
 Alpha  occ. eigenvalues --   -0.51608  -0.51514  -0.51268  -0.51073  -0.50955
 Alpha  occ. eigenvalues --   -0.50519  -0.50080  -0.49848  -0.49137  -0.48980
 Alpha  occ. eigenvalues --   -0.48586  -0.48310  -0.48102  -0.47893  -0.47534
 Alpha  occ. eigenvalues --   -0.46565  -0.46493  -0.46375  -0.45776  -0.45410
 Alpha  occ. eigenvalues --   -0.45120  -0.44962  -0.44665  -0.43974  -0.43945
 Alpha  occ. eigenvalues --   -0.43409  -0.42961  -0.41980  -0.41940  -0.41826
 Alpha  occ. eigenvalues --   -0.41509  -0.41416  -0.41118  -0.39833  -0.38056
 Alpha  occ. eigenvalues --   -0.37179  -0.36655  -0.36271  -0.35686  -0.35289
 Alpha  occ. eigenvalues --   -0.34728  -0.34424  -0.34162  -0.33930  -0.30770
 Alpha  occ. eigenvalues --   -0.30392  -0.28431
 Alpha virt. eigenvalues --   -0.12081  -0.09777  -0.09250  -0.08513  -0.07911
 Alpha virt. eigenvalues --   -0.07189  -0.06871  -0.06632  -0.05724  -0.04740
 Alpha virt. eigenvalues --   -0.02837  -0.01949  -0.01423  -0.01364  -0.00860

 Mulliken charges:
               1
     1  N   -0.693102
     2  H    0.307781
     3  H    0.319199
     4  C   -0.087620
     5  H    0.155978
     6  C    0.580856
     7  C   -0.250849
     8  H    0.198813
     9  H    0.163328
    10  O   -0.518103
    11  C   -0.403810
    12  H    0.170573
    13  H    0.194734
    14  C    0.609067
    15  O   -0.418987
    16  O   -0.619899
    17  N   -0.629352
    18  H    0.351631
    19  C   -0.030002
    20  H    0.154968
    21  C    0.697815
    22  C   -0.391367
    23  H    0.193371
    24  H    0.149403
    25  O   -0.593808
    26  C    0.055406
    27  C    0.010439
    28  H    0.165944
    29  C    0.064113
    30  C    0.318557
    31  C   -0.233745
    32  H    0.104309
    33  N   -0.685173
    34  H    0.342854
    35  C   -0.149788
    36  H    0.145668
    37  C   -0.154909
    38  H    0.145871
    39  C   -0.128288
    40  H    0.103701
    41  N   -0.604854
    42  H    0.369159
    43  C   -0.015920
    44  H    0.169239
    45  C    0.630936
    46  C    0.110978
    47  H    0.152717
    48  O   -0.534804
    49  C   -0.483363
    50  H    0.168222
    51  H    0.161800
    52  H    0.170918
    53  O   -0.635186
    54  H    0.411035
    55  N   -0.603547
    56  H    0.351719
    57  C   -0.055081
    58  H    0.212315
    59  C    0.587210
    60  C   -0.274379
    61  H    0.175149
    62  H    0.149628
    63  O   -0.458955
    64  C   -0.287539
    65  H    0.159351
    66  H    0.202470
    67  C   -0.161885
    68  H    0.191903
    69  H    0.179191
    70  N   -0.590291
    71  H    0.358934
    72  N   -0.780934
    73  H    0.366901
    74  H    0.441746
    75  N   -0.782916
    76  H    0.367967
    77  H    0.408173
    78  C    0.757803
    79  O   -0.558509
    80  H    0.428956
    81  H    0.428168
 Sum of Mulliken charges =   1.00000

 Dipole moment (field-independent basis, Debye):
    X=             -1.7199    Y=             16.2437    Z=             -8.3180  Tot=             18.3305
 Quadrupole moment (field-independent basis, Debye-Ang):
   XX=           -169.3533   YY=            -98.9586   ZZ=           -228.5348
   XY=             -3.7142   XZ=              4.2136   YZ=            -37.2290

 Normal termination of Gaussian 16 at Thu May 26 18:04:05 2022.
