 Gaussian 16, Revision C.01,
 Gaussian 16:  ES64L-G16RevC.01  3-Jul-2019

 -------------------------------------------------------------------
 # B3LYP/6-31G* guess=read geom=check nosymm integral(ultrafinegrid)
 -------------------------------------------------------------------

 ------------------------------------------------------
 Candidate Structure: Conf:879 Charge calc in gas phase
 ------------------------------------------------------
 Structure from the checkpoint file:  "conf-879.chk"
 Charge =  1 Multiplicity = 1

                          Input orientation:
 ---------------------------------------------------------------------
 Center     Atomic      Atomic             Coordinates (Angstroms)
 Number     Number       Type             X           Y           Z
 ---------------------------------------------------------------------
      1          7           0       -3.166218    1.154156    4.493541
      2          1           0       -3.732523    0.320027    4.346622
      3          1           0       -2.238245    0.811101    4.740555
      4          6           0       -3.085879    1.924698    3.264699
      5          1           0       -4.114249    2.144781    2.952672
      6          6           0       -2.442796    1.174700    2.077880
      7          6           0       -2.353562    3.270933    3.533138
      8          1           0       -1.701642    3.130771    4.401102
      9          1           0       -1.706261    3.544190    2.694130
     10          8           0       -1.874719    0.078591    2.223502
     11          6           0       -3.317888    4.421401    3.824269
     12          1           0       -2.789499    5.297765    4.218856
     13          1           0       -4.040247    4.135904    4.600195
     14          6           0       -4.091670    4.870825    2.604095
     15          8           0       -4.051466    4.357452    1.494137
     16          8           0       -4.863810    5.936946    2.863627
     17          7           0       -2.560059    1.803658    0.886986
     18          1           0       -3.046380    2.700166    0.892987
     19          6           0       -2.152602    1.262329   -0.412090
     20          1           0       -2.474976    0.213359   -0.452126
     21          6           0       -0.610604    1.285306   -0.591472
     22          6           0       -2.829012    2.069932   -1.535131
     23          1           0       -2.280209    1.848727   -2.455571
     24          1           0       -2.655948    3.135790   -1.345737
     25          8           0       -0.065670    1.985015   -1.460026
     26          6           0       -4.289014    1.796155   -1.737543
     27          6           0       -5.351488    2.581892   -1.360505
     28          1           0       -5.352893    3.507013   -0.799184
     29          6           0       -4.848230    0.672257   -2.445376
     30          6           0       -6.259707    0.848616   -2.474985
     31          6           0       -4.297576   -0.473514   -3.050665
     32          1           0       -3.230514   -0.674702   -2.976749
     33          7           0       -6.533224    2.017755   -1.798693
     34          1           0       -7.452660    2.404260   -1.647146
     35          6           0       -6.539765   -1.171979   -3.715924
     36          1           0       -7.177602   -1.899993   -4.207790
     37          6           0       -7.113309   -0.060732   -3.109776
     38          1           0       -8.189090    0.090252   -3.124924
     39          6           0       -5.144657   -1.383286   -3.680246
     40          1           0       -4.737143   -2.294526   -4.112133
     41          7           0        0.051797    0.463831    0.244715
     42          1           0       -0.530676   -0.007562    0.940294
     43          6           0        1.500067    0.516301    0.492248
     44          1           0        1.811727    1.565500    0.419823
     45          6           0        2.228761   -0.297916   -0.603277
     46          6           0        1.794899    0.003657    1.923486
     47          1           0        1.583092   -1.074576    1.947895
     48          8           0        2.746036   -1.390348   -0.420005
     49          6           0        3.249090    0.237662    2.313098
     50          1           0        3.926647   -0.290385    1.637838
     51          1           0        3.412237   -0.126807    3.330914
     52          1           0        3.480090    1.308982    2.297036
     53          8           0        0.983371    0.702216    2.863815
     54          1           0        0.100741    0.294639    2.895316
     55          7           0        2.205406    0.330842   -1.823562
     56          1           0        1.541949    1.107478   -1.907068
     57          6           0        2.571906   -0.388007   -3.038110
     58          1           0        3.489509   -0.944038   -2.828607
     59          6           0        2.880545    0.697310   -4.067616
     60          6           0        1.448312   -1.350999   -3.482479
     61          1           0        0.505244   -0.798636   -3.404050
     62          1           0        1.406581   -2.139670   -2.726440
     63          8           0        2.059269    1.200332   -4.827177
     64          6           0        1.590571   -1.957568   -4.900007
     65          1           0        2.414438   -1.489526   -5.453249
     66          1           0        1.837606   -3.022833   -4.849499
     67          6           0        0.307275   -1.816653   -5.738433
     68          1           0        0.466483   -2.204757   -6.750335
     69          1           0       -0.509528   -2.384686   -5.279662
     70          7           0       -0.090683   -0.397832   -5.799442
     71          1           0        0.673221    0.268266   -5.644537
     72          7           0       -2.413023   -0.647642   -5.830791
     73          1           0       -3.288535   -0.472290   -5.342886
     74          1           0       -2.346114   -1.488827   -6.384900
     75          7           0       -1.451890    1.312516   -5.057789
     76          1           0       -0.672571    1.772201   -4.601793
     77          1           0       -2.341411    1.790424   -5.081963
     78          6           0       -1.313503    0.074878   -5.563090
     79          8           0        4.150057    1.094394   -4.028887
     80          1           0        4.259775    1.829966   -4.663786
     81          1           0       -5.327455    6.173585    2.037845
 ---------------------------------------------------------------------

 SCF Done:  E(RB3LYP) =  -2053.96822480     A.U. after    1 cycles

 Alpha  occ. eigenvalues --  -19.31311 -19.28833 -19.26622 -19.24112 -19.21760
 Alpha  occ. eigenvalues --  -19.21531 -19.20276 -19.20087 -14.51265 -14.51264
 Alpha  occ. eigenvalues --  -14.50410 -14.47044 -14.44981 -14.44485 -14.44050
 Alpha  occ. eigenvalues --  -14.38914 -10.47504 -10.44268 -10.41813 -10.38175
 Alpha  occ. eigenvalues --  -10.37532 -10.36975 -10.35704 -10.33958 -10.33090
 Alpha  occ. eigenvalues --  -10.31144 -10.30950 -10.30900 -10.30822 -10.30722
 Alpha  occ. eigenvalues --  -10.30502 -10.29585 -10.28849 -10.28611 -10.28470
 Alpha  occ. eigenvalues --  -10.28175 -10.28054 -10.27820 -10.27642 -10.27369
 Alpha  occ. eigenvalues --  -10.27303 -10.23074  -1.22703  -1.20088  -1.15986
 Alpha  occ. eigenvalues --   -1.13486  -1.13346  -1.12457  -1.11749  -1.10926
 Alpha  occ. eigenvalues --   -1.07971  -1.06963  -1.05161  -1.04198  -1.01902
 Alpha  occ. eigenvalues --   -1.01520  -1.00589  -0.96556  -0.93263  -0.91249
 Alpha  occ. eigenvalues --   -0.89868  -0.87643  -0.87087  -0.85523  -0.84060
 Alpha  occ. eigenvalues --   -0.82945  -0.81233  -0.80783  -0.79146  -0.78156
 Alpha  occ. eigenvalues --   -0.77965  -0.75004  -0.74166  -0.72967  -0.72440
 Alpha  occ. eigenvalues --   -0.71507  -0.70657  -0.69461  -0.68639  -0.67981
 Alpha  occ. eigenvalues --   -0.67535  -0.66744  -0.66485  -0.65395  -0.65279
 Alpha  occ. eigenvalues --   -0.64978  -0.64510  -0.63119  -0.62984  -0.61417
 Alpha  occ. eigenvalues --   -0.60854  -0.60347  -0.60013  -0.59292  -0.58846
 Alpha  occ. eigenvalues --   -0.58670  -0.58286  -0.57762  -0.56975  -0.56816
 Alpha  occ. eigenvalues --   -0.56716  -0.56653  -0.56165  -0.55702  -0.55429
 Alpha  occ. eigenvalues --   -0.54873  -0.54086  -0.53072  -0.52891  -0.52435
 Alpha  occ. eigenvalues --   -0.52078  -0.51831  -0.51362  -0.51076  -0.50567
 Alpha  occ. eigenvalues --   -0.50405  -0.50337  -0.49399  -0.49342  -0.49081
 Alpha  occ. eigenvalues --   -0.48790  -0.48467  -0.47763  -0.47275  -0.46912
 Alpha  occ. eigenvalues --   -0.46618  -0.46140  -0.45869  -0.45776  -0.45255
 Alpha  occ. eigenvalues --   -0.45076  -0.44892  -0.44541  -0.43972  -0.43717
 Alpha  occ. eigenvalues --   -0.43623  -0.42843  -0.42560  -0.42526  -0.42365
 Alpha  occ. eigenvalues --   -0.42160  -0.41279  -0.40573  -0.39750  -0.38897
 Alpha  occ. eigenvalues --   -0.37767  -0.37509  -0.36648  -0.36321  -0.35377
 Alpha  occ. eigenvalues --   -0.34398  -0.33640  -0.33510  -0.32076  -0.31669
 Alpha  occ. eigenvalues --   -0.31552  -0.29548
 Alpha virt. eigenvalues --   -0.12297  -0.11830  -0.10664  -0.08520  -0.08303
 Alpha virt. eigenvalues --   -0.07395  -0.06900  -0.06700  -0.05967  -0.04104
 Alpha virt. eigenvalues --   -0.03228  -0.02495  -0.01534  -0.01158  -0.00808

 Mulliken charges:
               1
     1  N   -0.695234
     2  H    0.313344
     3  H    0.312926
     4  C   -0.079634
     5  H    0.164538
     6  C    0.586560
     7  C   -0.266685
     8  H    0.176932
     9  H    0.163229
    10  O   -0.567958
    11  C   -0.367872
    12  H    0.200036
    13  H    0.214971
    14  C    0.593566
    15  O   -0.496262
    16  O   -0.539886
    17  N   -0.622371
    18  H    0.397811
    19  C   -0.041657
    20  H    0.184260
    21  C    0.632922
    22  C   -0.403205
    23  H    0.142076
    24  H    0.176244
    25  O   -0.568805
    26  C    0.067615
    27  C    0.003069
    28  H    0.179021
    29  C    0.084457
    30  C    0.317961
    31  C   -0.265328
    32  H    0.122055
    33  N   -0.687896
    34  H    0.342612
    35  C   -0.150259
    36  H    0.148857
    37  C   -0.152487
    38  H    0.150085
    39  C   -0.156636
    40  H    0.126787
    41  N   -0.633939
    42  H    0.379108
    43  C   -0.057055
    44  H    0.179947
    45  C    0.634354
    46  C    0.100839
    47  H    0.149014
    48  O   -0.514123
    49  C   -0.461181
    50  H    0.172822
    51  H    0.170719
    52  H    0.152465
    53  O   -0.652853
    54  H    0.413306
    55  N   -0.653190
    56  H    0.381883
    57  C   -0.008908
    58  H    0.210735
    59  C    0.584913
    60  C   -0.288996
    61  H    0.134425
    62  H    0.201305
    63  O   -0.516219
    64  C   -0.311794
    65  H    0.167149
    66  H    0.188060
    67  C   -0.163465
    68  H    0.191465
    69  H    0.170654
    70  N   -0.603804
    71  H    0.412359
    72  N   -0.758337
    73  H    0.381139
    74  H    0.379627
    75  N   -0.757736
    76  H    0.396951
    77  H    0.383112
    78  C    0.776951
    79  O   -0.520642
    80  H    0.431000
    81  H    0.418180
 Sum of Mulliken charges =   1.00000

 Dipole moment (field-independent basis, Debye):
    X=            -11.9497    Y=              5.3859    Z=            -18.0937  Tot=             22.3425
 Quadrupole moment (field-independent basis, Debye-Ang):
   XX=           -151.7736   YY=           -200.6169   ZZ=           -129.6216
   XY=            -26.9150   XZ=              9.5430   YZ=             20.0845

 Normal termination of Gaussian 16 at Thu May 26 18:08:22 2022.
