 Gaussian 16, Revision C.01,
 Gaussian 16:  ES64L-G16RevC.01  3-Jul-2019

 ----------------------------------------------------------------------
 # B3LYP/6-31G* empiricaldispersion=gd3 guess=read geom=check nosymm in
 tegral(ultrafinegrid)
 ----------------------------------------------------------------------

 ------------------------------------------------------
 Candidate Structure: Conf:749 Charge calc in gas phase
 ------------------------------------------------------
 Structure from the checkpoint file:  "conf-749.chk"
 Charge =  1 Multiplicity = 1

                          Input orientation:
 ---------------------------------------------------------------------
 Center     Atomic      Atomic             Coordinates (Angstroms)
 Number     Number       Type             X           Y           Z
 ---------------------------------------------------------------------
      1          7           0       -2.905588    1.960171    4.544000
      2          1           0       -3.827936    1.526708    4.531236
      3          1           0       -2.262105    1.213824    4.811684
      4          6           0       -2.552306    2.390440    3.193925
      5          1           0       -3.375282    2.990019    2.793801
      6          6           0       -2.277370    1.204485    2.254169
      7          6           0       -1.288909    3.276858    3.289859
      8          1           0       -1.515704    4.084592    3.993072
      9          1           0       -0.488609    2.677286    3.740529
     10          8           0       -1.786815    0.153628    2.664405
     11          6           0       -0.740561    3.855993    1.965651
     12          1           0       -0.465692    3.043949    1.281747
     13          1           0        0.160239    4.439230    2.171209
     14          6           0       -1.738399    4.728234    1.247114
     15          8           0       -2.817463    4.354521    0.808561
     16          8           0       -1.332742    6.005108    1.118208
     17          7           0       -2.575930    1.389222    0.933748
     18          1           0       -2.813829    2.326564    0.617484
     19          6           0       -2.155403    0.378457   -0.010962
     20          1           0       -2.620853   -0.566876    0.289310
     21          6           0       -0.629380    0.170108    0.036060
     22          6           0       -2.608659    0.692842   -1.475286
     23          1           0       -3.495427    0.085882   -1.684368
     24          1           0       -1.824195    0.325906   -2.150497
     25          8           0        0.176846    1.105917   -0.035448
     26          6           0       -2.953245    2.121556   -1.803520
     27          6           0       -4.236166    2.565666   -2.035304
     28          1           0       -5.166540    2.015363   -1.988110
     29          6           0       -2.096559    3.280957   -1.944276
     30          6           0       -2.934802    4.380363   -2.284002
     31          6           0       -0.718131    3.507659   -1.779263
     32          1           0       -0.078063    2.701493   -1.438613
     33          7           0       -4.229763    3.908347   -2.364154
     34          1           0       -5.053523    4.492672   -2.380246
     35          6           0       -1.064603    5.865403   -2.324037
     36          1           0       -0.646238    6.860524   -2.445912
     37          6           0       -2.436526    5.673865   -2.488557
     38          1           0       -3.098226    6.502748   -2.726967
     39          6           0       -0.218933    4.792752   -1.968788
     40          1           0        0.838003    4.984671   -1.806816
     41          7           0       -0.235186   -1.113824    0.083905
     42          1           0       -0.901208   -1.876738    0.107319
     43          6           0        1.163223   -1.499942    0.090761
     44          1           0        1.694839   -0.900742    0.837614
     45          6           0        1.754399   -1.278745   -1.305458
     46          6           0        1.241482   -3.008435    0.455115
     47          1           0        2.267954   -3.348639    0.245784
     48          8           0        1.321548   -1.899355   -2.283778
     49          6           0        0.913326   -3.255982    1.921864
     50          1           0        1.677279   -2.811295    2.567761
     51          1           0        0.878281   -4.332880    2.107120
     52          1           0       -0.056662   -2.824418    2.189645
     53          8           0        0.302065   -3.730659   -0.331852
     54          1           0        0.501497   -3.516933   -1.264555
     55          7           0        2.765838   -0.386358   -1.387333
     56          1           0        3.064159    0.122487   -0.564394
     57          6           0        3.467056   -0.111770   -2.624150
     58          1           0        3.416838   -1.009306   -3.247615
     59          6           0        4.922463    0.194657   -2.287126
     60          6           0        2.866556    1.081444   -3.406127
     61          1           0        3.449765    1.210138   -4.325726
     62          1           0        2.996006    1.993058   -2.806634
     63          8           0        5.321202    0.481195   -1.181351
     64          6           0        1.380477    0.892517   -3.732139
     65          1           0        1.234226   -0.049396   -4.274024
     66          1           0        0.806733    0.823405   -2.801952
     67          6           0        0.860703    2.072767   -4.552737
     68          1           0        0.967304    2.994053   -3.970108
     69          1           0        1.425090    2.177997   -5.487949
     70          7           0       -0.568839    1.904778   -4.857489
     71          1           0       -0.916931    0.958305   -4.956734
     72          7           0       -1.056166    4.159177   -5.215516
     73          1           0       -1.594986    4.897707   -4.771283
     74          1           0       -0.069815    4.358173   -5.308320
     75          7           0       -2.768654    2.599810   -5.027167
     76          1           0       -3.107932    1.949847   -4.322798
     77          1           0       -3.404078    3.365996   -5.207574
     78          6           0       -1.448739    2.891629   -5.008293
     79          8           0        5.694316    0.158121   -3.389268
     80          1           0        6.603561    0.390122   -3.117891
     81          1           0       -2.033754    6.474860    0.627218
 ---------------------------------------------------------------------

 SCF Done:  E(RB3LYP) =  -2054.07837330     A.U. after    1 cycles

 Alpha  occ. eigenvalues --  -19.29432 -19.28079 -19.23881 -19.22631 -19.21485
 Alpha  occ. eigenvalues --  -19.21284 -19.20650 -19.18476 -14.53049 -14.52101
 Alpha  occ. eigenvalues --  -14.51451 -14.49875 -14.45903 -14.44796 -14.42868
 Alpha  occ. eigenvalues --  -14.37054 -10.48485 -10.41922 -10.40561 -10.38199
 Alpha  occ. eigenvalues --  -10.37433 -10.36486 -10.34823 -10.34061 -10.33970
 Alpha  occ. eigenvalues --  -10.33892 -10.32521 -10.32039 -10.31775 -10.31004
 Alpha  occ. eigenvalues --  -10.30885 -10.30780 -10.30518 -10.30489 -10.30338
 Alpha  occ. eigenvalues --  -10.30171 -10.29602 -10.29453 -10.28399 -10.26980
 Alpha  occ. eigenvalues --  -10.26091 -10.24235  -1.20394  -1.19070  -1.17209
 Alpha  occ. eigenvalues --   -1.13509  -1.12281  -1.11569  -1.10245  -1.09888
 Alpha  occ. eigenvalues --   -1.09704  -1.09175  -1.06727  -1.05085  -1.02607
 Alpha  occ. eigenvalues --   -1.01152  -0.99815  -0.95607  -0.94704  -0.92371
 Alpha  occ. eigenvalues --   -0.91674  -0.87990  -0.86812  -0.86058  -0.85200
 Alpha  occ. eigenvalues --   -0.84878  -0.83025  -0.81308  -0.79162  -0.78243
 Alpha  occ. eigenvalues --   -0.78027  -0.75685  -0.74476  -0.73779  -0.72301
 Alpha  occ. eigenvalues --   -0.71803  -0.70977  -0.70655  -0.70176  -0.68530
 Alpha  occ. eigenvalues --   -0.68083  -0.67518  -0.67174  -0.66579  -0.66085
 Alpha  occ. eigenvalues --   -0.65002  -0.64817  -0.64564  -0.62128  -0.61844
 Alpha  occ. eigenvalues --   -0.60799  -0.60554  -0.60085  -0.59337  -0.58852
 Alpha  occ. eigenvalues --   -0.58833  -0.58548  -0.57799  -0.57792  -0.56777
 Alpha  occ. eigenvalues --   -0.56677  -0.56005  -0.55535  -0.55466  -0.55292
 Alpha  occ. eigenvalues --   -0.54703  -0.54498  -0.54013  -0.53300  -0.52894
 Alpha  occ. eigenvalues --   -0.52472  -0.52268  -0.51826  -0.51535  -0.50984
 Alpha  occ. eigenvalues --   -0.50460  -0.50280  -0.49805  -0.49445  -0.49123
 Alpha  occ. eigenvalues --   -0.48840  -0.48720  -0.48644  -0.47913  -0.47449
 Alpha  occ. eigenvalues --   -0.47074  -0.46648  -0.45990  -0.45863  -0.45679
 Alpha  occ. eigenvalues --   -0.45467  -0.45306  -0.44900  -0.44628  -0.43932
 Alpha  occ. eigenvalues --   -0.43473  -0.43412  -0.43028  -0.42341  -0.41694
 Alpha  occ. eigenvalues --   -0.41500  -0.40820  -0.40570  -0.40526  -0.39055
 Alpha  occ. eigenvalues --   -0.37638  -0.36245  -0.36070  -0.35801  -0.35149
 Alpha  occ. eigenvalues --   -0.34532  -0.34152  -0.33431  -0.32775  -0.32584
 Alpha  occ. eigenvalues --   -0.31954  -0.29621
 Alpha virt. eigenvalues --   -0.14128  -0.13329  -0.09889  -0.08938  -0.08037
 Alpha virt. eigenvalues --   -0.07591  -0.07536  -0.06747  -0.05985  -0.05000
 Alpha virt. eigenvalues --   -0.04730  -0.04192  -0.02753  -0.02569  -0.01686

 Mulliken charges:
               1
     1  N   -0.695656
     2  H    0.304230
     3  H    0.315021
     4  C   -0.090174
     5  H    0.158751
     6  C    0.588737
     7  C   -0.261704
     8  H    0.176062
     9  H    0.164510
    10  O   -0.539726
    11  C   -0.398030
    12  H    0.216693
    13  H    0.176928
    14  C    0.613317
    15  O   -0.499948
    16  O   -0.550625
    17  N   -0.641372
    18  H    0.392326
    19  C   -0.012493
    20  H    0.170285
    21  C    0.643203
    22  C   -0.393673
    23  H    0.168747
    24  H    0.152662
    25  O   -0.564984
    26  C    0.008148
    27  C   -0.006731
    28  H    0.183511
    29  C    0.067149
    30  C    0.327585
    31  C   -0.238428
    32  H    0.212187
    33  N   -0.677624
    34  H    0.351315
    35  C   -0.172286
    36  H    0.158172
    37  C   -0.236458
    38  H    0.153925
    39  C   -0.162457
    40  H    0.150191
    41  N   -0.577766
    42  H    0.356912
    43  C   -0.064004
    44  H    0.171715
    45  C    0.648886
    46  C    0.096493
    47  H    0.143742
    48  O   -0.568446
    49  C   -0.455342
    50  H    0.155064
    51  H    0.179979
    52  H    0.172832
    53  O   -0.637965
    54  H    0.416756
    55  N   -0.592867
    56  H    0.361990
    57  C   -0.047804
    58  H    0.209361
    59  C    0.586684
    60  C   -0.277287
    61  H    0.174297
    62  H    0.156711
    63  O   -0.450226
    64  C   -0.319598
    65  H    0.179454
    66  H    0.194368
    67  C   -0.147690
    68  H    0.176963
    69  H    0.186198
    70  N   -0.586874
    71  H    0.371594
    72  N   -0.729691
    73  H    0.377191
    74  H    0.377713
    75  N   -0.728584
    76  H    0.370953
    77  H    0.369078
    78  C    0.761107
    79  O   -0.561396
    80  H    0.429824
    81  H    0.408388
 Sum of Mulliken charges =   1.00000

 Dipole moment (field-independent basis, Debye):
    X=             -5.0389    Y=             15.2554    Z=            -19.5328  Tot=             25.2913
 Quadrupole moment (field-independent basis, Debye-Ang):
   XX=           -170.2866   YY=           -172.2595   ZZ=           -166.7663
   XY=            -34.0110   XZ=             18.0257   YZ=            -64.4685

 Normal termination of Gaussian 16 at Thu May 12 23:07:40 2022.
