 Gaussian 16, Revision C.01,
 Gaussian 16:  ES64L-G16RevC.01  3-Jul-2019

 -------------------------------------------------------------------
 # B3LYP/6-31G* guess=read geom=check nosymm integral(ultrafinegrid)
 -------------------------------------------------------------------

 ------------------------------------------------------
 Candidate Structure: Conf:420 Charge calc in gas phase
 ------------------------------------------------------
 Structure from the checkpoint file:  "conf-420.chk"
 Charge =  1 Multiplicity = 1

                          Input orientation:
 ---------------------------------------------------------------------
 Center     Atomic      Atomic             Coordinates (Angstroms)
 Number     Number       Type             X           Y           Z
 ---------------------------------------------------------------------
      1          7           0       -5.962001   -1.361711   -0.193635
      2          1           0       -6.824201   -1.861106    0.041195
      3          1           0       -5.696334   -1.598778   -1.152646
      4          1           0       -6.124056   -0.308650   -0.087365
      5          6           0       -4.852355   -1.586228    0.813490
      6          1           0       -5.099869   -2.438421    1.447125
      7          6           0       -4.848396   -0.245659    1.600288
      8          6           0       -3.511177   -1.841771    0.101510
      9          1           0       -3.645650   -2.614124   -0.668715
     10          1           0       -3.133566   -0.931068   -0.371632
     11          8           0       -5.485632    0.698279    1.108269
     12          6           0       -2.487370   -2.374512    1.116686
     13          7           0       -1.214711   -2.442739    0.697892
     14          1           0       -0.554492   -2.770136    1.393567
     15          1           0       -0.812299   -1.833267   -0.025782
     16          8           0       -2.872975   -2.770734    2.224223
     17          7           0       -4.122702   -0.197723    2.719005
     18          1           0       -3.590518   -1.045824    2.922088
     19          6           0       -3.528100    1.073807    3.154099
     20          1           0       -4.334837    1.780605    3.378158
     21          6           0       -2.708547    1.599394    1.942840
     22          6           0       -2.682997    0.820901    4.435255
     23          1           0       -1.988709    0.000596    4.194704
     24          8           0       -2.332733    0.826528    1.057746
     25          6           0       -3.604431    0.359747    5.588731
     26          1           0       -4.307821   -0.393990    5.214042
     27          1           0       -4.217560    1.214590    5.908680
     28          6           0       -1.840479    2.043041    4.834533
     29          1           0       -2.478122    2.917148    5.028724
     30          1           0       -1.298108    1.835597    5.760499
     31          1           0       -1.096929    2.309308    4.078008
     32          6           0       -2.860513   -0.224962    6.794932
     33          1           0       -3.573659   -0.578523    7.546792
     34          1           0       -2.238137   -1.078756    6.501074
     35          1           0       -2.212605    0.510548    7.282105
     36          7           0       -2.453406    2.921273    1.881964
     37          1           0       -2.684939    3.519249    2.663656
     38          6           0       -1.623055    3.469413    0.806152
     39          1           0       -2.125470    3.247729   -0.142333
     40          6           0       -0.225952    2.803733    0.828928
     41          6           0       -1.479719    4.981120    0.986321
     42          1           0       -0.922557    5.408576    0.147808
     43          1           0       -2.461622    5.464957    1.023810
     44          1           0       -0.927173    5.198740    1.905637
     45          8           0        0.495107    2.891428    1.818960
     46          7           0        0.126360    2.183925   -0.321960
     47          1           0       -0.547460    2.053036   -1.065207
     48          6           0        1.411980    1.560647   -0.552353
     49          1           0        2.152836    2.074546    0.068666
     50          6           0        1.729727    1.730029   -2.041526
     51          6           0        1.442737    0.038404   -0.190105
     52          1           0        2.427069   -0.341968   -0.498529
     53          8           0        0.823532    1.772492   -2.883389
     54          6           0        1.265844   -0.199851    1.305950
     55          1           0        1.964860    0.405783    1.889087
     56          1           0        1.449030   -1.256051    1.533100
     57          1           0        0.250872    0.061098    1.615120
     58          8           0        0.428185   -0.665673   -0.911699
     59          1           0        0.849509   -1.090011   -1.692691
     60          7           0        3.038765    1.775454   -2.368705
     61          1           0        3.766666    1.651933   -1.671855
     62          6           0        3.518136    1.804977   -3.751130
     63          1           0        2.863278    2.468700   -4.325432
     64          6           0        3.458131    0.377201   -4.332789
     65          6           0        4.962441    2.322903   -3.745251
     66          1           0        4.977105    3.360478   -3.399128
     67          1           0        5.363796    2.292040   -4.766446
     68          8           0        4.463063   -0.325594   -4.458464
     69          8           0        5.753319    1.571977   -2.839437
     70          1           0        5.802232    0.680695   -3.235742
     71          7           0        2.214801   -0.057013   -4.662300
     72          1           0        1.427150    0.506052   -4.347147
     73          6           0        2.017033   -1.446105   -5.022338
     74          1           0        0.976373   -1.573373   -5.336417
     75          1           0        2.659706   -1.697714   -5.870809
     76          6           0        2.279975   -2.396381   -3.842851
     77          8           0        1.857476   -2.159611   -2.702904
     78          7           0        2.952708   -3.520188   -4.146496
     79          1           0        3.432824   -3.603186   -5.036958
     80          6           0        3.326400   -4.511284   -3.145194
     81          1           0        3.587271   -3.987213   -2.218893
     82          6           0        4.572905   -5.213623   -3.668238
     83          6           0        2.193615   -5.519080   -2.830287
     84          1           0        2.542311   -6.164419   -2.014903
     85          1           0        1.351496   -4.936309   -2.438443
     86          8           0        5.017983   -5.078679   -4.787717
     87          6           0        1.745680   -6.362608   -4.028939
     88          1           0        1.404120   -5.714533   -4.843128
     89          1           0        2.599120   -6.933702   -4.422771
     90          6           0        0.619780   -7.343143   -3.679227
     91          1           0       -0.215285   -6.796527   -3.213477
     92          1           0        0.968688   -8.064691   -2.927504
     93          6           0        0.093457   -8.113499   -4.896786
     94          1           0        0.935395   -8.601590   -5.403686
     95          1           0       -0.574174   -8.921571   -4.550246
     96          7           0       -0.536699   -7.201699   -5.862758
     97          1           0       -1.453853   -6.921901   -5.516013
     98          1           0       -0.708366   -7.691364   -6.739084
     99          8           0        5.112469   -6.024203   -2.740706
    100          1           0        5.889730   -6.449850   -3.151182
 ---------------------------------------------------------------------

 SCF Done:  E(RB3LYP) =  -2418.46042563     A.U. after    2 cycles

 Alpha  occ. eigenvalues --  -19.27518 -19.26231 -19.22345 -19.22037 -19.22035
 Alpha  occ. eigenvalues --  -19.21610 -19.20777 -19.20769 -19.20607 -19.20133
 Alpha  occ. eigenvalues --  -19.18760 -14.59351 -14.47636 -14.45850 -14.44937
 Alpha  occ. eigenvalues --  -14.44539 -14.44372 -14.43785 -14.43439 -14.37186
 Alpha  occ. eigenvalues --  -10.42493 -10.40260 -10.39979 -10.39700 -10.38542
 Alpha  occ. eigenvalues --  -10.37655 -10.37503 -10.36711 -10.36141 -10.33812
 Alpha  occ. eigenvalues --  -10.33226 -10.32154 -10.32129 -10.31577 -10.31351
 Alpha  occ. eigenvalues --  -10.31173 -10.31140 -10.30415 -10.29081 -10.26569
 Alpha  occ. eigenvalues --  -10.26558 -10.26454 -10.25901 -10.25723 -10.24691
 Alpha  occ. eigenvalues --  -10.24618 -10.24267 -10.24134  -1.18647  -1.18571
 Alpha  occ. eigenvalues --   -1.13991  -1.13817  -1.12929  -1.12871  -1.12267
 Alpha  occ. eigenvalues --   -1.11561  -1.10528  -1.09679  -1.09065  -1.08271
 Alpha  occ. eigenvalues --   -1.04936  -1.01934  -1.01135  -1.00937  -1.00098
 Alpha  occ. eigenvalues --   -1.00030  -0.99825  -0.93780  -0.92645  -0.90044
 Alpha  occ. eigenvalues --   -0.87517  -0.86903  -0.85344  -0.83733  -0.83031
 Alpha  occ. eigenvalues --   -0.82683  -0.81110  -0.80010  -0.78783  -0.78583
 Alpha  occ. eigenvalues --   -0.75861  -0.74052  -0.73387  -0.73028  -0.72157
 Alpha  occ. eigenvalues --   -0.71667  -0.70482  -0.70066  -0.69355  -0.68687
 Alpha  occ. eigenvalues --   -0.68427  -0.67774  -0.67241  -0.66447  -0.65867
 Alpha  occ. eigenvalues --   -0.65736  -0.65325  -0.64216  -0.63693  -0.62931
 Alpha  occ. eigenvalues --   -0.62319  -0.62043  -0.61154  -0.60609  -0.59959
 Alpha  occ. eigenvalues --   -0.59732  -0.58929  -0.58281  -0.57915  -0.57217
 Alpha  occ. eigenvalues --   -0.56799  -0.56651  -0.56265  -0.55842  -0.55557
 Alpha  occ. eigenvalues --   -0.55172  -0.54898  -0.54658  -0.54265  -0.54091
 Alpha  occ. eigenvalues --   -0.53307  -0.52949  -0.52922  -0.52164  -0.52042
 Alpha  occ. eigenvalues --   -0.51873  -0.51673  -0.51350  -0.50871  -0.50770
 Alpha  occ. eigenvalues --   -0.50373  -0.50033  -0.49571  -0.49513  -0.49216
 Alpha  occ. eigenvalues --   -0.49070  -0.48802  -0.48287  -0.48121  -0.47902
 Alpha  occ. eigenvalues --   -0.47449  -0.47431  -0.47145  -0.46678  -0.46393
 Alpha  occ. eigenvalues --   -0.46126  -0.45984  -0.45872  -0.45752  -0.45571
 Alpha  occ. eigenvalues --   -0.45302  -0.44607  -0.44379  -0.44347  -0.44219
 Alpha  occ. eigenvalues --   -0.43571  -0.43422  -0.42299  -0.41630  -0.41364
 Alpha  occ. eigenvalues --   -0.40900  -0.40668  -0.40594  -0.40454  -0.40048
 Alpha  occ. eigenvalues --   -0.39565  -0.39187  -0.39143  -0.38343  -0.37176
 Alpha  occ. eigenvalues --   -0.36529  -0.36294  -0.36174  -0.36019  -0.35778
 Alpha  occ. eigenvalues --   -0.35407  -0.35251  -0.34800  -0.34306  -0.34072
 Alpha  occ. eigenvalues --   -0.33206  -0.32470  -0.32115  -0.31503  -0.29355
 Alpha virt. eigenvalues --   -0.11691  -0.10668  -0.08820  -0.07722  -0.07454
 Alpha virt. eigenvalues --   -0.07082  -0.06341  -0.05694  -0.05505  -0.04754
 Alpha virt. eigenvalues --   -0.02050  -0.01291  -0.00605  -0.00063   0.00180

 Mulliken charges:
               1
     1  N   -0.765033
     2  H    0.415340
     3  H    0.409792
     4  H    0.432796
     5  C   -0.110834
     6  H    0.237857
     7  C    0.651644
     8  C   -0.393671
     9  H    0.185914
    10  H    0.234389
    11  O   -0.544214
    12  C    0.621902
    13  N   -0.763567
    14  H    0.351847
    15  H    0.409185
    16  O   -0.536512
    17  N   -0.600403
    18  H    0.391114
    19  C   -0.064434
    20  H    0.182451
    21  C    0.648413
    22  C   -0.102472
    23  H    0.146267
    24  O   -0.562697
    25  C   -0.259991
    26  H    0.145221
    27  H    0.143563
    28  C   -0.500615
    29  H    0.138731
    30  H    0.176854
    31  H    0.194314
    32  C   -0.453962
    33  H    0.162132
    34  H    0.152363
    35  H    0.159809
    36  N   -0.591689
    37  H    0.346971
    38  C   -0.022606
    39  H    0.156971
    40  C    0.649072
    41  C   -0.492841
    42  H    0.180487
    43  H    0.164926
    44  H    0.188011
    45  O   -0.542542
    46  N   -0.586900
    47  H    0.352380
    48  C   -0.063053
    49  H    0.181493
    50  C    0.632221
    51  C    0.134448
    52  H    0.140377
    53  O   -0.563157
    54  C   -0.469756
    55  H    0.172598
    56  H    0.134681
    57  H    0.176296
    58  O   -0.680923
    59  H    0.445170
    60  N   -0.600329
    61  H    0.357604
    62  C   -0.088347
    63  H    0.186351
    64  C    0.628079
    65  C   -0.056536
    66  H    0.165156
    67  H    0.161034
    68  O   -0.539862
    69  O   -0.633748
    70  H    0.422355
    71  N   -0.591497
    72  H    0.377887
    73  C   -0.239329
    74  H    0.187444
    75  H    0.191022
    76  C    0.642399
    77  O   -0.566092
    78  N   -0.591628
    79  H    0.368724
    80  C   -0.035340
    81  H    0.195078
    82  C    0.590024
    83  C   -0.272049
    84  H    0.160748
    85  H    0.155473
    86  O   -0.462454
    87  C   -0.264725
    88  H    0.166796
    89  H    0.138568
    90  C   -0.249600
    91  H    0.117325
    92  H    0.136230
    93  C   -0.146064
    94  H    0.146753
    95  H    0.123166
    96  N   -0.715616
    97  H    0.288599
    98  H    0.305641
    99  O   -0.561911
   100  H    0.426544
 Sum of Mulliken charges =   1.00000

 Dipole moment (field-independent basis, Debye):
    X=            -15.9003    Y=             -7.4427    Z=             -3.3980  Tot=             17.8818
 Quadrupole moment (field-independent basis, Debye-Ang):
   XX=           -166.4609   YY=           -208.1726   ZZ=           -236.3549
   XY=             10.3935   XZ=             -7.9348   YZ=             31.5357

 Normal termination of Gaussian 16 at Fri May 27 02:49:25 2022.
