 Gaussian 16, Revision C.01,
 Gaussian 16:  ES64L-G16RevC.01  3-Jul-2019

 -------------------------------------------------------------------
 # B3LYP/6-31G* guess=read geom=check nosymm integral(ultrafinegrid)
 -------------------------------------------------------------------

 ------------------------------------------------------
 Candidate Structure: Conf:535 Charge calc in gas phase
 ------------------------------------------------------
 Structure from the checkpoint file:  "conf-535.chk"
 Charge =  1 Multiplicity = 1

                          Input orientation:
 ---------------------------------------------------------------------
 Center     Atomic      Atomic             Coordinates (Angstroms)
 Number     Number       Type             X           Y           Z
 ---------------------------------------------------------------------
      1          7           0       -7.810251    3.580772    2.961461
      2          1           0       -8.197340    4.290886    3.589106
      3          1           0       -8.558600    3.241286    2.352199
      4          1           0       -7.007164    4.010633    2.385972
      5          6           0       -7.067566    2.483568    3.693657
      6          1           0       -7.279666    2.557011    4.761046
      7          6           0       -5.582381    2.827816    3.368894
      8          6           0       -7.466078    1.093780    3.162618
      9          1           0       -8.550389    1.048136    2.993537
     10          1           0       -6.952295    0.886827    2.216780
     11          8           0       -5.389281    3.681005    2.487457
     12          6           0       -7.083090    0.006431    4.177546
     13          7           0       -7.513460   -1.236714    3.888310
     14          1           0       -7.237574   -1.993260    4.501562
     15          1           0       -7.967670   -1.472341    3.017487
     16          8           0       -6.447411    0.278469    5.196440
     17          7           0       -4.650215    2.164522    4.043901
     18          1           0       -4.998638    1.425895    4.657550
     19          6           0       -3.300719    2.023820    3.500133
     20          1           0       -2.985461    3.012987    3.152695
     21          6           0       -3.396890    1.091293    2.255189
     22          6           0       -2.305262    1.530106    4.582383
     23          1           0       -1.330628    1.461981    4.079481
     24          8           0       -4.457257    0.546345    1.936035
     25          6           0       -2.650626    0.116986    5.103742
     26          1           0       -2.856479   -0.541066    4.249012
     27          1           0       -3.576844    0.148991    5.695171
     28          6           0       -2.173736    2.570450    5.705854
     29          1           0       -3.104986    2.663497    6.276448
     30          1           0       -1.381003    2.291641    6.405210
     31          1           0       -1.925074    3.559084    5.303679
     32          6           0       -1.541449   -0.515222    5.953656
     33          1           0       -1.811877   -1.537220    6.238496
     34          1           0       -0.596732   -0.562891    5.399099
     35          1           0       -1.360816    0.043968    6.877107
     36          7           0       -2.250298    0.950798    1.565741
     37          1           0       -1.374086    1.361457    1.879481
     38          6           0       -2.105466    0.078064    0.409278
     39          1           0       -2.616107   -0.869137    0.620019
     40          6           0       -0.592413   -0.172304    0.263407
     41          6           0       -2.707520    0.699118   -0.864373
     42          1           0       -2.620575    0.018149   -1.717538
     43          1           0       -3.767609    0.904249   -0.696700
     44          1           0       -2.199294    1.636000   -1.113683
     45          8           0        0.222053    0.488296    0.917918
     46          7           0       -0.227177   -1.128317   -0.612145
     47          1           0       -0.899051   -1.611444   -1.199996
     48          6           0        1.168098   -1.483487   -0.864853
     49          1           0        1.715820   -1.383628    0.077905
     50          6           0        1.778856   -0.521563   -1.907950
     51          6           0        1.214277   -2.938411   -1.383331
     52          1           0        2.242936   -3.135767   -1.713538
     53          8           0        1.964485   -0.876130   -3.083586
     54          6           0        0.817994   -3.963298   -0.329388
     55          1           0        1.507601   -3.935527    0.521065
     56          1           0        0.845929   -4.964127   -0.768698
     57          1           0       -0.196817   -3.782684    0.040341
     58          8           0        0.312334   -3.057405   -2.480820
     59          1           0        0.708654   -2.511435   -3.187782
     60          7           0        2.074128    0.712773   -1.460075
     61          1           0        1.907655    0.957870   -0.485606
     62          6           0        2.570915    1.771910   -2.339180
     63          1           0        2.097926    1.643662   -3.319746
     64          6           0        4.102757    1.659086   -2.509655
     65          6           0        2.199277    3.133851   -1.739798
     66          1           0        1.109151    3.222153   -1.690089
     67          1           0        2.578305    3.927491   -2.398278
     68          8           0        4.873409    2.465742   -1.966797
     69          8           0        2.685424    3.259267   -0.417906
     70          1           0        3.657810    3.246210   -0.513739
     71          7           0        4.519589    0.633363   -3.274326
     72          1           0        3.809966    0.012543   -3.654628
     73          6           0        5.931494    0.297821   -3.453432
     74          1           0        6.450269    0.462012   -2.502259
     75          1           0        6.004286   -0.755230   -3.725500
     76          6           0        6.639868    1.098103   -4.564219
     77          8           0        7.135981    0.537097   -5.531044
     78          7           0        6.658762    2.445977   -4.358845
     79          1           0        6.321180    2.791243   -3.464641
     80          6           0        7.382769    3.344435   -5.237386
     81          1           0        7.536891    2.793540   -6.172414
     82          6           0        8.789263    3.689608   -4.732749
     83          6           0        6.600493    4.638945   -5.533391
     84          1           0        6.392877    5.157238   -4.584766
     85          1           0        7.265550    5.295552   -6.104069
     86          8           0        9.515196    4.496123   -5.269584
     87          6           0        5.297047    4.404151   -6.303118
     88          1           0        5.505432    3.881313   -7.243620
     89          1           0        4.638792    3.741624   -5.723879
     90          6           0        4.556810    5.711020   -6.613572
     91          1           0        5.229101    6.392343   -7.157298
     92          1           0        4.297571    6.228237   -5.678509
     93          6           0        3.276422    5.519593   -7.434912
     94          1           0        2.603115    4.834704   -6.901201
     95          1           0        2.749930    6.489573   -7.499915
     96          7           0        3.572278    4.916201   -8.739499
     97          1           0        4.106614    5.574662   -9.305929
     98          1           0        2.707380    4.744432   -9.249153
     99          8           0        9.151261    2.999418   -3.626750
    100          1           0       10.063078    3.284758   -3.425432
 ---------------------------------------------------------------------

 SCF Done:  E(RB3LYP) =  -2418.44595764     A.U. after    1 cycles

 Alpha  occ. eigenvalues --  -19.27265 -19.25417 -19.23450 -19.22000 -19.21845
 Alpha  occ. eigenvalues --  -19.21269 -19.20910 -19.20232 -19.19537 -19.17339
 Alpha  occ. eigenvalues --  -19.15365 -14.60414 -14.49004 -14.48658 -14.45806
 Alpha  occ. eigenvalues --  -14.45675 -14.44462 -14.43201 -14.39474 -14.34750
 Alpha  occ. eigenvalues --  -10.43580 -10.43445 -10.41410 -10.39023 -10.38761
 Alpha  occ. eigenvalues --  -10.37532 -10.36171 -10.35685 -10.35487 -10.34134
 Alpha  occ. eigenvalues --  -10.33407 -10.32772 -10.31793 -10.31593 -10.30862
 Alpha  occ. eigenvalues --  -10.30284 -10.29631 -10.28279 -10.27560 -10.27386
 Alpha  occ. eigenvalues --  -10.27358 -10.26438 -10.25494 -10.24732 -10.24463
 Alpha  occ. eigenvalues --  -10.22478 -10.21780 -10.21266  -1.19761  -1.17191
 Alpha  occ. eigenvalues --   -1.14352  -1.14197  -1.13978  -1.13273  -1.12472
 Alpha  occ. eigenvalues --   -1.11067  -1.08873  -1.07823  -1.07199  -1.06046
 Alpha  occ. eigenvalues --   -1.05022  -1.04016  -1.02430  -1.01965  -1.00598
 Alpha  occ. eigenvalues --   -0.99040  -0.96301  -0.94382  -0.91469  -0.91057
 Alpha  occ. eigenvalues --   -0.87788  -0.85378  -0.84556  -0.83909  -0.83244
 Alpha  occ. eigenvalues --   -0.82360  -0.79953  -0.79661  -0.78724  -0.77398
 Alpha  occ. eigenvalues --   -0.75382  -0.74975  -0.74355  -0.72802  -0.72717
 Alpha  occ. eigenvalues --   -0.72307  -0.71339  -0.70784  -0.69700  -0.68300
 Alpha  occ. eigenvalues --   -0.67481  -0.67210  -0.66753  -0.66561  -0.66515
 Alpha  occ. eigenvalues --   -0.65632  -0.65418  -0.64135  -0.63318  -0.63070
 Alpha  occ. eigenvalues --   -0.62658  -0.61523  -0.61453  -0.60307  -0.59835
 Alpha  occ. eigenvalues --   -0.59263  -0.58923  -0.58400  -0.57810  -0.57116
 Alpha  occ. eigenvalues --   -0.56825  -0.56762  -0.56154  -0.55134  -0.54946
 Alpha  occ. eigenvalues --   -0.54697  -0.54327  -0.53691  -0.53667  -0.53443
 Alpha  occ. eigenvalues --   -0.52830  -0.52748  -0.52676  -0.52449  -0.51785
 Alpha  occ. eigenvalues --   -0.51501  -0.51272  -0.50649  -0.50492  -0.50386
 Alpha  occ. eigenvalues --   -0.50083  -0.49852  -0.49669  -0.49307  -0.49040
 Alpha  occ. eigenvalues --   -0.48972  -0.48027  -0.47809  -0.47434  -0.47246
 Alpha  occ. eigenvalues --   -0.46893  -0.46706  -0.46664  -0.46266  -0.45843
 Alpha  occ. eigenvalues --   -0.45623  -0.45290  -0.45113  -0.45069  -0.44763
 Alpha  occ. eigenvalues --   -0.44684  -0.43926  -0.43800  -0.43196  -0.42994
 Alpha  occ. eigenvalues --   -0.42512  -0.42169  -0.41854  -0.41441  -0.41154
 Alpha  occ. eigenvalues --   -0.40591  -0.40273  -0.40031  -0.39661  -0.39546
 Alpha  occ. eigenvalues --   -0.39281  -0.39264  -0.37533  -0.37072  -0.36587
 Alpha  occ. eigenvalues --   -0.36382  -0.36257  -0.35947  -0.35541  -0.35457
 Alpha  occ. eigenvalues --   -0.35081  -0.34723  -0.33811  -0.33651  -0.32828
 Alpha  occ. eigenvalues --   -0.32627  -0.31693  -0.28736  -0.28089  -0.26838
 Alpha virt. eigenvalues --   -0.12404  -0.11859  -0.11224  -0.08355  -0.07855
 Alpha virt. eigenvalues --   -0.07274  -0.06654  -0.05197  -0.04739  -0.03342
 Alpha virt. eigenvalues --   -0.02591  -0.01860  -0.01791  -0.00613  -0.00130

 Mulliken charges:
               1
     1  N   -0.767304
     2  H    0.418062
     3  H    0.409979
     4  H    0.437538
     5  C   -0.108387
     6  H    0.237944
     7  C    0.648186
     8  C   -0.411956
     9  H    0.182629
    10  H    0.250385
    11  O   -0.542941
    12  C    0.649467
    13  N   -0.735628
    14  H    0.375516
    15  H    0.363407
    16  O   -0.517842
    17  N   -0.597847
    18  H    0.408831
    19  C   -0.088596
    20  H    0.197939
    21  C    0.647199
    22  C   -0.107487
    23  H    0.152169
    24  O   -0.570512
    25  C   -0.286192
    26  H    0.147056
    27  H    0.148845
    28  C   -0.454549
    29  H    0.150677
    30  H    0.174842
    31  H    0.155993
    32  C   -0.453501
    33  H    0.159718
    34  H    0.156596
    35  H    0.161427
    36  N   -0.618220
    37  H    0.371224
    38  C   -0.037177
    39  H    0.182385
    40  C    0.627624
    41  C   -0.450475
    42  H    0.159842
    43  H    0.182415
    44  H    0.168294
    45  O   -0.547811
    46  N   -0.607280
    47  H    0.355592
    48  C   -0.073775
    49  H    0.186528
    50  C    0.637936
    51  C    0.110025
    52  H    0.152415
    53  O   -0.565364
    54  C   -0.450168
    55  H    0.152991
    56  H    0.180300
    57  H    0.144172
    58  O   -0.647571
    59  H    0.422692
    60  N   -0.603468
    61  H    0.383366
    62  C   -0.086715
    63  H    0.183633
    64  C    0.637996
    65  C   -0.049601
    66  H    0.146054
    67  H    0.154751
    68  O   -0.562899
    69  O   -0.633315
    70  H    0.422988
    71  N   -0.590748
    72  H    0.377616
    73  C   -0.249636
    74  H    0.194961
    75  H    0.188776
    76  C    0.601921
    77  O   -0.498818
    78  N   -0.602088
    79  H    0.361883
    80  C   -0.060160
    81  H    0.214604
    82  C    0.593194
    83  C   -0.277882
    84  H    0.129917
    85  H    0.175297
    86  O   -0.460723
    87  C   -0.246494
    88  H    0.170954
    89  H    0.119671
    90  C   -0.259081
    91  H    0.132968
    92  H    0.124722
    93  C   -0.133688
    94  H    0.126158
    95  H    0.114530
    96  N   -0.710863
    97  H    0.296508
    98  H    0.297898
    99  O   -0.565982
   100  H    0.413542
 Sum of Mulliken charges =   1.00000

 Dipole moment (field-independent basis, Debye):
    X=            -32.9511    Y=              8.1899    Z=             14.1730  Tot=             36.7930
 Quadrupole moment (field-independent basis, Debye-Ang):
   XX=            -52.4029   YY=           -232.9675   ZZ=           -242.7943
   XY=            -73.9966   XZ=            -64.3042   YZ=              8.7549

 Normal termination of Gaussian 16 at Fri May 27 02:48:57 2022.
