 Gaussian 16, Revision C.01,
 Gaussian 16:  ES64L-G16RevC.01  3-Jul-2019

 -------------------------------------------------------------------
 # B3LYP/6-31G* guess=read geom=check nosymm integral(ultrafinegrid)
 -------------------------------------------------------------------

 ------------------------------------------------------
 Candidate Structure: Conf:305 Charge calc in gas phase
 ------------------------------------------------------
 Structure from the checkpoint file:  "conf-305.chk"
 Charge =  1 Multiplicity = 1

                          Input orientation:
 ---------------------------------------------------------------------
 Center     Atomic      Atomic             Coordinates (Angstroms)
 Number     Number       Type             X           Y           Z
 ---------------------------------------------------------------------
      1          7           0       -7.395274    3.746724    5.818291
      2          1           0       -6.918880    4.150238    6.629825
      3          1           0       -8.273589    3.240322    6.126347
      4          1           0       -7.550716    4.513368    5.132319
      5          6           0       -6.537379    2.739910    5.099085
      6          1           0       -5.896856    2.251446    5.837498
      7          6           0       -5.729043    3.570217    4.068286
      8          6           0       -7.435502    1.707617    4.384135
      9          1           0       -7.981475    2.209258    3.573550
     10          1           0       -6.791704    0.957306    3.915366
     11          8           0       -6.183035    4.669606    3.742413
     12          6           0       -8.472915    1.072453    5.315654
     13          7           0       -8.756086   -0.223717    5.120776
     14          1           0       -9.485372   -0.650697    5.680144
     15          1           0       -8.309503   -0.784058    4.408857
     16          8           0       -9.037850    1.752719    6.185140
     17          7           0       -4.616050    2.996037    3.607431
     18          1           0       -4.395993    2.026679    3.834169
     19          6           0       -3.831559    3.479986    2.464832
     20          1           0       -4.435946    4.224626    1.936916
     21          6           0       -3.635024    2.211043    1.603218
     22          6           0       -2.483908    4.127652    2.914112
     23          1           0       -1.915261    3.342174    3.433649
     24          8           0       -3.636986    1.101745    2.142420
     25          6           0       -2.742140    5.278365    3.911033
     26          1           0       -3.402577    4.919042    4.709203
     27          1           0       -3.289057    6.082050    3.398792
     28          6           0       -1.664461    4.596041    1.700147
     29          1           0       -2.226992    5.331291    1.106925
     30          1           0       -0.747788    5.090287    2.031602
     31          1           0       -1.361709    3.768081    1.053537
     32          6           0       -1.472786    5.844233    4.559875
     33          1           0       -1.733634    6.587354    5.320816
     34          1           0       -0.890957    5.055070    5.051488
     35          1           0       -0.819273    6.339596    3.835652
     36          7           0       -3.516038    2.381680    0.267257
     37          1           0       -3.352176    3.315950   -0.085551
     38          6           0       -3.166385    1.268248   -0.609600
     39          1           0       -3.806915    0.426416   -0.330563
     40          6           0       -1.687867    0.874415   -0.406284
     41          6           0       -3.412094    1.663335   -2.071389
     42          1           0       -3.191017    0.824376   -2.737308
     43          1           0       -4.456189    1.954761   -2.220630
     44          1           0       -2.765110    2.499747   -2.359258
     45          8           0       -0.828237    1.725890   -0.158199
     46          7           0       -1.406025   -0.433669   -0.567721
     47          1           0       -2.114446   -1.110700   -0.832826
     48          6           0       -0.059265   -0.985552   -0.431636
     49          1           0        0.449338   -0.436240    0.367879
     50          6           0        0.721418   -0.794489   -1.750214
     51          6           0       -0.178485   -2.485238   -0.081745
     52          1           0        0.829280   -2.917362   -0.141554
     53          8           0        0.922521   -1.739696   -2.528050
     54          6           0       -0.751270   -2.728466    1.308215
     55          1           0       -0.089499   -2.317436    2.078125
     56          1           0       -0.853706   -3.804382    1.474093
     57          1           0       -1.738501   -2.267756    1.419768
     58          8           0       -1.038944   -3.107207   -1.033031
     59          1           0       -0.546264   -3.072464   -1.875944
     60          7           0        1.147122    0.462805   -1.983949
     61          1           0        0.878618    1.175463   -1.307347
     62          6           0        1.743211    0.894241   -3.252769
     63          1           0        1.262400    0.332390   -4.061658
     64          6           0        3.264287    0.603368   -3.295722
     65          6           0        1.484013    2.398223   -3.449940
     66          1           0        1.882083    2.945490   -2.580417
     67          1           0        0.402708    2.568752   -3.490486
     68          8           0        4.088189    1.516040   -3.351684
     69          8           0        2.029856    2.863613   -4.658327
     70          1           0        2.995720    2.804947   -4.535024
     71          7           0        3.589310   -0.715723   -3.286960
     72          1           0        2.827669   -1.382556   -3.177304
     73          6           0        4.963468   -1.186028   -3.197880
     74          1           0        5.610210   -0.304954   -3.245270
     75          1           0        5.149224   -1.685228   -2.241114
     76          6           0        5.398408   -2.163837   -4.295591
     77          8           0        6.355230   -2.903640   -4.117233
     78          7           0        4.667325   -2.144012   -5.447570
     79          1           0        4.033647   -1.368733   -5.591693
     80          6           0        5.106862   -2.895573   -6.614273
     81          1           0        5.354634   -3.908669   -6.287536
     82          6           0        6.391587   -2.337894   -7.233629
     83          6           0        3.973369   -2.946074   -7.662505
     84          1           0        3.053972   -3.216095   -7.125794
     85          1           0        3.817211   -1.934671   -8.067220
     86          8           0        7.182530   -2.992087   -7.872080
     87          6           0        4.210307   -3.943032   -8.803367
     88          1           0        5.160715   -3.720967   -9.302936
     89          1           0        4.306605   -4.955627   -8.395856
     90          6           0        3.077828   -3.932040   -9.837454
     91          1           0        3.026166   -2.949904  -10.328705
     92          1           0        2.109165   -4.071761   -9.331914
     93          6           0        3.233994   -5.012607  -10.914759
     94          1           0        2.497109   -4.827846  -11.716997
     95          1           0        4.226063   -4.919656  -11.374606
     96          7           0        3.143103   -6.355219  -10.326575
     97          1           0        3.406722   -7.056442  -11.016177
     98          1           0        2.174752   -6.554497  -10.077521
     99          8           0        6.520071   -1.001042   -7.046028
    100          1           0        7.350778   -0.747990   -7.491677
 ---------------------------------------------------------------------

 SCF Done:  E(RB3LYP) =  -2418.44301500     A.U. after    3 cycles

 Alpha  occ. eigenvalues --  -19.27965 -19.26946 -19.23600 -19.23180 -19.21810
 Alpha  occ. eigenvalues --  -19.21667 -19.21284 -19.19213 -19.18493 -19.17191
 Alpha  occ. eigenvalues --  -19.15369 -14.58772 -14.51273 -14.50206 -14.47596
 Alpha  occ. eigenvalues --  -14.46072 -14.44826 -14.42335 -14.40277 -14.34177
 Alpha  occ. eigenvalues --  -10.45573 -10.44155 -10.42072 -10.40521 -10.38776
 Alpha  occ. eigenvalues --  -10.37838 -10.37167 -10.35503 -10.35303 -10.35258
 Alpha  occ. eigenvalues --  -10.34219 -10.32921 -10.32086 -10.31953 -10.30424
 Alpha  occ. eigenvalues --  -10.29877 -10.29805 -10.28809 -10.27706 -10.27631
 Alpha  occ. eigenvalues --  -10.27544 -10.26357 -10.25793 -10.25109 -10.23692
 Alpha  occ. eigenvalues --  -10.23383 -10.21329 -10.20858  -1.19957  -1.19047
 Alpha  occ. eigenvalues --   -1.15612  -1.13918  -1.13695  -1.13397  -1.12658
 Alpha  occ. eigenvalues --   -1.10367  -1.09245  -1.07495  -1.06920  -1.06796
 Alpha  occ. eigenvalues --   -1.06249  -1.04845  -1.03922  -1.02260  -1.00908
 Alpha  occ. eigenvalues --   -0.98644  -0.96533  -0.95239  -0.91565  -0.90834
 Alpha  occ. eigenvalues --   -0.88519  -0.86026  -0.85348  -0.84021  -0.83229
 Alpha  occ. eigenvalues --   -0.82774  -0.80004  -0.79719  -0.78942  -0.77108
 Alpha  occ. eigenvalues --   -0.75945  -0.75417  -0.74156  -0.73564  -0.72692
 Alpha  occ. eigenvalues --   -0.72348  -0.72009  -0.70790  -0.70068  -0.69101
 Alpha  occ. eigenvalues --   -0.69058  -0.68046  -0.67298  -0.66864  -0.66685
 Alpha  occ. eigenvalues --   -0.65750  -0.64653  -0.64525  -0.63718  -0.63481
 Alpha  occ. eigenvalues --   -0.62985  -0.62147  -0.61096  -0.60583  -0.60079
 Alpha  occ. eigenvalues --   -0.59606  -0.59393  -0.59264  -0.59008  -0.58203
 Alpha  occ. eigenvalues --   -0.57447  -0.57308  -0.56770  -0.56339  -0.55720
 Alpha  occ. eigenvalues --   -0.55559  -0.54861  -0.54492  -0.54095  -0.53799
 Alpha  occ. eigenvalues --   -0.53160  -0.52805  -0.52740  -0.52435  -0.51809
 Alpha  occ. eigenvalues --   -0.51665  -0.51577  -0.51206  -0.50855  -0.50474
 Alpha  occ. eigenvalues --   -0.50245  -0.49851  -0.49524  -0.49147  -0.49064
 Alpha  occ. eigenvalues --   -0.49061  -0.48340  -0.48268  -0.47559  -0.47252
 Alpha  occ. eigenvalues --   -0.47196  -0.47034  -0.46565  -0.46370  -0.46101
 Alpha  occ. eigenvalues --   -0.45857  -0.45695  -0.45119  -0.45038  -0.44886
 Alpha  occ. eigenvalues --   -0.44515  -0.44252  -0.43541  -0.43486  -0.43172
 Alpha  occ. eigenvalues --   -0.42540  -0.42261  -0.42252  -0.42085  -0.41729
 Alpha  occ. eigenvalues --   -0.41175  -0.41034  -0.40884  -0.39677  -0.39520
 Alpha  occ. eigenvalues --   -0.39266  -0.39124  -0.38078  -0.37404  -0.37132
 Alpha  occ. eigenvalues --   -0.36867  -0.36429  -0.36327  -0.35952  -0.35295
 Alpha  occ. eigenvalues --   -0.35069  -0.34770  -0.33316  -0.32944  -0.32488
 Alpha  occ. eigenvalues --   -0.32273  -0.31159  -0.29077  -0.28402  -0.26283
 Alpha virt. eigenvalues --   -0.13725  -0.12727  -0.10114  -0.09453  -0.08389
 Alpha virt. eigenvalues --   -0.06999  -0.05956  -0.05375  -0.04532  -0.03223
 Alpha virt. eigenvalues --   -0.02723  -0.02363  -0.01878  -0.01455  -0.00724

 Mulliken charges:
               1
     1  N   -0.754290
     2  H    0.411014
     3  H    0.445558
     4  H    0.418253
     5  C   -0.124968
     6  H    0.217771
     7  C    0.644424
     8  C   -0.402608
     9  H    0.229184
    10  H    0.206619
    11  O   -0.523145
    12  C    0.647395
    13  N   -0.725179
    14  H    0.384769
    15  H    0.372367
    16  O   -0.533096
    17  N   -0.594828
    18  H    0.361739
    19  C   -0.088114
    20  H    0.186218
    21  C    0.638704
    22  C   -0.065785
    23  H    0.143430
    24  O   -0.549331
    25  C   -0.250219
    26  H    0.117423
    27  H    0.149770
    28  C   -0.513437
    29  H    0.139386
    30  H    0.177891
    31  H    0.200054
    32  C   -0.454329
    33  H    0.158021
    34  H    0.150906
    35  H    0.165070
    36  N   -0.586201
    37  H    0.350483
    38  C   -0.056176
    39  H    0.177200
    40  C    0.649266
    41  C   -0.478540
    42  H    0.181258
    43  H    0.178998
    44  H    0.177216
    45  O   -0.547185
    46  N   -0.596775
    47  H    0.355113
    48  C   -0.075530
    49  H    0.185323
    50  C    0.637074
    51  C    0.108094
    52  H    0.154713
    53  O   -0.561301
    54  C   -0.452735
    55  H    0.151740
    56  H    0.178003
    57  H    0.149515
    58  O   -0.647209
    59  H    0.422858
    60  N   -0.617061
    61  H    0.376681
    62  C   -0.083776
    63  H    0.187545
    64  C    0.619821
    65  C   -0.038867
    66  H    0.139385
    67  H    0.141183
    68  O   -0.528608
    69  O   -0.623838
    70  H    0.421908
    71  N   -0.631873
    72  H    0.374410
    73  C   -0.233710
    74  H    0.224733
    75  H    0.187070
    76  C    0.603207
    77  O   -0.507994
    78  N   -0.606593
    79  H    0.333222
    80  C   -0.011936
    81  H    0.200603
    82  C    0.600391
    83  C   -0.306124
    84  H    0.147875
    85  H    0.140177
    86  O   -0.455494
    87  C   -0.259961
    88  H    0.159408
    89  H    0.170993
    90  C   -0.252069
    91  H    0.128249
    92  H    0.118512
    93  C   -0.142574
    94  H    0.115999
    95  H    0.145514
    96  N   -0.711873
    97  H    0.301980
    98  H    0.291000
    99  O   -0.574211
   100  H    0.414855
 Sum of Mulliken charges =   1.00000

 Dipole moment (field-independent basis, Debye):
    X=            -34.0888    Y=             10.3451    Z=             18.4954  Tot=             40.1391
 Quadrupole moment (field-independent basis, Debye-Ang):
   XX=           -111.7865   YY=           -250.8675   ZZ=           -139.1819
   XY=            -31.8051   XZ=           -117.1479   YZ=             55.9638

 Normal termination of Gaussian 16 at Fri May 27 02:49:25 2022.
