 Gaussian 16, Revision C.01,
 Gaussian 16:  ES64L-G16RevC.01  3-Jul-2019

 -------------------------------------------------------------------
 # B3LYP/6-31G* guess=read geom=check nosymm integral(ultrafinegrid)
 -------------------------------------------------------------------

 ------------------------------------------------------
 Candidate Structure: Conf:231 Charge calc in gas phase
 ------------------------------------------------------
 Structure from the checkpoint file:  "conf-231.chk"
 Charge =  1 Multiplicity = 1

                          Input orientation:
 ---------------------------------------------------------------------
 Center     Atomic      Atomic             Coordinates (Angstroms)
 Number     Number       Type             X           Y           Z
 ---------------------------------------------------------------------
      1          7           0       -6.591858    4.060563    1.815007
      2          1           0       -7.217184    4.199460    2.613671
      3          1           0       -7.091491    4.305814    0.913405
      4          1           0       -5.724207    4.605671    1.996350
      5          6           0       -6.139244    2.630168    1.689820
      6          1           0       -6.944451    1.986081    2.051663
      7          6           0       -4.861622    2.539070    2.563558
      8          6           0       -5.806571    2.318419    0.214733
      9          1           0       -4.919743    2.895334   -0.081368
     10          1           0       -5.535331    1.261140    0.139465
     11          8           0       -4.260208    3.589441    2.800395
     12          6           0       -6.940881    2.687621   -0.746315
     13          7           0       -7.129021    1.884628   -1.803757
     14          1           0       -7.825470    2.144288   -2.492553
     15          1           0       -6.567610    1.063070   -1.977509
     16          8           0       -7.623472    3.705374   -0.555306
     17          7           0       -4.510801    1.311815    2.952873
     18          1           0       -5.008150    0.489690    2.611282
     19          6           0       -3.209883    0.954788    3.534582
     20          1           0       -2.536634    1.806066    3.393350
     21          6           0       -2.768670   -0.263789    2.690763
     22          6           0       -3.323908    0.620104    5.052306
     23          1           0       -4.019565   -0.228255    5.133657
     24          8           0       -3.628878   -1.038918    2.258874
     25          6           0       -3.918967    1.812529    5.831357
     26          1           0       -4.840897    2.137695    5.334613
     27          1           0       -3.224173    2.661864    5.774149
     28          6           0       -1.963485    0.188558    5.622807
     29          1           0       -1.222264    0.993596    5.531649
     30          1           0       -2.053804   -0.053249    6.684669
     31          1           0       -1.566166   -0.699111    5.123227
     32          6           0       -4.245092    1.505397    7.298193
     33          1           0       -4.746216    2.360396    7.764143
     34          1           0       -4.913918    0.640385    7.384944
     35          1           0       -3.348226    1.295440    7.888933
     36          7           0       -1.451790   -0.398864    2.464091
     37          1           0       -0.776973    0.270853    2.821671
     38          6           0       -0.871686   -1.504442    1.708922
     39          1           0       -1.297454   -2.443927    2.079759
     40          6           0        0.641243   -1.451555    1.965602
     41          6           0       -1.140400   -1.380195    0.194352
     42          1           0       -0.754506   -2.257190   -0.334406
     43          1           0       -2.218132   -1.321066    0.025278
     44          1           0       -0.649054   -0.489630   -0.211219
     45          8           0        1.167100   -0.393009    2.355855
     46          7           0        1.330207   -2.560140    1.660016
     47          1           0        0.837108   -3.440194    1.560183
     48          6           0        2.795874   -2.668549    1.732379
     49          1           0        3.126151   -2.197279    2.665678
     50          6           0        3.403844   -1.928548    0.510012
     51          6           0        3.192366   -4.153545    1.717199
     52          1           0        3.090249   -4.510176    0.683906
     53          8           0        3.763119   -2.531989   -0.500874
     54          6           0        4.630795   -4.357363    2.182883
     55          1           0        5.329680   -3.823975    1.531095
     56          1           0        4.894503   -5.420620    2.145704
     57          1           0        4.758548   -4.008355    3.213235
     58          8           0        2.249172   -4.821504    2.565338
     59          1           0        2.449734   -5.769972    2.537004
     60          7           0        3.446048   -0.583316    0.637465
     61          1           0        3.063629   -0.200096    1.495096
     62          6           0        3.558145    0.317964   -0.516888
     63          1           0        3.135877   -0.214587   -1.377949
     64          6           0        5.023543    0.666444   -0.856447
     65          6           0        2.735210    1.588934   -0.261183
     66          1           0        2.799754    2.224452   -1.145606
     67          1           0        3.175073    2.154716    0.571957
     68          8           0        5.422829    1.824755   -0.870955
     69          8           0        1.356075    1.314283   -0.038478
     70          1           0        1.262086    0.940642    0.854663
     71          7           0        5.803033   -0.419660   -1.124994
     72          1           0        5.317093   -1.301717   -1.266864
     73          6           0        7.100434   -0.253124   -1.732983
     74          1           0        7.485696    0.725621   -1.432873
     75          1           0        7.792958   -1.018663   -1.361608
     76          6           0        7.019955   -0.318885   -3.271569
     77          8           0        5.952600   -0.413961   -3.863429
     78          7           0        8.229895   -0.240574   -3.894628
     79          1           0        9.080466   -0.341381   -3.351969
     80          6           0        8.382386   -0.444391   -5.326880
     81          1           0        7.485853   -0.959190   -5.688066
     82          6           0        9.593095   -1.344205   -5.535683
     83          6           0        8.555056    0.872447   -6.124600
     84          1           0        9.471722    1.373681   -5.783442
     85          1           0        8.708838    0.609086   -7.178063
     86          8           0       10.421943   -1.594206   -4.685305
     87          6           0        7.360892    1.824519   -5.993705
     88          1           0        6.446811    1.290654   -6.281537
     89          1           0        7.237568    2.111002   -4.940922
     90          6           0        7.522850    3.085030   -6.854248
     91          1           0        7.567993    2.803767   -7.914374
     92          1           0        8.475874    3.575265   -6.608341
     93          6           0        6.393540    4.104082   -6.668170
     94          1           0        6.402288    4.461419   -5.621110
     95          1           0        6.601546    4.977250   -7.298262
     96          7           0        5.099572    3.553315   -7.093967
     97          1           0        4.399662    4.293441   -7.096652
     98          1           0        4.775995    2.869972   -6.411045
     99          8           0        9.665345   -1.809415   -6.798084
    100          1           0       10.484243   -2.337877   -6.856592
 ---------------------------------------------------------------------

 SCF Done:  E(RB3LYP) =  -2418.44077546     A.U. after    2 cycles

 Alpha  occ. eigenvalues --  -19.27450 -19.26358 -19.24879 -19.22980 -19.22936
 Alpha  occ. eigenvalues --  -19.22394 -19.20195 -19.19547 -19.19335 -19.16338
 Alpha  occ. eigenvalues --  -19.15892 -14.58247 -14.50739 -14.49636 -14.46524
 Alpha  occ. eigenvalues --  -14.46507 -14.43231 -14.40256 -14.40034 -14.33966
 Alpha  occ. eigenvalues --  -10.45043 -10.43573 -10.41523 -10.39597 -10.39558
 Alpha  occ. eigenvalues --  -10.37199 -10.36580 -10.36527 -10.34596 -10.33751
 Alpha  occ. eigenvalues --  -10.33440 -10.33136 -10.32130 -10.32022 -10.29461
 Alpha  occ. eigenvalues --  -10.29005 -10.28954 -10.28266 -10.27402 -10.27167
 Alpha  occ. eigenvalues --  -10.27042 -10.26524 -10.25494 -10.24949 -10.23468
 Alpha  occ. eigenvalues --  -10.22975 -10.21321 -10.20835  -1.19420  -1.18478
 Alpha  occ. eigenvalues --   -1.15860  -1.14818  -1.14062  -1.12858  -1.11335
 Alpha  occ. eigenvalues --   -1.10267  -1.08427  -1.07673  -1.07317  -1.06818
 Alpha  occ. eigenvalues --   -1.06168  -1.05721  -1.02980  -1.02558  -0.99534
 Alpha  occ. eigenvalues --   -0.96986  -0.96558  -0.94677  -0.91124  -0.90648
 Alpha  occ. eigenvalues --   -0.88144  -0.85802  -0.84774  -0.84135  -0.82511
 Alpha  occ. eigenvalues --   -0.82268  -0.79729  -0.79688  -0.78458  -0.76595
 Alpha  occ. eigenvalues --   -0.75602  -0.75200  -0.73634  -0.73189  -0.72888
 Alpha  occ. eigenvalues --   -0.71884  -0.71496  -0.71159  -0.68997  -0.68785
 Alpha  occ. eigenvalues --   -0.68547  -0.67628  -0.66906  -0.66742  -0.66019
 Alpha  occ. eigenvalues --   -0.65324  -0.64981  -0.64081  -0.63219  -0.62759
 Alpha  occ. eigenvalues --   -0.62559  -0.61511  -0.60750  -0.60319  -0.59640
 Alpha  occ. eigenvalues --   -0.59304  -0.58710  -0.58257  -0.57985  -0.57418
 Alpha  occ. eigenvalues --   -0.57196  -0.56435  -0.56257  -0.55809  -0.55198
 Alpha  occ. eigenvalues --   -0.55161  -0.54346  -0.54225  -0.54056  -0.53607
 Alpha  occ. eigenvalues --   -0.53511  -0.52418  -0.52215  -0.52008  -0.51675
 Alpha  occ. eigenvalues --   -0.51490  -0.51354  -0.51028  -0.50767  -0.50425
 Alpha  occ. eigenvalues --   -0.50242  -0.50132  -0.49347  -0.49162  -0.48838
 Alpha  occ. eigenvalues --   -0.48684  -0.48199  -0.47720  -0.47511  -0.47119
 Alpha  occ. eigenvalues --   -0.46600  -0.46536  -0.46493  -0.46305  -0.45685
 Alpha  occ. eigenvalues --   -0.45621  -0.45352  -0.45032  -0.44919  -0.44802
 Alpha  occ. eigenvalues --   -0.44427  -0.43897  -0.43478  -0.43053  -0.42828
 Alpha  occ. eigenvalues --   -0.42030  -0.41776  -0.41695  -0.41604  -0.41466
 Alpha  occ. eigenvalues --   -0.41181  -0.41133  -0.40630  -0.40041  -0.39346
 Alpha  occ. eigenvalues --   -0.39076  -0.39019  -0.37297  -0.37110  -0.37037
 Alpha  occ. eigenvalues --   -0.36776  -0.36136  -0.36112  -0.35906  -0.35703
 Alpha  occ. eigenvalues --   -0.35375  -0.34104  -0.33323  -0.32863  -0.32584
 Alpha  occ. eigenvalues --   -0.30876  -0.29889  -0.29532  -0.28771  -0.26223
 Alpha virt. eigenvalues --   -0.13180  -0.12168  -0.09586  -0.09050  -0.08086
 Alpha virt. eigenvalues --   -0.05976  -0.05408  -0.04845  -0.04113  -0.02783
 Alpha virt. eigenvalues --   -0.02657  -0.01698  -0.01431  -0.00990  -0.00660

 Mulliken charges:
               1
     1  N   -0.754192
     2  H    0.410035
     3  H    0.445213
     4  H    0.418334
     5  C   -0.125100
     6  H    0.216619
     7  C    0.645123
     8  C   -0.403179
     9  H    0.232292
    10  H    0.206871
    11  O   -0.522771
    12  C    0.647335
    13  N   -0.725081
    14  H    0.383959
    15  H    0.372657
    16  O   -0.534065
    17  N   -0.596039
    18  H    0.361169
    19  C   -0.077505
    20  H    0.185474
    21  C    0.630249
    22  C   -0.071048
    23  H    0.143255
    24  O   -0.554725
    25  C   -0.251429
    26  H    0.120459
    27  H    0.150335
    28  C   -0.477061
    29  H    0.153023
    30  H    0.177254
    31  H    0.160427
    32  C   -0.454326
    33  H    0.158426
    34  H    0.150372
    35  H    0.162922
    36  N   -0.612995
    37  H    0.363660
    38  C   -0.036814
    39  H    0.184525
    40  C    0.636324
    41  C   -0.464739
    42  H    0.166912
    43  H    0.174272
    44  H    0.192980
    45  O   -0.574551
    46  N   -0.598204
    47  H    0.363083
    48  C   -0.059575
    49  H    0.183543
    50  C    0.633518
    51  C    0.111271
    52  H    0.167195
    53  O   -0.532094
    54  C   -0.475309
    55  H    0.177444
    56  H    0.157078
    57  H    0.164205
    58  O   -0.649508
    59  H    0.409098
    60  N   -0.606089
    61  H    0.357105
    62  C   -0.089344
    63  H    0.196001
    64  C    0.631608
    65  C   -0.071126
    66  H    0.180722
    67  H    0.149629
    68  O   -0.522191
    69  O   -0.655179
    70  H    0.411439
    71  N   -0.589176
    72  H    0.366043
    73  C   -0.252839
    74  H    0.212632
    75  H    0.170720
    76  C    0.606971
    77  O   -0.515640
    78  N   -0.600488
    79  H    0.344193
    80  C   -0.044639
    81  H    0.198961
    82  C    0.579959
    83  C   -0.262874
    84  H    0.140119
    85  H    0.161954
    86  O   -0.470902
    87  C   -0.268382
    88  H    0.154875
    89  H    0.143901
    90  C   -0.241171
    91  H    0.144429
    92  H    0.125285
    93  C   -0.142852
    94  H    0.114234
    95  H    0.139030
    96  N   -0.718586
    97  H    0.294176
    98  H    0.300453
    99  O   -0.558962
   100  H    0.419401
 Sum of Mulliken charges =   1.00000

 Dipole moment (field-independent basis, Debye):
    X=            -20.9687    Y=              3.4219    Z=              7.7577  Tot=             22.6181
 Quadrupole moment (field-independent basis, Debye-Ang):
   XX=            -76.9736   YY=           -225.4465   ZZ=           -242.0298
   XY=            -89.5113   XZ=            -34.4073   YZ=             10.2991

 Normal termination of Gaussian 16 at Fri May 27 02:49:11 2022.
