 Gaussian 16, Revision C.01,
 Gaussian 16:  ES64L-G16RevC.01  3-Jul-2019

 -------------------------------------------------------------------
 # B3LYP/6-31G* guess=read geom=check nosymm integral(ultrafinegrid)
 -------------------------------------------------------------------

 ------------------------------------------------------
 Candidate Structure: Conf:219 Charge calc in gas phase
 ------------------------------------------------------
 Structure from the checkpoint file:  "conf-219.chk"
 Charge =  1 Multiplicity = 1

                          Input orientation:
 ---------------------------------------------------------------------
 Center     Atomic      Atomic             Coordinates (Angstroms)
 Number     Number       Type             X           Y           Z
 ---------------------------------------------------------------------
      1          7           0       -8.361553    3.852174    2.572889
      2          1           0       -7.529924    4.528945    2.593924
      3          1           0       -9.043881    4.092182    3.295410
      4          1           0       -8.809850    3.893451    1.641617
      5          6           0       -7.659632    2.529337    2.803739
      6          1           0       -7.984692    2.139008    3.771285
      7          6           0       -6.154717    2.951064    2.881800
      8          6           0       -7.983449    1.518001    1.683639
      9          1           0       -7.330013    0.647833    1.787506
     10          1           0       -9.019126    1.175364    1.785756
     11          8           0       -5.903712    4.158178    2.748426
     12          6           0       -7.710526    2.165198    0.321691
     13          7           0       -8.832818    2.749411   -0.258340
     14          1           0       -8.665832    3.131380   -1.186536
     15          1           0       -9.720526    2.263056   -0.176772
     16          8           0       -6.586378    2.315650   -0.107450
     17          7           0       -5.292813    1.977089    3.128733
     18          1           0       -5.582851    0.997600    3.071536
     19          6           0       -3.831059    2.063273    2.990243
     20          1           0       -3.588915    2.983546    2.452178
     21          6           0       -3.503428    0.813042    2.133636
     22          6           0       -3.127752    2.034695    4.379686
     23          1           0       -3.445686    1.096503    4.856677
     24          8           0       -4.256239   -0.168415    2.198668
     25          6           0       -3.592581    3.189410    5.298124
     26          1           0       -3.188502    2.982669    6.297487
     27          1           0       -4.684151    3.146070    5.405508
     28          6           0       -1.595658    1.997690    4.247836
     29          1           0       -1.211112    2.837379    3.657174
     30          1           0       -1.138971    2.062295    5.240978
     31          1           0       -1.241824    1.073915    3.783150
     32          6           0       -3.178514    4.604685    4.874542
     33          1           0       -3.536907    5.334150    5.608945
     34          1           0       -2.090462    4.712299    4.817510
     35          1           0       -3.604144    4.885571    3.905499
     36          7           0       -2.412785    0.874127    1.361051
     37          1           0       -1.775657    1.668356    1.378443
     38          6           0       -1.916760   -0.250866    0.576410
     39          1           0       -2.032468   -1.165246    1.169196
     40          6           0       -0.420256    0.039917    0.341741
     41          6           0       -2.680978   -0.407242   -0.750023
     42          1           0       -2.303948   -1.262138   -1.320332
     43          1           0       -3.741684   -0.569745   -0.541983
     44          1           0       -2.571867    0.492435   -1.363829
     45          8           0        0.043175    1.162239    0.556026
     46          7           0        0.306014   -1.001837   -0.107675
     47          1           0       -0.115254   -1.904210   -0.304132
     48          6           0        1.716220   -0.914932   -0.451852
     49          1           0        2.193027   -0.197328    0.220989
     50          6           0        1.903186   -0.509146   -1.920980
     51          6           0        2.336966   -2.336246   -0.288881
     52          1           0        3.328250   -2.315188   -0.763729
     53          8           0        1.429719   -1.200730   -2.825324
     54          6           0        2.476648   -2.758407    1.166874
     55          1           0        3.174984   -2.101819    1.696321
     56          1           0        2.858716   -3.782126    1.212088
     57          1           0        1.509968   -2.730989    1.680549
     58          8           0        1.488117   -3.278574   -0.938521
     59          1           0        1.425220   -2.986599   -1.870752
     60          7           0        2.642451    0.608288   -2.151131
     61          1           0        3.142382    1.008198   -1.366425
     62          6           0        3.268903    0.815700   -3.441692
     63          1           0        2.596255    0.401535   -4.199287
     64          6           0        4.618391    0.038422   -3.468864
     65          6           0        3.468590    2.310487   -3.695549
     66          1           0        2.512610    2.826777   -3.542568
     67          1           0        3.786636    2.489467   -4.733117
     68          8           0        4.980148   -0.634746   -2.514727
     69          8           0        4.457068    2.765476   -2.769803
     70          1           0        4.460170    3.735205   -2.766135
     71          7           0        5.355225    0.195158   -4.604597
     72          1           0        4.988312    0.766706   -5.352895
     73          6           0        6.729112   -0.266684   -4.724271
     74          1           0        6.903157   -0.973035   -3.907843
     75          1           0        6.881299   -0.795619   -5.668685
     76          6           0        7.794048    0.839355   -4.645043
     77          8           0        8.903150    0.657035   -5.126084
     78          7           0        7.411293    1.992731   -4.019957
     79          1           0        6.520742    2.023383   -3.534179
     80          6           0        8.356556    3.060999   -3.753136
     81          1           0        9.221368    2.858133   -4.397862
     82          6           0        8.903793    3.041564   -2.319963
     83          6           0        7.774502    4.446004   -4.087568
     84          1           0        6.838177    4.578959   -3.523219
     85          1           0        8.469100    5.202680   -3.710149
     86          8           0        9.466690    3.978260   -1.797723
     87          6           0        7.512880    4.655140   -5.582525
     88          1           0        8.465972    4.591373   -6.126281
     89          1           0        6.889444    3.834837   -5.964448
     90          6           0        6.832133    5.995638   -5.883180
     91          1           0        7.446270    6.816315   -5.482771
     92          1           0        5.865282    6.056353   -5.364916
     93          6           0        6.589182    6.231834   -7.375466
     94          1           0        7.556995    6.195886   -7.908876
     95          1           0        5.983912    5.408301   -7.777721
     96          7           0        5.836352    7.475039   -7.582335
     97          1           0        5.650378    7.602134   -8.576178
     98          1           0        6.413802    8.269374   -7.306726
     99          8           0        8.719978    1.856051   -1.699635
    100          1           0        9.149713    1.940246   -0.827110
 ---------------------------------------------------------------------

 SCF Done:  E(RB3LYP) =  -2418.42101904     A.U. after    2 cycles

 Alpha  occ. eigenvalues --  -19.27199 -19.26510 -19.24207 -19.24159 -19.21571
 Alpha  occ. eigenvalues --  -19.19924 -19.19852 -19.19056 -19.18292 -19.18252
 Alpha  occ. eigenvalues --  -19.15624 -14.59767 -14.50601 -14.49218 -14.45162
 Alpha  occ. eigenvalues --  -14.43757 -14.43200 -14.43088 -14.40449 -14.35065
 Alpha  occ. eigenvalues --  -10.43960 -10.43907 -10.42233 -10.38619 -10.36908
 Alpha  occ. eigenvalues --  -10.36376 -10.36118 -10.35925 -10.35585 -10.34014
 Alpha  occ. eigenvalues --  -10.33253 -10.32467 -10.31969 -10.30886 -10.30265
 Alpha  occ. eigenvalues --  -10.30182 -10.28947 -10.28308 -10.28023 -10.26728
 Alpha  occ. eigenvalues --  -10.26076 -10.25902 -10.24955 -10.24709 -10.23671
 Alpha  occ. eigenvalues --  -10.23325 -10.22883 -10.22370  -1.19674  -1.18296
 Alpha  occ. eigenvalues --   -1.15025  -1.13976  -1.13412  -1.11930  -1.11491
 Alpha  occ. eigenvalues --   -1.10770  -1.09988  -1.07691  -1.07464  -1.06112
 Alpha  occ. eigenvalues --   -1.05872  -1.05014  -1.01714  -1.00102  -0.99707
 Alpha  occ. eigenvalues --   -0.99270  -0.96864  -0.94738  -0.91763  -0.90520
 Alpha  occ. eigenvalues --   -0.86647  -0.85265  -0.84806  -0.84443  -0.82907
 Alpha  occ. eigenvalues --   -0.81849  -0.80376  -0.79517  -0.77880  -0.77347
 Alpha  occ. eigenvalues --   -0.75150  -0.74479  -0.73425  -0.73206  -0.72953
 Alpha  occ. eigenvalues --   -0.72398  -0.71922  -0.70845  -0.68580  -0.67768
 Alpha  occ. eigenvalues --   -0.67150  -0.66884  -0.66786  -0.66075  -0.65645
 Alpha  occ. eigenvalues --   -0.65286  -0.64553  -0.64310  -0.63957  -0.63689
 Alpha  occ. eigenvalues --   -0.62743  -0.62347  -0.61477  -0.60446  -0.59777
 Alpha  occ. eigenvalues --   -0.59560  -0.58689  -0.58372  -0.57507  -0.56943
 Alpha  occ. eigenvalues --   -0.56802  -0.56015  -0.55485  -0.55241  -0.54672
 Alpha  occ. eigenvalues --   -0.54538  -0.54198  -0.53388  -0.53071  -0.52998
 Alpha  occ. eigenvalues --   -0.52833  -0.52809  -0.52404  -0.52205  -0.51857
 Alpha  occ. eigenvalues --   -0.51413  -0.51302  -0.51276  -0.50629  -0.50395
 Alpha  occ. eigenvalues --   -0.49805  -0.49565  -0.49162  -0.48687  -0.48559
 Alpha  occ. eigenvalues --   -0.48443  -0.47960  -0.47561  -0.47283  -0.47100
 Alpha  occ. eigenvalues --   -0.46934  -0.46459  -0.46296  -0.46109  -0.45557
 Alpha  occ. eigenvalues --   -0.45153  -0.44988  -0.44732  -0.44238  -0.44077
 Alpha  occ. eigenvalues --   -0.44059  -0.43718  -0.43403  -0.43051  -0.42911
 Alpha  occ. eigenvalues --   -0.42668  -0.42187  -0.42139  -0.41440  -0.41103
 Alpha  occ. eigenvalues --   -0.41067  -0.40962  -0.40673  -0.39817  -0.39670
 Alpha  occ. eigenvalues --   -0.39332  -0.38688  -0.38263  -0.37505  -0.37209
 Alpha  occ. eigenvalues --   -0.36711  -0.36006  -0.35719  -0.35399  -0.34566
 Alpha  occ. eigenvalues --   -0.34033  -0.33619  -0.33326  -0.33157  -0.33032
 Alpha  occ. eigenvalues --   -0.31905  -0.31188  -0.29425  -0.28623  -0.27351
 Alpha virt. eigenvalues --   -0.13848  -0.12771  -0.09903  -0.07484  -0.06546
 Alpha virt. eigenvalues --   -0.05792  -0.05168  -0.04900  -0.04542  -0.03624
 Alpha virt. eigenvalues --   -0.02476  -0.02253  -0.02028  -0.01764  -0.00971

 Mulliken charges:
               1
     1  N   -0.772960
     2  H    0.438573
     3  H    0.412372
     4  H    0.415046
     5  C   -0.121646
     6  H    0.232016
     7  C    0.672223
     8  C   -0.375107
     9  H    0.241549
    10  H    0.181293
    11  O   -0.538535
    12  C    0.540368
    13  N   -0.754345
    14  H    0.374443
    15  H    0.358568
    16  O   -0.423537
    17  N   -0.591243
    18  H    0.370541
    19  C   -0.083979
    20  H    0.191110
    21  C    0.642484
    22  C   -0.071407
    23  H    0.143385
    24  O   -0.562807
    25  C   -0.258294
    26  H    0.154590
    27  H    0.120517
    28  C   -0.478311
    29  H    0.159343
    30  H    0.169072
    31  H    0.165927
    32  C   -0.466590
    33  H    0.156362
    34  H    0.158992
    35  H    0.162031
    36  N   -0.608577
    37  H    0.366745
    38  C   -0.052256
    39  H    0.186200
    40  C    0.627281
    41  C   -0.446496
    42  H    0.167233
    43  H    0.180088
    44  H    0.167416
    45  O   -0.543868
    46  N   -0.597379
    47  H    0.353147
    48  C   -0.091816
    49  H    0.168847
    50  C    0.651570
    51  C    0.101028
    52  H    0.172607
    53  O   -0.549005
    54  C   -0.448535
    55  H    0.151576
    56  H    0.178598
    57  H    0.146694
    58  O   -0.645044
    59  H    0.421510
    60  N   -0.573641
    61  H    0.352766
    62  C   -0.099989
    63  H    0.207637
    64  C    0.626087
    65  C   -0.060153
    66  H    0.166988
    67  H    0.140084
    68  O   -0.507557
    69  O   -0.620360
    70  H    0.419767
    71  N   -0.609276
    72  H    0.335360
    73  C   -0.236619
    74  H    0.228215
    75  H    0.191897
    76  C    0.595710
    77  O   -0.504003
    78  N   -0.617988
    79  H    0.361661
    80  C   -0.065167
    81  H    0.218246
    82  C    0.590230
    83  C   -0.265892
    84  H    0.108216
    85  H    0.180739
    86  O   -0.461269
    87  C   -0.260340
    88  H    0.147446
    89  H    0.125711
    90  C   -0.248190
    91  H    0.133706
    92  H    0.129281
    93  C   -0.132844
    94  H    0.121052
    95  H    0.131389
    96  N   -0.719958
    97  H    0.299100
    98  H    0.295310
    99  O   -0.557955
   100  H    0.414998
 Sum of Mulliken charges =   1.00000

 Dipole moment (field-independent basis, Debye):
    X=            -33.2952    Y=             15.5611    Z=              6.2400  Tot=             37.2780
 Quadrupole moment (field-independent basis, Debye-Ang):
   XX=              8.2805   YY=           -238.1014   ZZ=           -209.7844
   XY=            -84.1483   XZ=            -80.2366   YZ=              0.5945

 Normal termination of Gaussian 16 at Fri May 27 02:49:06 2022.
