 Gaussian 16, Revision C.01,
 Gaussian 16:  ES64L-G16RevC.01  3-Jul-2019

 -------------------------------------------------------------------
 # B3LYP/6-31G* guess=read geom=check nosymm integral(ultrafinegrid)
 -------------------------------------------------------------------

 ------------------------------------------------------
 Candidate Structure: Conf:684 Charge calc in gas phase
 ------------------------------------------------------
 Structure from the checkpoint file:  "conf-684.chk"
 Charge =  1 Multiplicity = 1

                          Input orientation:
 ---------------------------------------------------------------------
 Center     Atomic      Atomic             Coordinates (Angstroms)
 Number     Number       Type             X           Y           Z
 ---------------------------------------------------------------------
      1          7           0       -6.860592    4.100713    4.549561
      2          1           0       -7.171064    4.377813    5.485107
      3          1           0       -7.488394    4.521073    3.859803
      4          1           0       -5.846925    4.426461    4.402712
      5          6           0       -6.697578    2.603081    4.400933
      6          1           0       -7.195616    2.099639    5.230242
      7          6           0       -5.149845    2.439476    4.450155
      8          6           0       -7.272825    2.116991    3.058110
      9          1           0       -8.247368    2.588410    2.870926
     10          1           0       -6.594436    2.371758    2.236097
     11          8           0       -4.475382    3.474733    4.325106
     12          6           0       -7.472327    0.593253    3.088006
     13          7           0       -8.011574    0.056924    1.976147
     14          1           0       -8.097314   -0.950718    1.929922
     15          1           0       -8.117960    0.578461    1.117539
     16          8           0       -7.193335   -0.066564    4.089083
     17          7           0       -4.680470    1.203561    4.575055
     18          1           0       -5.386393    0.465483    4.552242
     19          6           0       -3.336794    0.856426    4.098793
     20          1           0       -2.615790    1.511549    4.596744
     21          6           0       -3.321549    1.143525    2.571085
     22          6           0       -3.045887   -0.629118    4.453196
     23          1           0       -3.817900   -1.224129    3.942117
     24          8           0       -4.367642    1.135675    1.915362
     25          6           0       -3.197782   -0.895492    5.972379
     26          1           0       -3.071356   -1.975195    6.120692
     27          1           0       -4.225120   -0.671855    6.286078
     28          6           0       -1.678244   -1.106475    3.935242
     29          1           0       -0.858652   -0.469535    4.289188
     30          1           0       -1.483629   -2.118289    4.305414
     31          1           0       -1.625566   -1.148896    2.844538
     32          6           0       -2.221661   -0.145407    6.887056
     33          1           0       -2.391162   -0.429379    7.930882
     34          1           0       -1.177545   -0.377200    6.652534
     35          1           0       -2.347129    0.942269    6.824812
     36          7           0       -2.110748    1.400384    2.043036
     37          1           0       -1.265933    1.334586    2.603359
     38          6           0       -1.861203    1.486279    0.608202
     39          1           0       -2.658246    0.934141    0.101019
     40          6           0       -0.500080    0.806877    0.383144
     41          6           0       -1.843987    2.941150    0.110182
     42          1           0       -1.664475    2.978843   -0.969401
     43          1           0       -2.807967    3.413132    0.320754
     44          1           0       -1.054974    3.508262    0.613809
     45          8           0        0.364813    0.849429    1.265021
     46          7           0       -0.323861    0.221804   -0.817323
     47          1           0       -1.102930    0.098873   -1.454549
     48          6           0        0.870754   -0.553575   -1.143340
     49          1           0        1.727040   -0.044111   -0.690160
     50          6           0        0.949343   -0.534681   -2.675911
     51          6           0        0.767860   -2.001966   -0.573252
     52          1           0       -0.002179   -2.528977   -1.148001
     53          8           0       -0.051672   -0.843738   -3.332549
     54          6           0        2.091729   -2.756364   -0.671293
     55          1           0        2.403854   -2.924485   -1.705964
     56          1           0        1.981704   -3.734867   -0.196182
     57          1           0        2.890694   -2.211849   -0.151159
     58          8           0        0.276137   -1.977057    0.761998
     59          1           0        0.784298   -1.312552    1.258837
     60          7           0        2.106662   -0.120962   -3.239105
     61          1           0        2.962175   -0.139542   -2.691816
     62          6           0        2.250398    0.056264   -4.686688
     63          1           0        1.252460    0.262196   -5.084261
     64          6           0        2.794946   -1.227838   -5.341294
     65          6           0        3.177483    1.249731   -4.981311
     66          1           0        4.153372    1.072306   -4.502602
     67          1           0        2.740841    2.150325   -4.539059
     68          8           0        3.855137   -1.234448   -5.980755
     69          8           0        3.300598    1.475739   -6.365160
     70          1           0        3.787285    0.703830   -6.706496
     71          7           0        2.059924   -2.343116   -5.129856
     72          1           0        1.209623   -2.259220   -4.581553
     73          6           0        2.596506   -3.674421   -5.411068
     74          1           0        1.778086   -4.394324   -5.401769
     75          1           0        3.064955   -3.663447   -6.398966
     76          6           0        3.599774   -4.065838   -4.309450
     77          8           0        3.281842   -4.779508   -3.365672
     78          7           0        4.836876   -3.501762   -4.459257
     79          1           0        4.913568   -2.763214   -5.155855
     80          6           0        5.798795   -3.503732   -3.376803
     81          1           0        5.632632   -4.417133   -2.796127
     82          6           0        5.543358   -2.331064   -2.422306
     83          6           0        7.251494   -3.486072   -3.902116
     84          1           0        7.395614   -2.589477   -4.522538
     85          1           0        7.924494   -3.384730   -3.044121
     86          8           0        4.743153   -1.429947   -2.590648
     87          6           0        7.618917   -4.741984   -4.701946
     88          1           0        7.471921   -5.621780   -4.060888
     89          1           0        6.932729   -4.850116   -5.552625
     90          6           0        9.068699   -4.711203   -5.203187
     91          1           0        9.750347   -4.639121   -4.345931
     92          1           0        9.222558   -3.812563   -5.817776
     93          6           0        9.462760   -5.940549   -6.030151
     94          1           0        8.843015   -5.974724   -6.945781
     95          1           0       10.500248   -5.816673   -6.361622
     96          7           0        9.400830   -7.168372   -5.226454
     97          1           0        9.879232   -7.922970   -5.714800
     98          1           0        8.434251   -7.473759   -5.128134
     99          8           0        6.332449   -2.403529   -1.333823
    100          1           0        6.134895   -1.624478   -0.780441
 ---------------------------------------------------------------------

 SCF Done:  E(RB3LYP) =  -2418.43853681     A.U. after    1 cycles

 Alpha  occ. eigenvalues --  -19.26965 -19.26800 -19.24751 -19.21673 -19.21250
 Alpha  occ. eigenvalues --  -19.20511 -19.20447 -19.20112 -19.19335 -19.18525
 Alpha  occ. eigenvalues --  -19.17271 -14.60223 -14.48308 -14.48289 -14.45166
 Alpha  occ. eigenvalues --  -14.44777 -14.44305 -14.43279 -14.41106 -14.34566
 Alpha  occ. eigenvalues --  -10.43195 -10.42820 -10.41024 -10.39245 -10.38402
 Alpha  occ. eigenvalues --  -10.37597 -10.37217 -10.36012 -10.35241 -10.34418
 Alpha  occ. eigenvalues --  -10.33717 -10.32348 -10.31214 -10.30693 -10.29856
 Alpha  occ. eigenvalues --  -10.29685 -10.29103 -10.29054 -10.28886 -10.26677
 Alpha  occ. eigenvalues --  -10.26662 -10.25622 -10.25270 -10.24563 -10.24210
 Alpha  occ. eigenvalues --  -10.23321 -10.22782 -10.21782  -1.19427  -1.17856
 Alpha  occ. eigenvalues --   -1.16553  -1.14024  -1.13118  -1.12476  -1.11813
 Alpha  occ. eigenvalues --   -1.10967  -1.09124  -1.08603  -1.08022  -1.06284
 Alpha  occ. eigenvalues --   -1.05636  -1.03350  -1.01691  -1.00930  -1.00609
 Alpha  occ. eigenvalues --   -0.99053  -0.98048  -0.93977  -0.91289  -0.90389
 Alpha  occ. eigenvalues --   -0.86950  -0.85550  -0.84796  -0.83978  -0.82386
 Alpha  occ. eigenvalues --   -0.81671  -0.80677  -0.79227  -0.78293  -0.77618
 Alpha  occ. eigenvalues --   -0.74742  -0.74583  -0.74069  -0.73967  -0.72375
 Alpha  occ. eigenvalues --   -0.71268  -0.70524  -0.70036  -0.68786  -0.68546
 Alpha  occ. eigenvalues --   -0.67939  -0.67116  -0.66984  -0.66437  -0.66400
 Alpha  occ. eigenvalues --   -0.66021  -0.65142  -0.64488  -0.63806  -0.63544
 Alpha  occ. eigenvalues --   -0.62619  -0.61481  -0.61125  -0.60324  -0.59100
 Alpha  occ. eigenvalues --   -0.58771  -0.58296  -0.57836  -0.57613  -0.56445
 Alpha  occ. eigenvalues --   -0.56243  -0.56077  -0.55876  -0.55493  -0.55185
 Alpha  occ. eigenvalues --   -0.54662  -0.54159  -0.54051  -0.53766  -0.53223
 Alpha  occ. eigenvalues --   -0.53112  -0.52723  -0.52644  -0.52372  -0.51885
 Alpha  occ. eigenvalues --   -0.51594  -0.51579  -0.51108  -0.51069  -0.50478
 Alpha  occ. eigenvalues --   -0.49998  -0.49909  -0.49599  -0.49020  -0.48810
 Alpha  occ. eigenvalues --   -0.48160  -0.47883  -0.47613  -0.47051  -0.46806
 Alpha  occ. eigenvalues --   -0.46736  -0.46650  -0.46592  -0.46316  -0.46138
 Alpha  occ. eigenvalues --   -0.45546  -0.45401  -0.45276  -0.44899  -0.44693
 Alpha  occ. eigenvalues --   -0.44282  -0.43979  -0.43625  -0.43300  -0.43250
 Alpha  occ. eigenvalues --   -0.42609  -0.41880  -0.41435  -0.41305  -0.41106
 Alpha  occ. eigenvalues --   -0.40899  -0.40891  -0.39792  -0.39722  -0.39107
 Alpha  occ. eigenvalues --   -0.38846  -0.38739  -0.38691  -0.38037  -0.37397
 Alpha  occ. eigenvalues --   -0.36921  -0.35943  -0.35663  -0.35115  -0.34989
 Alpha  occ. eigenvalues --   -0.34734  -0.33995  -0.33876  -0.33753  -0.32700
 Alpha  occ. eigenvalues --   -0.32065  -0.31593  -0.30877  -0.29769  -0.26834
 Alpha virt. eigenvalues --   -0.12265  -0.11568  -0.10658  -0.07790  -0.07444
 Alpha virt. eigenvalues --   -0.06820  -0.06336  -0.06132  -0.05020  -0.04062
 Alpha virt. eigenvalues --   -0.03477  -0.02836  -0.01255  -0.00352   0.00049

 Mulliken charges:
               1
     1  N   -0.765231
     2  H    0.418230
     3  H    0.410247
     4  H    0.435711
     5  C   -0.109199
     6  H    0.238155
     7  C    0.648301
     8  C   -0.409889
     9  H    0.186970
    10  H    0.241364
    11  O   -0.543863
    12  C    0.652075
    13  N   -0.733720
    14  H    0.374775
    15  H    0.362919
    16  O   -0.518281
    17  N   -0.599699
    18  H    0.398831
    19  C   -0.063389
    20  H    0.185894
    21  C    0.634749
    22  C   -0.112782
    23  H    0.148239
    24  O   -0.571611
    25  C   -0.258952
    26  H    0.157867
    27  H    0.136657
    28  C   -0.486143
    29  H    0.152569
    30  H    0.171375
    31  H    0.181081
    32  C   -0.459718
    33  H    0.164871
    34  H    0.162446
    35  H    0.142991
    36  N   -0.595113
    37  H    0.362534
    38  C   -0.051682
    39  H    0.176864
    40  C    0.644605
    41  C   -0.439363
    42  H    0.165030
    43  H    0.166191
    44  H    0.173514
    45  O   -0.565572
    46  N   -0.600913
    47  H    0.353391
    48  C   -0.079049
    49  H    0.169553
    50  C    0.611445
    51  C    0.151688
    52  H    0.153457
    53  O   -0.556321
    54  C   -0.474060
    55  H    0.174224
    56  H    0.181038
    57  H    0.128118
    58  O   -0.635863
    59  H    0.405855
    60  N   -0.603932
    61  H    0.374879
    62  C   -0.101031
    63  H    0.206633
    64  C    0.649832
    65  C   -0.029964
    66  H    0.137512
    67  H    0.151797
    68  O   -0.566455
    69  O   -0.623377
    70  H    0.418925
    71  N   -0.591985
    72  H    0.367976
    73  C   -0.237893
    74  H    0.189279
    75  H    0.194298
    76  C    0.592430
    77  O   -0.510438
    78  N   -0.585863
    79  H    0.370946
    80  C   -0.059677
    81  H    0.208826
    82  C    0.606400
    83  C   -0.286289
    84  H    0.144839
    85  H    0.172186
    86  O   -0.503639
    87  C   -0.264870
    88  H    0.147015
    89  H    0.140604
    90  C   -0.238524
    91  H    0.146610
    92  H    0.126977
    93  C   -0.145961
    94  H    0.114809
    95  H    0.144487
    96  N   -0.716766
    97  H    0.302408
    98  H    0.296762
    99  O   -0.548376
   100  H    0.415196
 Sum of Mulliken charges =   1.00000

 Dipole moment (field-independent basis, Debye):
    X=            -23.5707    Y=              9.8046    Z=             12.7934  Tot=             28.5549
 Quadrupole moment (field-independent basis, Debye-Ang):
   XX=            -39.9261   YY=           -228.7349   ZZ=           -197.5157
   XY=           -106.3338   XZ=           -121.7016   YZ=             80.3936

 Normal termination of Gaussian 16 at Fri May 27 02:48:58 2022.
