 Gaussian 16, Revision C.01,
 Gaussian 16:  ES64L-G16RevC.01  3-Jul-2019

 -------------------------------------------------------------------
 # B3LYP/6-31G* guess=read geom=check nosymm integral(ultrafinegrid)
 -------------------------------------------------------------------

 -----------------------------------------------------
 Candidate Structure: Conf:95 Charge calc in gas phase
 -----------------------------------------------------
 Structure from the checkpoint file:  "conf-95.chk"
 Charge =  1 Multiplicity = 1

                          Input orientation:
 ---------------------------------------------------------------------
 Center     Atomic      Atomic             Coordinates (Angstroms)
 Number     Number       Type             X           Y           Z
 ---------------------------------------------------------------------
      1          7           0       -8.666427    2.221987    5.154875
      2          1           0       -8.632717    2.362805    6.168324
      3          1           0       -9.630129    1.893144    4.866672
      4          1           0       -8.348305    3.105624    4.704554
      5          6           0       -7.686211    1.176300    4.695030
      6          1           0       -7.566638    0.444956    5.498014
      7          6           0       -6.377689    1.956606    4.403427
      8          6           0       -8.207872    0.499375    3.409618
      9          1           0       -8.209636    1.235387    2.594044
     10          1           0       -7.501888   -0.286250    3.123846
     11          8           0       -6.469585    3.172822    4.216956
     12          6           0       -9.636678   -0.031359    3.553658
     13          7           0       -9.920874   -1.192689    2.945525
     14          1           0      -10.874378   -1.534508    2.972035
     15          1           0       -9.236528   -1.721921    2.424127
     16          8           0      -10.487304    0.615178    4.183332
     17          7           0       -5.271187    1.214921    4.352865
     18          1           0       -5.331534    0.195852    4.370220
     19          6           0       -3.979930    1.649933    3.805246
     20          1           0       -4.131815    2.608186    3.298530
     21          6           0       -3.631271    0.530454    2.794707
     22          6           0       -2.908909    1.812445    4.928609
     23          1           0       -2.829823    0.835039    5.427611
     24          8           0       -4.077117   -0.608673    2.979599
     25          6           0       -3.380205    2.851019    5.970364
     26          1           0       -4.411730    2.622726    6.263742
     27          1           0       -3.409041    3.843029    5.498290
     28          6           0       -1.530602    2.176612    4.352293
     29          1           0       -1.578119    3.106655    3.769820
     30          1           0       -0.814730    2.339788    5.161696
     31          1           0       -1.108277    1.394910    3.716233
     32          6           0       -2.521066    2.904554    7.239709
     33          1           0       -2.956101    3.600286    7.965146
     34          1           0       -2.458163    1.920062    7.719222
     35          1           0       -1.500325    3.243409    7.038610
     36          7           0       -2.861881    0.878309    1.750890
     37          1           0       -2.443513    1.803549    1.692028
     38          6           0       -2.250693   -0.092206    0.844359
     39          1           0       -2.217168   -1.055136    1.362298
     40          6           0       -0.828841    0.435529    0.584370
     41          6           0       -3.041712   -0.236057   -0.465584
     42          1           0       -2.565685   -0.969621   -1.124540
     43          1           0       -4.059052   -0.574668   -0.248317
     44          1           0       -3.090377    0.722830   -0.991241
     45          8           0       -0.615741    1.656207    0.610551
     46          7           0        0.104688   -0.488812    0.321407
     47          1           0       -0.096406   -1.485015    0.343191
     48          6           0        1.503527   -0.173340    0.073354
     49          1           0        1.550391    0.722954   -0.555819
     50          6           0        2.072640   -1.399753   -0.663306
     51          6           0        2.276966    0.104473    1.410639
     52          1           0        2.427237   -0.857911    1.914873
     53          8           0        1.568325   -2.509888   -0.486357
     54          6           0        3.628560    0.781374    1.171579
     55          1           0        4.319388    0.166590    0.585882
     56          1           0        4.095026    0.988947    2.138725
     57          1           0        3.495070    1.739282    0.652034
     58          8           0        1.479265    0.865885    2.306193
     59          1           0        1.078415    1.598432    1.804327
     60          7           0        3.124787   -1.175110   -1.479322
     61          1           0        3.612302   -0.281255   -1.468123
     62          6           0        3.936695   -2.253296   -2.019891
     63          1           0        4.024999   -3.054110   -1.274170
     64          6           0        5.333459   -1.642869   -2.279148
     65          6           0        3.295101   -2.882307   -3.268190
     66          1           0        3.333441   -2.174072   -4.108427
     67          1           0        2.245780   -3.105250   -3.040559
     68          8           0        5.595229   -0.497816   -1.896309
     69          8           0        4.023117   -4.076718   -3.545984
     70          1           0        3.822859   -4.370487   -4.447023
     71          7           0        6.207786   -2.434650   -2.922600
     72          1           0        5.889291   -3.312121   -3.335438
     73          6           0        7.531506   -1.974678   -3.277856
     74          1           0        7.485758   -0.955096   -3.681120
     75          1           0        8.184636   -1.932493   -2.395353
     76          6           0        8.115720   -2.931959   -4.323015
     77          8           0        7.443356   -3.834690   -4.813691
     78          7           0        9.405959   -2.676629   -4.661330
     79          1           0        9.954440   -2.042690   -4.089575
     80          6           0       10.188632   -3.576001   -5.498668
     81          1           0        9.687618   -4.549452   -5.508148
     82          6           0       11.556341   -3.723558   -4.842672
     83          6           0       10.350519   -3.079556   -6.956305
     84          1           0       10.852548   -2.102187   -6.939711
     85          1           0       11.022599   -3.774378   -7.473886
     86          8           0       11.979402   -2.997727   -3.967220
     87          6           0        9.026641   -2.975485   -7.721873
     88          1           0        8.526063   -3.951636   -7.699835
     89          1           0        8.360260   -2.268940   -7.208951
     90          6           0        9.232001   -2.526922   -9.175210
     91          1           0        9.863067   -3.256546   -9.698663
     92          1           0        9.767622   -1.566783   -9.187672
     93          6           0        7.926761   -2.365687   -9.962215
     94          1           0        7.315831   -1.573431   -9.488631
     95          1           0        8.169211   -2.010280  -10.970668
     96          7           0        7.226840   -3.648550  -10.105844
     97          1           0        6.467101   -3.552609  -10.777096
     98          1           0        6.788220   -3.907297   -9.223837
     99          8           0       12.264082   -4.736321   -5.375591
    100          1           0       13.134135   -4.739259   -4.932291
 ---------------------------------------------------------------------

 SCF Done:  E(RB3LYP) =  -2418.45001735     A.U. after    3 cycles

 Alpha  occ. eigenvalues --  -19.27074 -19.25843 -19.25434 -19.21782 -19.21606
 Alpha  occ. eigenvalues --  -19.19923 -19.19920 -19.19606 -19.18816 -19.17647
 Alpha  occ. eigenvalues --  -19.17516 -14.57852 -14.50428 -14.48841 -14.45304
 Alpha  occ. eigenvalues --  -14.43887 -14.42602 -14.41511 -14.41075 -14.34431
 Alpha  occ. eigenvalues --  -10.44669 -10.42983 -10.41020 -10.38685 -10.37818
 Alpha  occ. eigenvalues --  -10.37045 -10.36148 -10.35933 -10.34833 -10.34614
 Alpha  occ. eigenvalues --  -10.33820 -10.32057 -10.30431 -10.30322 -10.30040
 Alpha  occ. eigenvalues --  -10.29635 -10.29110 -10.28627 -10.28583 -10.26497
 Alpha  occ. eigenvalues --  -10.26396 -10.25228 -10.24780 -10.24026 -10.23684
 Alpha  occ. eigenvalues --  -10.23046 -10.22131 -10.21396  -1.19003  -1.17957
 Alpha  occ. eigenvalues --   -1.16450  -1.13592  -1.12427  -1.11956  -1.10768
 Alpha  occ. eigenvalues --   -1.09781  -1.09150  -1.08649  -1.07490  -1.07230
 Alpha  occ. eigenvalues --   -1.05520  -1.05377  -1.01793  -1.00217  -0.99173
 Alpha  occ. eigenvalues --   -0.98277  -0.97686  -0.94218  -0.91140  -0.90236
 Alpha  occ. eigenvalues --   -0.86600  -0.85134  -0.84745  -0.84083  -0.82101
 Alpha  occ. eigenvalues --   -0.81490  -0.80390  -0.78798  -0.77808  -0.77102
 Alpha  occ. eigenvalues --   -0.75006  -0.74125  -0.73515  -0.73195  -0.72352
 Alpha  occ. eigenvalues --   -0.71486  -0.71090  -0.70283  -0.68301  -0.68196
 Alpha  occ. eigenvalues --   -0.67850  -0.67061  -0.66445  -0.66270  -0.65923
 Alpha  occ. eigenvalues --   -0.65013  -0.64840  -0.63895  -0.63692  -0.63338
 Alpha  occ. eigenvalues --   -0.62888  -0.61400  -0.60905  -0.59721  -0.58814
 Alpha  occ. eigenvalues --   -0.58555  -0.58194  -0.57578  -0.57171  -0.56888
 Alpha  occ. eigenvalues --   -0.55825  -0.55668  -0.55429  -0.54869  -0.54802
 Alpha  occ. eigenvalues --   -0.54575  -0.53897  -0.53466  -0.53246  -0.52717
 Alpha  occ. eigenvalues --   -0.52655  -0.52566  -0.52446  -0.52220  -0.52017
 Alpha  occ. eigenvalues --   -0.51455  -0.50786  -0.50720  -0.50578  -0.50469
 Alpha  occ. eigenvalues --   -0.50397  -0.49733  -0.49549  -0.49349  -0.48881
 Alpha  occ. eigenvalues --   -0.48543  -0.48071  -0.47448  -0.47254  -0.46821
 Alpha  occ. eigenvalues --   -0.46648  -0.46332  -0.46097  -0.45453  -0.45298
 Alpha  occ. eigenvalues --   -0.45023  -0.44927  -0.44692  -0.44261  -0.44118
 Alpha  occ. eigenvalues --   -0.43970  -0.43702  -0.42997  -0.42734  -0.42487
 Alpha  occ. eigenvalues --   -0.42202  -0.41972  -0.41665  -0.41327  -0.41005
 Alpha  occ. eigenvalues --   -0.40979  -0.40602  -0.40203  -0.40100  -0.39955
 Alpha  occ. eigenvalues --   -0.39103  -0.38292  -0.37665  -0.37447  -0.36828
 Alpha  occ. eigenvalues --   -0.36545  -0.35714  -0.35237  -0.34697  -0.34161
 Alpha  occ. eigenvalues --   -0.33489  -0.33373  -0.33028  -0.32619  -0.32090
 Alpha  occ. eigenvalues --   -0.31658  -0.31433  -0.31020  -0.30469  -0.26656
 Alpha virt. eigenvalues --   -0.12763  -0.11604  -0.09169  -0.07660  -0.05995
 Alpha virt. eigenvalues --   -0.05039  -0.04734  -0.04710  -0.04228  -0.03634
 Alpha virt. eigenvalues --   -0.02772  -0.02197  -0.01041   0.00307   0.00614

 Mulliken charges:
               1
     1  N   -0.754516
     2  H    0.409845
     3  H    0.443580
     4  H    0.417519
     5  C   -0.125727
     6  H    0.217417
     7  C    0.642875
     8  C   -0.404433
     9  H    0.228140
    10  H    0.210045
    11  O   -0.525077
    12  C    0.646212
    13  N   -0.725720
    14  H    0.382729
    15  H    0.372611
    16  O   -0.534289
    17  N   -0.590601
    18  H    0.361448
    19  C   -0.089089
    20  H    0.185787
    21  C    0.626229
    22  C   -0.068244
    23  H    0.140758
    24  O   -0.557662
    25  C   -0.251108
    26  H    0.120599
    27  H    0.148149
    28  C   -0.487764
    29  H    0.148608
    30  H    0.177659
    31  H    0.179177
    32  C   -0.453891
    33  H    0.155956
    34  H    0.149234
    35  H    0.164155
    36  N   -0.599252
    37  H    0.365033
    38  C   -0.055470
    39  H    0.186759
    40  C    0.645763
    41  C   -0.441652
    42  H    0.168533
    43  H    0.164013
    44  H    0.171228
    45  O   -0.574211
    46  N   -0.601167
    47  H    0.359789
    48  C   -0.095134
    49  H    0.173418
    50  C    0.612807
    51  C    0.160984
    52  H    0.149668
    53  O   -0.538324
    54  C   -0.481024
    55  H    0.167785
    56  H    0.174588
    57  H    0.145833
    58  O   -0.639307
    59  H    0.411004
    60  N   -0.623874
    61  H    0.366946
    62  C   -0.051299
    63  H    0.204397
    64  C    0.596810
    65  C   -0.041465
    66  H    0.139243
    67  H    0.167896
    68  O   -0.546878
    69  O   -0.617713
    70  H    0.415095
    71  N   -0.621600
    72  H    0.391269
    73  C   -0.197678
    74  H    0.198850
    75  H    0.186457
    76  C    0.598489
    77  O   -0.524386
    78  N   -0.605884
    79  H    0.350354
    80  C   -0.048946
    81  H    0.202034
    82  C    0.582477
    83  C   -0.263416
    84  H    0.142474
    85  H    0.166568
    86  O   -0.468116
    87  C   -0.265422
    88  H    0.153602
    89  H    0.134510
    90  C   -0.240720
    91  H    0.148080
    92  H    0.126142
    93  C   -0.142924
    94  H    0.108696
    95  H    0.143062
    96  N   -0.715979
    97  H    0.298362
    98  H    0.296887
    99  O   -0.557043
   100  H    0.422371
 Sum of Mulliken charges =   1.00000

 Dipole moment (field-independent basis, Debye):
    X=            -24.9670    Y=              1.0727    Z=             10.5839  Tot=             27.1389
 Quadrupole moment (field-independent basis, Debye-Ang):
   XX=             59.7894   YY=           -274.5012   ZZ=           -164.9952
   XY=            -33.9345   XZ=           -170.0057   YZ=             31.8529

 Normal termination of Gaussian 16 at Fri May 27 02:49:22 2022.
