 Gaussian 16, Revision C.01,
 Gaussian 16:  ES64L-G16RevC.01  3-Jul-2019

 -------------------------------------------------------------------
 # B3LYP/6-31G* guess=read geom=check nosymm integral(ultrafinegrid)
 -------------------------------------------------------------------

 ------------------------------------------------------
 Candidate Structure: Conf:586 Charge calc in gas phase
 ------------------------------------------------------
 Structure from the checkpoint file:  "conf-586.chk"
 Charge =  1 Multiplicity = 1

                          Input orientation:
 ---------------------------------------------------------------------
 Center     Atomic      Atomic             Coordinates (Angstroms)
 Number     Number       Type             X           Y           Z
 ---------------------------------------------------------------------
      1          7           0       -5.258867    5.452925   -0.652123
      2          1           0       -5.481465    5.948070    0.215754
      3          1           0       -6.050512    5.562557   -1.346120
      4          1           0       -4.332226    5.796505   -0.982596
      5          6           0       -5.064398    3.976474   -0.429379
      6          1           0       -5.703309    3.670101    0.402355
      7          6           0       -3.553653    3.824434   -0.106025
      8          6           0       -5.429816    3.203795   -1.714553
      9          1           0       -4.694027    3.440168   -2.495227
     10          1           0       -5.340394    2.133362   -1.507810
     11          8           0       -2.801347    4.732593   -0.476237
     12          6           0       -6.814293    3.566597   -2.260200
     13          7           0       -7.536104    2.573812   -2.801327
     14          1           0       -8.427876    2.798243   -3.226956
     15          1           0       -7.211990    1.618205   -2.845132
     16          8           0       -7.219594    4.738026   -2.223493
     17          7           0       -3.203058    2.700854    0.511310
     18          1           0       -3.871345    1.960099    0.738346
     19          6           0       -1.824907    2.286527    0.790540
     20          1           0       -1.209504    2.547815   -0.075448
     21          6           0       -1.931306    0.748898    0.925160
     22          6           0       -1.260870    3.011334    2.053533
     23          1           0       -1.462207    4.074668    1.863905
     24          8           0       -3.041907    0.222505    1.072592
     25          6           0        0.267616    2.873629    2.225529
     26          1           0        0.535493    1.838218    2.470994
     27          1           0        0.532933    3.459323    3.114771
     28          6           0       -2.000833    2.595791    3.333191
     29          1           0       -1.800408    1.550178    3.593687
     30          1           0       -1.672304    3.213604    4.175200
     31          1           0       -3.085945    2.713624    3.238773
     32          6           0        1.113842    3.369221    1.045613
     33          1           0        2.175434    3.364167    1.311055
     34          1           0        1.011121    2.740496    0.152257
     35          1           0        0.842677    4.393062    0.761622
     36          7           0       -0.781083    0.062726    0.871059
     37          1           0        0.124400    0.525069    0.824374
     38          6           0       -0.688110   -1.369928    1.126975
     39          1           0       -1.392494   -1.623445    1.927256
     40          6           0        0.757361   -1.607367    1.610061
     41          6           0       -1.024630   -2.203859   -0.121380
     42          1           0       -0.972230   -3.275797    0.094720
     43          1           0       -2.041415   -1.971598   -0.449012
     44          1           0       -0.326760   -1.981170   -0.934884
     45          8           0        1.608246   -0.716958    1.506595
     46          7           0        1.010723   -2.820262    2.132983
     47          1           0        0.314083   -3.558938    2.154053
     48          6           0        2.328811   -3.224978    2.617982
     49          1           0        2.812500   -2.346057    3.054077
     50          6           0        3.172666   -3.766603    1.442354
     51          6           0        2.127228   -4.337173    3.675519
     52          1           0        3.117735   -4.756570    3.902265
     53          8           0        3.176166   -4.970905    1.159488
     54          6           0        1.488484   -3.833044    4.962365
     55          1           0        2.128840   -3.091568    5.452195
     56          1           0        1.340056   -4.672943    5.646781
     57          1           0        0.512231   -3.376155    4.768657
     58          8           0        1.281174   -5.340464    3.121425
     59          1           0        1.792871   -5.694681    2.363949
     60          7           0        3.878971   -2.843200    0.760765
     61          1           0        3.833085   -1.857919    1.008792
     62          6           0        4.762101   -3.181089   -0.339473
     63          1           0        5.281527   -4.116394   -0.106191
     64          6           0        5.756703   -2.031904   -0.501546
     65          6           0        3.978204   -3.401186   -1.669947
     66          1           0        3.395515   -2.494731   -1.888287
     67          1           0        3.284477   -4.229495   -1.501461
     68          8           0        5.554047   -0.923981   -0.014261
     69          8           0        4.828088   -3.756089   -2.741050
     70          1           0        5.144536   -2.931551   -3.167663
     71          7           0        6.853401   -2.343972   -1.257041
     72          1           0        6.775993   -3.210147   -1.781496
     73          6           0        7.630314   -1.286968   -1.859555
     74          1           0        7.636870   -0.439126   -1.168812
     75          1           0        8.665448   -1.617558   -2.001743
     76          6           0        7.038747   -0.842647   -3.212234
     77          8           0        6.024020   -1.355357   -3.695041
     78          7           0        7.720429    0.142353   -3.831549
     79          1           0        8.563322    0.534079   -3.424705
     80          6           0        7.359129    0.654792   -5.148379
     81          1           0        7.061633   -0.186645   -5.782947
     82          6           0        8.624155    1.287812   -5.713857
     83          6           0        6.178729    1.659400   -5.067319
     84          1           0        5.413168    1.165549   -4.458628
     85          1           0        6.508980    2.546429   -4.510846
     86          8           0        9.570327    1.632678   -5.036929
     87          6           0        5.570488    2.065097   -6.415727
     88          1           0        6.319790    2.586259   -7.020981
     89          1           0        5.289409    1.158458   -6.972178
     90          6           0        4.337566    2.963326   -6.244517
     91          1           0        4.625657    3.883249   -5.719358
     92          1           0        3.596734    2.447907   -5.616259
     93          6           0        3.669775    3.352635   -7.568489
     94          1           0        3.298788    2.437870   -8.068266
     95          1           0        2.787725    3.965599   -7.346690
     96          7           0        4.567159    4.162008   -8.402532
     97          1           0        4.043861    4.570590   -9.174720
     98          1           0        5.272491    3.567005   -8.833499
     99          8           0        8.574271    1.441389   -7.049105
    100          1           0        9.405896    1.880924   -7.313745
 ---------------------------------------------------------------------

 SCF Done:  E(RB3LYP) =  -2418.46241201     A.U. after    2 cycles

 Alpha  occ. eigenvalues --  -19.27278 -19.26942 -19.25912 -19.21923 -19.21324
 Alpha  occ. eigenvalues --  -19.20436 -19.19474 -19.19356 -19.18841 -19.18320
 Alpha  occ. eigenvalues --  -19.18169 -14.57934 -14.50618 -14.48938 -14.45373
 Alpha  occ. eigenvalues --  -14.44304 -14.43077 -14.42252 -14.42037 -14.35856
 Alpha  occ. eigenvalues --  -10.44877 -10.43078 -10.41184 -10.39296 -10.38932
 Alpha  occ. eigenvalues --  -10.37383 -10.36378 -10.36180 -10.35282 -10.34931
 Alpha  occ. eigenvalues --  -10.34004 -10.32409 -10.30715 -10.30074 -10.30015
 Alpha  occ. eigenvalues --  -10.29600 -10.28916 -10.28841 -10.28727 -10.26620
 Alpha  occ. eigenvalues --  -10.26433 -10.26133 -10.25591 -10.25221 -10.25015
 Alpha  occ. eigenvalues --  -10.23633 -10.23373 -10.23029  -1.19191  -1.18052
 Alpha  occ. eigenvalues --   -1.17938  -1.13908  -1.12526  -1.12201  -1.11112
 Alpha  occ. eigenvalues --   -1.10362  -1.09673  -1.08935  -1.07062  -1.06339
 Alpha  occ. eigenvalues --   -1.05600  -1.05533  -1.02009  -1.00476  -0.99699
 Alpha  occ. eigenvalues --   -0.98772  -0.98430  -0.94375  -0.92606  -0.90541
 Alpha  occ. eigenvalues --   -0.86680  -0.86418  -0.84811  -0.83718  -0.82537
 Alpha  occ. eigenvalues --   -0.81623  -0.81364  -0.79868  -0.78351  -0.76883
 Alpha  occ. eigenvalues --   -0.75228  -0.74935  -0.74394  -0.73333  -0.72819
 Alpha  occ. eigenvalues --   -0.71267  -0.70756  -0.70425  -0.69693  -0.68776
 Alpha  occ. eigenvalues --   -0.68433  -0.67779  -0.66814  -0.66263  -0.65661
 Alpha  occ. eigenvalues --   -0.65415  -0.64801  -0.64611  -0.63669  -0.63611
 Alpha  occ. eigenvalues --   -0.62616  -0.62535  -0.61375  -0.59998  -0.58951
 Alpha  occ. eigenvalues --   -0.58741  -0.58238  -0.57707  -0.57530  -0.57122
 Alpha  occ. eigenvalues --   -0.57004  -0.56268  -0.56012  -0.55416  -0.54996
 Alpha  occ. eigenvalues --   -0.54871  -0.54791  -0.54337  -0.53757  -0.53712
 Alpha  occ. eigenvalues --   -0.53280  -0.52947  -0.52621  -0.52390  -0.52152
 Alpha  occ. eigenvalues --   -0.51968  -0.51418  -0.51361  -0.51181  -0.50658
 Alpha  occ. eigenvalues --   -0.50430  -0.50327  -0.49994  -0.49326  -0.48784
 Alpha  occ. eigenvalues --   -0.48639  -0.48565  -0.48133  -0.48043  -0.47795
 Alpha  occ. eigenvalues --   -0.47262  -0.46813  -0.46693  -0.46368  -0.46086
 Alpha  occ. eigenvalues --   -0.45236  -0.45038  -0.44824  -0.44715  -0.44398
 Alpha  occ. eigenvalues --   -0.44142  -0.43856  -0.43506  -0.43374  -0.42719
 Alpha  occ. eigenvalues --   -0.42395  -0.42380  -0.42020  -0.41980  -0.41801
 Alpha  occ. eigenvalues --   -0.41440  -0.41359  -0.41077  -0.39961  -0.39492
 Alpha  occ. eigenvalues --   -0.39096  -0.38930  -0.38277  -0.38016  -0.37984
 Alpha  occ. eigenvalues --   -0.37620  -0.36115  -0.35849  -0.35197  -0.34834
 Alpha  occ. eigenvalues --   -0.34588  -0.34215  -0.33628  -0.32957  -0.32542
 Alpha  occ. eigenvalues --   -0.32374  -0.31371  -0.30711  -0.30123  -0.28134
 Alpha virt. eigenvalues --   -0.12953  -0.11766  -0.09303  -0.07666  -0.06379
 Alpha virt. eigenvalues --   -0.06286  -0.05258  -0.04575  -0.04456  -0.04383
 Alpha virt. eigenvalues --   -0.03753  -0.02216  -0.01251  -0.00451   0.00387

 Mulliken charges:
               1
     1  N   -0.755506
     2  H    0.409300
     3  H    0.443911
     4  H    0.417356
     5  C   -0.122035
     6  H    0.216285
     7  C    0.649341
     8  C   -0.400467
     9  H    0.228595
    10  H    0.205243
    11  O   -0.533419
    12  C    0.646116
    13  N   -0.725587
    14  H    0.383222
    15  H    0.371901
    16  O   -0.533863
    17  N   -0.612656
    18  H    0.367533
    19  C   -0.071272
    20  H    0.190571
    21  C    0.628772
    22  C   -0.078755
    23  H    0.153206
    24  O   -0.559193
    25  C   -0.283454
    26  H    0.157926
    27  H    0.156280
    28  C   -0.461695
    29  H    0.163858
    30  H    0.166657
    31  H    0.136098
    32  C   -0.461496
    33  H    0.175627
    34  H    0.140056
    35  H    0.156216
    36  N   -0.622535
    37  H    0.380364
    38  C   -0.050306
    39  H    0.188842
    40  C    0.628806
    41  C   -0.449132
    42  H    0.166487
    43  H    0.178532
    44  H    0.167669
    45  O   -0.547452
    46  N   -0.603857
    47  H    0.354469
    48  C   -0.078374
    49  H    0.178207
    50  C    0.641368
    51  C    0.112824
    52  H    0.148864
    53  O   -0.550707
    54  C   -0.449884
    55  H    0.149742
    56  H    0.177000
    57  H    0.143906
    58  O   -0.651774
    59  H    0.424757
    60  N   -0.619282
    61  H    0.372312
    62  C   -0.062504
    63  H    0.191382
    64  C    0.588609
    65  C   -0.040509
    66  H    0.133197
    67  H    0.174629
    68  O   -0.526124
    69  O   -0.651386
    70  H    0.439498
    71  N   -0.575100
    72  H    0.347269
    73  C   -0.257464
    74  H    0.217782
    75  H    0.189406
    76  C    0.628984
    77  O   -0.545462
    78  N   -0.611853
    79  H    0.358955
    80  C   -0.025056
    81  H    0.194860
    82  C    0.582868
    83  C   -0.270406
    84  H    0.172903
    85  H    0.149499
    86  O   -0.464526
    87  C   -0.274894
    88  H    0.156878
    89  H    0.135822
    90  C   -0.237860
    91  H    0.145330
    92  H    0.121212
    93  C   -0.143309
    94  H    0.114669
    95  H    0.135058
    96  N   -0.716664
    97  H    0.301038
    98  H    0.299379
    99  O   -0.555675
   100  H    0.424047
 Sum of Mulliken charges =   1.00000

 Dipole moment (field-independent basis, Debye):
    X=            -15.1046    Y=             15.1910    Z=             -7.4355  Tot=             22.6760
 Quadrupole moment (field-independent basis, Debye-Ang):
   XX=            -91.5409   YY=           -238.0259   ZZ=           -213.2192
   XY=            -74.9101   XZ=             -7.5855   YZ=            -15.7778

 Normal termination of Gaussian 16 at Fri May 27 02:49:10 2022.
