 Gaussian 16, Revision C.01,
 Gaussian 16:  ES64L-G16RevC.01  3-Jul-2019

 -------------------------------------------------------------------
 # B3LYP/6-31G* guess=read geom=check nosymm integral(ultrafinegrid)
 -------------------------------------------------------------------

 ------------------------------------------------------
 Candidate Structure: Conf:883 Charge calc in gas phase
 ------------------------------------------------------
 Structure from the checkpoint file:  "conf-883.chk"
 Charge =  1 Multiplicity = 1

                          Input orientation:
 ---------------------------------------------------------------------
 Center     Atomic      Atomic             Coordinates (Angstroms)
 Number     Number       Type             X           Y           Z
 ---------------------------------------------------------------------
      1          7           0       -7.917651    3.417386    5.259837
      2          1           0       -8.244210    2.870368    6.061998
      3          1           0       -8.633226    4.108722    5.019622
      4          1           0       -6.985337    3.884657    5.518287
      5          6           0       -7.477154    2.560659    4.088190
      6          1           0       -7.903961    1.562954    4.206301
      7          6           0       -5.926571    2.544389    4.271581
      8          6           0       -7.934153    3.215569    2.765933
      9          1           0       -9.021693    3.108566    2.665440
     10          1           0       -7.679621    4.279510    2.771052
     11          8           0       -5.448704    3.422540    5.010541
     12          6           0       -7.184052    2.610031    1.562620
     13          7           0       -7.582667    1.350780    1.210659
     14          1           0       -7.071894    0.907000    0.455304
     15          1           0       -8.518299    1.013623    1.392664
     16          8           0       -6.227708    3.183118    1.077674
     17          7           0       -5.262770    1.598647    3.629897
     18          1           0       -5.727818    0.966174    2.970786
     19          6           0       -3.803641    1.565878    3.468365
     20          1           0       -3.448120    2.599480    3.445813
     21          6           0       -3.608990    0.904228    2.083737
     22          6           0       -3.119590    0.808763    4.648236
     23          1           0       -3.520756    1.293461    5.549761
     24          8           0       -4.526799    0.239209    1.586069
     25          6           0       -1.586204    0.984830    4.689073
     26          1           0       -1.124546    0.495300    3.822237
     27          1           0       -1.230962    0.424093    5.562651
     28          6           0       -3.506139   -0.677008    4.681836
     29          1           0       -3.096460   -1.220154    3.822876
     30          1           0       -3.111372   -1.146960    5.588345
     31          1           0       -4.592400   -0.819759    4.679733
     32          6           0       -1.089960    2.432075    4.803599
     33          1           0       -0.007001    2.451655    4.960181
     34          1           0       -1.288487    3.026378    3.902884
     35          1           0       -1.559492    2.949412    5.648793
     36          7           0       -2.418876    1.094338    1.499407
     37          1           0       -1.665168    1.601255    1.956856
     38          6           0       -2.022895    0.454390    0.251149
     39          1           0       -2.442994   -0.557250    0.237185
     40          6           0       -0.485411    0.379675    0.294615
     41          6           0       -2.525489    1.232748   -0.977670
     42          1           0       -2.253960    0.717131   -1.904504
     43          1           0       -3.614375    1.319449   -0.933185
     44          1           0       -2.093512    2.238281   -0.999196
     45          8           0        0.149799    1.074203    1.100452
     46          7           0        0.086675   -0.437927   -0.602207
     47          1           0       -0.460420   -1.018989   -1.230529
     48          6           0        1.526534   -0.603817   -0.730631
     49          1           0        1.997611    0.375736   -0.588319
     50          6           0        1.755708   -1.123377   -2.159469
     51          6           0        2.096481   -1.595905    0.343839
     52          1           0        1.804940   -2.611393    0.048610
     53          8           0        0.882648   -1.780238   -2.727874
     54          6           0        3.619826   -1.508926    0.465238
     55          1           0        4.139372   -1.791435   -0.456091
     56          1           0        3.949474   -2.183215    1.260523
     57          1           0        3.931232   -0.492328    0.738506
     58          8           0        1.471064   -1.386500    1.598075
     59          1           0        1.462971   -0.429101    1.776835
     60          7           0        2.946572   -0.820757   -2.725896
     61          1           0        3.695437   -0.404171   -2.178051
     62          6           0        3.402123   -1.445811   -3.955202
     63          1           0        3.091701   -2.499140   -3.967919
     64          6           0        4.945158   -1.369792   -3.933363
     65          6           0        2.767330   -0.782377   -5.190171
     66          1           0        3.141514    0.245704   -5.300600
     67          1           0        1.683083   -0.753969   -5.036407
     68          8           0        5.535930   -0.953846   -2.935573
     69          8           0        3.101207   -1.589512   -6.321571
     70          1           0        2.722091   -1.185870   -7.116766
     71          7           0        5.576218   -1.798583   -5.053030
     72          1           0        4.991097   -1.959779   -5.869651
     73          6           0        7.018085   -1.634908   -5.200587
     74          1           0        7.260291   -1.690824   -6.265999
     75          1           0        7.329060   -0.653448   -4.833824
     76          6           0        7.892863   -2.660765   -4.461425
     77          8           0        9.069442   -2.398557   -4.241817
     78          7           0        7.287823   -3.829507   -4.125138
     79          1           0        6.315416   -3.958221   -4.368434
     80          6           0        7.972790   -4.886937   -3.400299
     81          1           0        9.033968   -4.629996   -3.412661
     82          6           0        7.838234   -6.242933   -4.081645
     83          6           0        7.488401   -5.025244   -1.930437
     84          1           0        6.448566   -5.382695   -1.942109
     85          1           0        8.087280   -5.815822   -1.463061
     86          8           0        8.543081   -7.194524   -3.842577
     87          6           0        7.569949   -3.723557   -1.119470
     88          1           0        6.997250   -2.949107   -1.644501
     89          1           0        7.053230   -3.888099   -0.163477
     90          6           0        8.990649   -3.213398   -0.838166
     91          1           0        9.595076   -3.242977   -1.753436
     92          1           0        9.480486   -3.881171   -0.114389
     93          6           0        9.022213   -1.764763   -0.306022
     94          1           0        8.384577   -1.681577    0.585426
     95          1           0       10.043017   -1.537892    0.026917
     96          7           0        8.620161   -0.714217   -1.245795
     97          1           0        7.642690   -0.821816   -1.513033
     98          1           0        9.150874   -0.817587   -2.111106
     99          8           0        6.790120   -6.300256   -4.944864
    100          1           0        6.773572   -7.214798   -5.286192
 ---------------------------------------------------------------------

 SCF Done:  E(RB3LYP) =  -2418.42294279     A.U. after    2 cycles

 Alpha  occ. eigenvalues --  -19.27315 -19.24800 -19.23980 -19.23973 -19.21764
 Alpha  occ. eigenvalues --  -19.20550 -19.20095 -19.19874 -19.19871 -19.18544
 Alpha  occ. eigenvalues --  -19.16147 -14.60971 -14.49356 -14.48140 -14.45334
 Alpha  occ. eigenvalues --  -14.44349 -14.43910 -14.43526 -14.41205 -14.32209
 Alpha  occ. eigenvalues --  -10.43954 -10.42402 -10.42118 -10.38831 -10.37579
 Alpha  occ. eigenvalues --  -10.36992 -10.36828 -10.36764 -10.35685 -10.33969
 Alpha  occ. eigenvalues --  -10.33945 -10.32354 -10.31778 -10.31497 -10.31085
 Alpha  occ. eigenvalues --  -10.30792 -10.29050 -10.28941 -10.28384 -10.26457
 Alpha  occ. eigenvalues --  -10.26422 -10.25988 -10.25269 -10.23615 -10.23459
 Alpha  occ. eigenvalues --  -10.22408 -10.21678 -10.20202  -1.19849  -1.16008
 Alpha  occ. eigenvalues --   -1.15402  -1.14640  -1.13679  -1.12629  -1.12144
 Alpha  occ. eigenvalues --   -1.11330  -1.10774  -1.08201  -1.07668  -1.06322
 Alpha  occ. eigenvalues --   -1.06178  -1.02958  -1.01963  -1.00807  -1.00429
 Alpha  occ. eigenvalues --   -0.99899  -0.97526  -0.94541  -0.90578  -0.89156
 Alpha  occ. eigenvalues --   -0.87019  -0.85498  -0.84633  -0.84096  -0.82824
 Alpha  occ. eigenvalues --   -0.81935  -0.79981  -0.79762  -0.78037  -0.77521
 Alpha  occ. eigenvalues --   -0.75168  -0.74807  -0.74547  -0.73040  -0.72760
 Alpha  occ. eigenvalues --   -0.72491  -0.70997  -0.70484  -0.69015  -0.67745
 Alpha  occ. eigenvalues --   -0.67357  -0.67047  -0.66766  -0.66426  -0.66140
 Alpha  occ. eigenvalues --   -0.65768  -0.65454  -0.64636  -0.64003  -0.63715
 Alpha  occ. eigenvalues --   -0.63497  -0.61817  -0.60550  -0.60220  -0.59510
 Alpha  occ. eigenvalues --   -0.59303  -0.58620  -0.57895  -0.57546  -0.57373
 Alpha  occ. eigenvalues --   -0.56503  -0.56111  -0.55625  -0.55101  -0.54747
 Alpha  occ. eigenvalues --   -0.54659  -0.53777  -0.53482  -0.52905  -0.52823
 Alpha  occ. eigenvalues --   -0.52727  -0.52459  -0.52153  -0.51721  -0.51349
 Alpha  occ. eigenvalues --   -0.51152  -0.50950  -0.50755  -0.50581  -0.50373
 Alpha  occ. eigenvalues --   -0.50337  -0.50026  -0.49604  -0.49247  -0.49072
 Alpha  occ. eigenvalues --   -0.48754  -0.48085  -0.47972  -0.47817  -0.47470
 Alpha  occ. eigenvalues --   -0.46739  -0.46623  -0.46523  -0.46086  -0.45332
 Alpha  occ. eigenvalues --   -0.45204  -0.45062  -0.44715  -0.44656  -0.44283
 Alpha  occ. eigenvalues --   -0.44171  -0.43321  -0.43195  -0.43030  -0.42965
 Alpha  occ. eigenvalues --   -0.42673  -0.42328  -0.42227  -0.41558  -0.41331
 Alpha  occ. eigenvalues --   -0.40770  -0.40726  -0.39613  -0.39509  -0.39007
 Alpha  occ. eigenvalues --   -0.38451  -0.37579  -0.37268  -0.36550  -0.36458
 Alpha  occ. eigenvalues --   -0.36002  -0.35838  -0.35210  -0.35007  -0.34933
 Alpha  occ. eigenvalues --   -0.34607  -0.34167  -0.33860  -0.33565  -0.33344
 Alpha  occ. eigenvalues --   -0.33246  -0.31981  -0.29765  -0.29513  -0.24594
 Alpha virt. eigenvalues --   -0.13106  -0.12048  -0.11354  -0.07675  -0.07007
 Alpha virt. eigenvalues --   -0.06624  -0.05961  -0.05335  -0.04900  -0.03745
 Alpha virt. eigenvalues --   -0.03075  -0.02537  -0.01742  -0.01182  -0.00549

 Mulliken charges:
               1
     1  N   -0.757119
     2  H    0.417800
     3  H    0.415191
     4  H    0.437908
     5  C   -0.112242
     6  H    0.217846
     7  C    0.655938
     8  C   -0.380571
     9  H    0.185687
    10  H    0.212068
    11  O   -0.545773
    12  C    0.568162
    13  N   -0.734069
    14  H    0.381787
    15  H    0.347874
    16  O   -0.451352
    17  N   -0.599484
    18  H    0.388777
    19  C   -0.078755
    20  H    0.197545
    21  C    0.651396
    22  C   -0.076325
    23  H    0.147699
    24  O   -0.571218
    25  C   -0.280703
    26  H    0.156711
    27  H    0.158059
    28  C   -0.462306
    29  H    0.169239
    30  H    0.166671
    31  H    0.135350
    32  C   -0.462136
    33  H    0.172892
    34  H    0.142301
    35  H    0.155584
    36  N   -0.619136
    37  H    0.377066
    38  C   -0.053284
    39  H    0.187700
    40  C    0.647872
    41  C   -0.445095
    42  H    0.162388
    43  H    0.180971
    44  H    0.169875
    45  O   -0.571684
    46  N   -0.603076
    47  H    0.359313
    48  C   -0.093543
    49  H    0.175033
    50  C    0.613640
    51  C    0.162113
    52  H    0.148387
    53  O   -0.537501
    54  C   -0.481338
    55  H    0.158030
    56  H    0.178667
    57  H    0.150824
    58  O   -0.633249
    59  H    0.409325
    60  N   -0.625005
    61  H    0.370350
    62  C   -0.053419
    63  H    0.202460
    64  C    0.594400
    65  C   -0.044973
    66  H    0.147166
    67  H    0.177580
    68  O   -0.522874
    69  O   -0.630007
    70  H    0.418063
    71  N   -0.624145
    72  H    0.377546
    73  C   -0.231762
    74  H    0.190256
    75  H    0.209502
    76  C    0.620811
    77  O   -0.516396
    78  N   -0.588638
    79  H    0.338583
    80  C   -0.060599
    81  H    0.218778
    82  C    0.590809
    83  C   -0.270664
    84  H    0.127820
    85  H    0.170815
    86  O   -0.451085
    87  C   -0.272895
    88  H    0.140496
    89  H    0.131691
    90  C   -0.272027
    91  H    0.156733
    92  H    0.124693
    93  C   -0.142583
    94  H    0.125513
    95  H    0.141304
    96  N   -0.736353
    97  H    0.310208
    98  H    0.307764
    99  O   -0.580631
   100  H    0.416984
 Sum of Mulliken charges =   1.00000

 Dipole moment (field-independent basis, Debye):
    X=            -34.3733    Y=              8.5327    Z=              9.9896  Tot=             36.7984
 Quadrupole moment (field-independent basis, Debye-Ang):
   XX=            -63.4607   YY=           -256.8860   ZZ=           -130.7591
   XY=            -84.9058   XZ=           -162.5136   YZ=             61.2902

 Normal termination of Gaussian 16 at Fri May 27 02:49:19 2022.
