 Gaussian 16, Revision C.01,
 Gaussian 16:  ES64L-G16RevC.01  3-Jul-2019

 -------------------------------------------------------------------
 # B3LYP/6-31G* guess=read geom=check nosymm integral(ultrafinegrid)
 -------------------------------------------------------------------

 ------------------------------------------------------
 Candidate Structure: Conf:746 Charge calc in gas phase
 ------------------------------------------------------
 Structure from the checkpoint file:  "conf-746.chk"
 Charge =  1 Multiplicity = 1

                          Input orientation:
 ---------------------------------------------------------------------
 Center     Atomic      Atomic             Coordinates (Angstroms)
 Number     Number       Type             X           Y           Z
 ---------------------------------------------------------------------
      1          7           0       -7.564679    1.003071    5.501297
      2          1           0       -7.467704    0.556423    6.416974
      3          1           0       -8.558546    1.043168    5.262650
      4          1           0       -7.132639    1.996695    5.527608
      5          6           0       -6.699598    0.366165    4.433915
      6          1           0       -6.214918   -0.517822    4.850867
      7          6           0       -5.642182    1.488782    4.171067
      8          6           0       -7.532252   -0.042449    3.208370
      9          1           0       -8.472715   -0.508817    3.532529
     10          1           0       -7.793191    0.830502    2.597403
     11          8           0       -5.841810    2.578425    4.746122
     12          6           0       -6.750060   -1.070168    2.369359
     13          7           0       -7.382025   -1.535198    1.272874
     14          1           0       -6.897142   -2.206129    0.689982
     15          1           0       -8.302385   -1.231604    0.989109
     16          8           0       -5.630383   -1.434239    2.715429
     17          7           0       -4.631931    1.206225    3.370302
     18          1           0       -4.553022    0.277363    2.945806
     19          6           0       -3.569039    2.165377    3.042635
     20          1           0       -4.023329    3.159015    3.011700
     21          6           0       -3.067530    1.753176    1.651350
     22          6           0       -2.447427    2.151290    4.134910
     23          1           0       -2.988832    2.345565    5.072348
     24          8           0       -3.182243    0.583065    1.272852
     25          6           0       -1.414045    3.284721    3.960827
     26          1           0       -0.825255    3.110062    3.052138
     27          1           0       -0.702779    3.184966    4.790186
     28          6           0       -1.749388    0.786478    4.242679
     29          1           0       -1.153773    0.551312    3.355150
     30          1           0       -1.072053    0.790655    5.103285
     31          1           0       -2.461718   -0.032367    4.392338
     32          6           0       -1.980764    4.710910    3.984106
     33          1           0       -1.169454    5.445842    3.981585
     34          1           0       -2.617702    4.942016    3.119022
     35          1           0       -2.585768    4.886336    4.881805
     36          7           0       -2.509002    2.720055    0.890562
     37          1           0       -2.310901    3.617782    1.314037
     38          6           0       -1.753309    2.370574   -0.317196
     39          1           0       -2.437032    1.835856   -0.984819
     40          6           0       -0.590017    1.445529    0.102602
     41          6           0       -1.227821    3.637026   -0.998424
     42          1           0       -0.764588    3.377738   -1.955069
     43          1           0       -2.048505    4.333767   -1.199646
     44          1           0       -0.465866    4.132017   -0.386084
     45          8           0        0.148347    1.761098    1.037091
     46          7           0       -0.463206    0.304766   -0.607351
     47          1           0       -1.101068    0.097157   -1.366713
     48          6           0        0.516394   -0.732599   -0.292424
     49          1           0        1.233198   -0.284696    0.399317
     50          6           0        1.148621   -1.145402   -1.628987
     51          6           0       -0.185166   -1.931435    0.404050
     52          1           0       -0.847916   -2.395061   -0.342840
     53          8           0        0.436413   -1.608246   -2.520851
     54          6           0        0.821578   -2.962832    0.897702
     55          1           0        1.415844   -3.366792    0.071883
     56          1           0        0.293724   -3.789653    1.381173
     57          1           0        1.497605   -2.514072    1.634194
     58          8           0       -0.928663   -1.493627    1.531318
     59          1           0       -1.659782   -0.925696    1.230576
     60          7           0        2.477501   -0.927300   -1.738932
     61          1           0        2.996920   -0.480459   -0.988257
     62          6           0        3.258373   -1.128542   -2.947066
     63          1           0        3.202106   -2.173410   -3.274568
     64          6           0        4.698627   -0.747733   -2.593805
     65          6           0        2.747607   -0.228500   -4.122106
     66          1           0        2.716334    0.810782   -3.768764
     67          1           0        1.731356   -0.551735   -4.354630
     68          8           0        4.971622   -0.151119   -1.551611
     69          8           0        3.536562   -0.359432   -5.289366
     70          1           0        4.215029    0.348938   -5.261096
     71          7           0        5.632024   -1.051664   -3.541924
     72          1           0        5.237157   -1.297412   -4.446618
     73          6           0        6.849164   -0.258602   -3.566897
     74          1           0        7.345488   -0.329329   -2.596326
     75          1           0        7.519968   -0.669816   -4.327910
     76          6           0        6.521898    1.207168   -3.918235
     77          8           0        5.581025    1.487622   -4.668077
     78          7           0        7.320832    2.143904   -3.363764
     79          1           0        8.051075    1.859895   -2.724383
     80          6           0        7.094807    3.574914   -3.544152
     81          1           0        6.494240    3.684078   -4.449946
     82          6           0        8.395834    4.334434   -3.768625
     83          6           0        6.332426    4.221161   -2.356076
     84          1           0        6.969713    4.185467   -1.460878
     85          1           0        6.192526    5.280446   -2.602529
     86          8           0        8.455846    5.444284   -4.240053
     87          6           0        4.987145    3.547305   -2.060285
     88          1           0        4.381899    3.525639   -2.976124
     89          1           0        5.162864    2.500763   -1.783135
     90          6           0        4.193344    4.231246   -0.938075
     91          1           0        3.824184    5.211867   -1.265124
     92          1           0        4.854129    4.417156   -0.077053
     93          6           0        3.011050    3.375232   -0.476499
     94          1           0        2.383958    3.130200   -1.345675
     95          1           0        3.406068    2.413652   -0.100793
     96          7           0        2.167896    4.082800    0.496841
     97          1           0        2.752652    4.398031    1.271770
     98          1           0        1.511279    3.411897    0.896803
     99          8           0        9.481976    3.658206   -3.315555
    100          1           0       10.251865    4.240513   -3.462208
 ---------------------------------------------------------------------

 SCF Done:  E(RB3LYP) =  -2418.44145325     A.U. after    3 cycles

 Alpha  occ. eigenvalues --  -19.27342 -19.25890 -19.25181 -19.22243 -19.19653
 Alpha  occ. eigenvalues --  -19.19232 -19.19228 -19.18990 -19.18937 -19.18917
 Alpha  occ. eigenvalues --  -19.17427 -14.60233 -14.49278 -14.48992 -14.46105
 Alpha  occ. eigenvalues --  -14.43993 -14.43278 -14.42112 -14.42105 -14.34842
 Alpha  occ. eigenvalues --  -10.43840 -10.43370 -10.41608 -10.39163 -10.37957
 Alpha  occ. eigenvalues --  -10.36521 -10.36470 -10.36064 -10.35323 -10.34825
 Alpha  occ. eigenvalues --  -10.34049 -10.32219 -10.29874 -10.29825 -10.29479
 Alpha  occ. eigenvalues --  -10.29183 -10.29153 -10.28586 -10.28451 -10.26113
 Alpha  occ. eigenvalues --  -10.25970 -10.25620 -10.24737 -10.24573 -10.24555
 Alpha  occ. eigenvalues --  -10.22804 -10.22788 -10.22487  -1.19782  -1.17139
 Alpha  occ. eigenvalues --   -1.16517  -1.14356  -1.13848  -1.11265  -1.11108
 Alpha  occ. eigenvalues --   -1.10195  -1.09204  -1.07487  -1.06842  -1.06378
 Alpha  occ. eigenvalues --   -1.06050  -1.03982  -1.02313  -0.99811  -0.99621
 Alpha  occ. eigenvalues --   -0.98906  -0.98337  -0.94574  -0.91662  -0.90317
 Alpha  occ. eigenvalues --   -0.86336  -0.85769  -0.84848  -0.83889  -0.82255
 Alpha  occ. eigenvalues --   -0.81974  -0.80942  -0.79514  -0.78000  -0.76744
 Alpha  occ. eigenvalues --   -0.74969  -0.74410  -0.74154  -0.73185  -0.72619
 Alpha  occ. eigenvalues --   -0.71170  -0.70722  -0.70108  -0.69285  -0.67908
 Alpha  occ. eigenvalues --   -0.67308  -0.67028  -0.66485  -0.66321  -0.65665
 Alpha  occ. eigenvalues --   -0.65425  -0.65131  -0.64319  -0.64172  -0.63155
 Alpha  occ. eigenvalues --   -0.62944  -0.62340  -0.60834  -0.59988  -0.59656
 Alpha  occ. eigenvalues --   -0.58913  -0.58470  -0.57967  -0.57398  -0.57278
 Alpha  occ. eigenvalues --   -0.56856  -0.56389  -0.56072  -0.55795  -0.54708
 Alpha  occ. eigenvalues --   -0.54546  -0.54237  -0.53789  -0.53275  -0.52923
 Alpha  occ. eigenvalues --   -0.52797  -0.52546  -0.52167  -0.51764  -0.51588
 Alpha  occ. eigenvalues --   -0.51139  -0.50811  -0.50540  -0.50422  -0.50160
 Alpha  occ. eigenvalues --   -0.49864  -0.49421  -0.49192  -0.49018  -0.48779
 Alpha  occ. eigenvalues --   -0.48195  -0.48012  -0.47476  -0.47324  -0.47070
 Alpha  occ. eigenvalues --   -0.46571  -0.46314  -0.45984  -0.45803  -0.44943
 Alpha  occ. eigenvalues --   -0.44896  -0.44727  -0.44587  -0.44507  -0.44362
 Alpha  occ. eigenvalues --   -0.44139  -0.43574  -0.43363  -0.43097  -0.42699
 Alpha  occ. eigenvalues --   -0.42219  -0.42113  -0.41847  -0.41477  -0.41238
 Alpha  occ. eigenvalues --   -0.40328  -0.40288  -0.40064  -0.39297  -0.38613
 Alpha  occ. eigenvalues --   -0.38424  -0.38135  -0.37990  -0.37878  -0.37422
 Alpha  occ. eigenvalues --   -0.37150  -0.36376  -0.35851  -0.34740  -0.34526
 Alpha  occ. eigenvalues --   -0.34088  -0.33607  -0.33278  -0.32943  -0.32184
 Alpha  occ. eigenvalues --   -0.31852  -0.30990  -0.30411  -0.29748  -0.27490
 Alpha virt. eigenvalues --   -0.12501  -0.11914  -0.11216  -0.08514  -0.07242
 Alpha virt. eigenvalues --   -0.05937  -0.05433  -0.04954  -0.04906  -0.04304
 Alpha virt. eigenvalues --   -0.03585  -0.03390  -0.02156  -0.01668  -0.00293

 Mulliken charges:
               1
     1  N   -0.773021
     2  H    0.418349
     3  H    0.408816
     4  H    0.440512
     5  C   -0.090472
     6  H    0.247360
     7  C    0.633813
     8  C   -0.411771
     9  H    0.194446
    10  H    0.213057
    11  O   -0.554306
    12  C    0.637367
    13  N   -0.740214
    14  H    0.380659
    15  H    0.361075
    16  O   -0.493491
    17  N   -0.611524
    18  H    0.421014
    19  C   -0.083790
    20  H    0.187164
    21  C    0.651287
    22  C   -0.077369
    23  H    0.141631
    24  O   -0.558589
    25  C   -0.293268
    26  H    0.177258
    27  H    0.157695
    28  C   -0.479712
    29  H    0.203339
    30  H    0.159228
    31  H    0.138026
    32  C   -0.466339
    33  H    0.173107
    34  H    0.126642
    35  H    0.157851
    36  N   -0.599554
    37  H    0.356740
    38  C   -0.039004
    39  H    0.163091
    40  C    0.636535
    41  C   -0.501979
    42  H    0.179522
    43  H    0.165069
    44  H    0.208309
    45  O   -0.537510
    46  N   -0.608381
    47  H    0.348602
    48  C   -0.063649
    49  H    0.180412
    50  C    0.633955
    51  C    0.133695
    52  H    0.134357
    53  O   -0.547366
    54  C   -0.458841
    55  H    0.158008
    56  H    0.166989
    57  H    0.156966
    58  O   -0.649283
    59  H    0.425659
    60  N   -0.639221
    61  H    0.363597
    62  C   -0.043830
    63  H    0.187482
    64  C    0.591605
    65  C   -0.054226
    66  H    0.141253
    67  H    0.189921
    68  O   -0.536062
    69  O   -0.650412
    70  H    0.439221
    71  N   -0.572120
    72  H    0.353077
    73  C   -0.252224
    74  H    0.191756
    75  H    0.197284
    76  C    0.645855
    77  O   -0.550419
    78  N   -0.590506
    79  H    0.350943
    80  C   -0.064921
    81  H    0.214376
    82  C    0.593334
    83  C   -0.269465
    84  H    0.140300
    85  H    0.172400
    86  O   -0.447535
    87  C   -0.283779
    88  H    0.148093
    89  H    0.164027
    90  C   -0.259775
    91  H    0.148605
    92  H    0.125044
    93  C   -0.131704
    94  H    0.125081
    95  H    0.122055
    96  N   -0.760660
    97  H    0.287863
    98  H    0.332700
    99  O   -0.579896
   100  H    0.422711
 Sum of Mulliken charges =   1.00000

 Dipole moment (field-independent basis, Debye):
    X=            -25.3395    Y=              4.0548    Z=             16.4191  Tot=             30.4650
 Quadrupole moment (field-independent basis, Debye-Ang):
   XX=             59.6277   YY=           -282.2330   ZZ=           -199.5274
   XY=             -8.0677   XZ=           -147.3957   YZ=             20.3808

 Normal termination of Gaussian 16 at Fri May 27 02:49:41 2022.
