 Gaussian 16, Revision C.01,
 Gaussian 16:  ES64L-G16RevC.01  3-Jul-2019

 -------------------------------------------------------------------
 # B3LYP/6-31G* guess=read geom=check nosymm integral(ultrafinegrid)
 -------------------------------------------------------------------

 -----------------------------------------------------
 Candidate Structure: Conf:34 Charge calc in gas phase
 -----------------------------------------------------
 Structure from the checkpoint file:  "conf-34.chk"
 Charge =  1 Multiplicity = 1

                          Input orientation:
 ---------------------------------------------------------------------
 Center     Atomic      Atomic             Coordinates (Angstroms)
 Number     Number       Type             X           Y           Z
 ---------------------------------------------------------------------
      1          7           0       -6.800579   -0.615291    5.057379
      2          1           0       -7.309924   -0.234887    5.859656
      3          1           0       -6.608695   -1.659418    5.190533
      4          1           0       -7.340868   -0.386868    4.204711
      5          6           0       -5.445216    0.013480    4.881833
      6          1           0       -5.033904    0.199087    5.877668
      7          6           0       -5.652195    1.298092    4.050367
      8          6           0       -4.552551   -0.943383    4.072596
      9          1           0       -4.909683   -0.967928    3.036107
     10          1           0       -3.548102   -0.524825    4.017889
     11          8           0       -6.642223    1.371450    3.329539
     12          6           0       -4.516411   -2.373727    4.597197
     13          7           0       -3.413569   -3.053011    4.270314
     14          1           0       -3.355948   -4.035786    4.507003
     15          1           0       -2.692782   -2.621970    3.683612
     16          8           0       -5.472270   -2.853450    5.237451
     17          7           0       -4.665999    2.218622    4.144108
     18          1           0       -3.860556    1.939978    4.694325
     19          6           0       -4.314583    3.097258    3.020876
     20          1           0       -5.236873    3.560930    2.655165
     21          6           0       -3.742243    2.176500    1.904634
     22          6           0       -3.350749    4.200164    3.561419
     23          1           0       -2.570251    3.674522    4.135294
     24          8           0       -3.496255    0.990959    2.149806
     25          6           0       -4.127335    5.124249    4.529034
     26          1           0       -4.767444    4.511046    5.174587
     27          1           0       -4.805481    5.756453    3.938022
     28          6           0       -2.630763    5.000343    2.465798
     29          1           0       -3.344695    5.500427    1.795681
     30          1           0       -2.027772    5.789152    2.922779
     31          1           0       -1.952434    4.375011    1.879732
     32          6           0       -3.238095    6.005885    5.413307
     33          1           0       -3.851879    6.591825    6.105152
     34          1           0       -2.548103    5.400432    6.013761
     35          1           0       -2.640120    6.714224    4.831325
     36          7           0       -3.554824    2.695243    0.675408
     37          1           0       -3.678162    3.688018    0.530932
     38          6           0       -2.839937    1.937293   -0.356502
     39          1           0       -3.500056    1.137896   -0.713744
     40          6           0       -1.572199    1.312512    0.278358
     41          6           0       -2.464278    2.864479   -1.514791
     42          1           0       -1.986567    2.293748   -2.316401
     43          1           0       -3.354557    3.346811   -1.932647
     44          1           0       -1.761003    3.632132   -1.176533
     45          8           0       -0.823240    1.972171    0.985560
     46          7           0       -1.404348   -0.013718    0.006302
     47          1           0       -1.917942   -0.445797   -0.755403
     48          6           0       -0.283671   -0.803213    0.496502
     49          1           0        0.379932   -0.128365    1.043448
     50          6           0        0.389124   -1.438245   -0.734932
     51          6           0       -0.812009   -1.921792    1.446876
     52          1           0       -1.361282   -2.639702    0.817785
     53          8           0       -0.311458   -1.820840   -1.667201
     54          6           0        0.299974   -2.635390    2.204485
     55          1           0        1.027270   -3.100586    1.533030
     56          1           0       -0.121780   -3.423523    2.837420
     57          1           0        0.827720   -1.928271    2.853994
     58          8           0       -1.705436   -1.368432    2.422989
     59          1           0       -2.245356   -0.676161    1.991583
     60          7           0        1.747674   -1.517878   -0.707430
     61          1           0        2.214656   -1.420342    0.190568
     62          6           0        2.499646   -2.329470   -1.659156
     63          1           0        1.778399   -2.789131   -2.340555
     64          6           0        3.278507   -3.386397   -0.856165
     65          6           0        3.462206   -1.438485   -2.479947
     66          1           0        3.988397   -2.049906   -3.218616
     67          1           0        4.217399   -1.008311   -1.801762
     68          8           0        3.434541   -3.268136    0.361996
     69          8           0        2.772583   -0.443977   -3.201660
     70          1           0        2.311728    0.111550   -2.552685
     71          7           0        3.807994   -4.393427   -1.576518
     72          1           0        3.622516   -4.522576   -2.568318
     73          6           0        4.605553   -5.443204   -0.981976
     74          1           0        5.506899   -5.030162   -0.511741
     75          1           0        4.043996   -5.961703   -0.193230
     76          6           0        4.978570   -6.425943   -2.100667
     77          8           0        4.547180   -6.274245   -3.240902
     78          7           0        5.801712   -7.435292   -1.725625
     79          1           0        6.058345   -7.527889   -0.751334
     80          6           0        6.179103   -8.521599   -2.623703
     81          1           0        5.539615   -8.433835   -3.505851
     82          6           0        5.907447   -9.890494   -2.007699
     83          6           0        7.660245   -8.454845   -3.068828
     84          1           0        8.302604   -8.505130   -2.178215
     85          1           0        7.863940   -9.357298   -3.657083
     86          8           0        5.867059  -10.918643   -2.638822
     87          6           0        7.997048   -7.205351   -3.890014
     88          1           0        7.346900   -7.168324   -4.774869
     89          1           0        7.767233   -6.306150   -3.302969
     90          6           0        9.468965   -7.168287   -4.319439
     91          1           0        9.704363   -8.076091   -4.895321
     92          1           0       10.124364   -7.182803   -3.439159
     93          6           0        9.819173   -5.937526   -5.159610
     94          1           0        9.161192   -5.907936   -6.048556
     95          1           0        9.598258   -5.031206   -4.580275
     96          7           0       11.251896   -5.923477   -5.472465
     97          1           0       11.486428   -5.073703   -5.983031
     98          1           0       11.471679   -6.695726   -6.101049
     99          8           0        5.777826   -9.844539   -0.655996
    100          1           0        5.660450  -10.767626   -0.360355
 ---------------------------------------------------------------------

 SCF Done:  E(RB3LYP) =  -2418.44767090     A.U. after    3 cycles

 Alpha  occ. eigenvalues --  -19.26329 -19.25899 -19.25148 -19.24197 -19.23367
 Alpha  occ. eigenvalues --  -19.20910 -19.20692 -19.20300 -19.20030 -19.19220
 Alpha  occ. eigenvalues --  -19.19156 -14.57182 -14.49046 -14.47277 -14.47221
 Alpha  occ. eigenvalues --  -14.45247 -14.44417 -14.43429 -14.43412 -14.34599
 Alpha  occ. eigenvalues --  -10.42866 -10.42225 -10.40203 -10.39964 -10.38304
 Alpha  occ. eigenvalues --  -10.38097 -10.37492 -10.36532 -10.36284 -10.35109
 Alpha  occ. eigenvalues --  -10.33714 -10.33308 -10.33280 -10.32093 -10.30504
 Alpha  occ. eigenvalues --  -10.30481 -10.30454 -10.30335 -10.30143 -10.28068
 Alpha  occ. eigenvalues --  -10.27384 -10.26940 -10.25886 -10.25655 -10.24628
 Alpha  occ. eigenvalues --  -10.24394 -10.23116 -10.22084  -1.18208  -1.16917
 Alpha  occ. eigenvalues --   -1.16480  -1.15403  -1.12945  -1.12109  -1.11777
 Alpha  occ. eigenvalues --   -1.11419  -1.11073  -1.10623  -1.08562  -1.07871
 Alpha  occ. eigenvalues --   -1.05854  -1.03432  -1.02829  -1.01415  -1.00597
 Alpha  occ. eigenvalues --   -1.00059  -0.99621  -0.93168  -0.91369  -0.90908
 Alpha  occ. eigenvalues --   -0.88189  -0.86394  -0.86037  -0.84099  -0.83950
 Alpha  occ. eigenvalues --   -0.81621  -0.81552  -0.79907  -0.79612  -0.78385
 Alpha  occ. eigenvalues --   -0.75168  -0.74158  -0.73133  -0.72985  -0.72328
 Alpha  occ. eigenvalues --   -0.71790  -0.71406  -0.70132  -0.69690  -0.68822
 Alpha  occ. eigenvalues --   -0.68099  -0.67868  -0.67321  -0.66594  -0.66185
 Alpha  occ. eigenvalues --   -0.65867  -0.65584  -0.65408  -0.64448  -0.63264
 Alpha  occ. eigenvalues --   -0.62659  -0.62468  -0.61930  -0.61279  -0.60173
 Alpha  occ. eigenvalues --   -0.59943  -0.59398  -0.58720  -0.58253  -0.57815
 Alpha  occ. eigenvalues --   -0.57039  -0.56480  -0.56107  -0.55707  -0.55197
 Alpha  occ. eigenvalues --   -0.55036  -0.54924  -0.54355  -0.53922  -0.53847
 Alpha  occ. eigenvalues --   -0.53752  -0.53064  -0.52919  -0.52810  -0.52452
 Alpha  occ. eigenvalues --   -0.52137  -0.51973  -0.51189  -0.50991  -0.50766
 Alpha  occ. eigenvalues --   -0.50642  -0.50604  -0.50346  -0.49980  -0.49332
 Alpha  occ. eigenvalues --   -0.48818  -0.48675  -0.48571  -0.48349  -0.48092
 Alpha  occ. eigenvalues --   -0.47641  -0.47538  -0.47245  -0.47007  -0.46891
 Alpha  occ. eigenvalues --   -0.46696  -0.46595  -0.46329  -0.46161  -0.45713
 Alpha  occ. eigenvalues --   -0.45399  -0.45263  -0.44925  -0.44797  -0.44243
 Alpha  occ. eigenvalues --   -0.42955  -0.42885  -0.42302  -0.42230  -0.41933
 Alpha  occ. eigenvalues --   -0.41496  -0.40314  -0.40199  -0.40071  -0.39413
 Alpha  occ. eigenvalues --   -0.39122  -0.38780  -0.38711  -0.38041  -0.37587
 Alpha  occ. eigenvalues --   -0.37515  -0.37257  -0.37089  -0.36889  -0.35965
 Alpha  occ. eigenvalues --   -0.35184  -0.34907  -0.34440  -0.34272  -0.33387
 Alpha  occ. eigenvalues --   -0.33277  -0.32927  -0.32014  -0.31328  -0.26834
 Alpha virt. eigenvalues --   -0.12155  -0.10408  -0.09407  -0.08176  -0.07112
 Alpha virt. eigenvalues --   -0.06546  -0.05513  -0.05245  -0.04995  -0.04283
 Alpha virt. eigenvalues --   -0.02334  -0.02128  -0.01115  -0.00488   0.00066

 Mulliken charges:
               1
     1  N   -0.752384
     2  H    0.406458
     3  H    0.444529
     4  H    0.411576
     5  C   -0.137519
     6  H    0.208278
     7  C    0.650141
     8  C   -0.400065
     9  H    0.225482
    10  H    0.227981
    11  O   -0.510960
    12  C    0.635126
    13  N   -0.757315
    14  H    0.365131
    15  H    0.411653
    16  O   -0.555015
    17  N   -0.574907
    18  H    0.343597
    19  C   -0.098957
    20  H    0.200032
    21  C    0.660565
    22  C   -0.084790
    23  H    0.137286
    24  O   -0.562905
    25  C   -0.259600
    26  H    0.145073
    27  H    0.147481
    28  C   -0.507919
    29  H    0.140842
    30  H    0.180596
    31  H    0.193436
    32  C   -0.454774
    33  H    0.165323
    34  H    0.147745
    35  H    0.162097
    36  N   -0.599321
    37  H    0.350887
    38  C   -0.017072
    39  H    0.166004
    40  C    0.625015
    41  C   -0.496282
    42  H    0.186777
    43  H    0.173919
    44  H    0.187298
    45  O   -0.516176
    46  N   -0.633520
    47  H    0.353161
    48  C   -0.085245
    49  H    0.189431
    50  C    0.607186
    51  C    0.149445
    52  H    0.138528
    53  O   -0.517741
    54  C   -0.479195
    55  H    0.187095
    56  H    0.149289
    57  H    0.165587
    58  O   -0.694204
    59  H    0.453183
    60  N   -0.608027
    61  H    0.354378
    62  C   -0.107952
    63  H    0.203594
    64  C    0.626720
    65  C   -0.021571
    66  H    0.164632
    67  H    0.136602
    68  O   -0.543733
    69  O   -0.598325
    70  H    0.397642
    71  N   -0.618701
    72  H    0.366912
    73  C   -0.195668
    74  H    0.193931
    75  H    0.193157
    76  C    0.607632
    77  O   -0.519897
    78  N   -0.605734
    79  H    0.348135
    80  C   -0.065871
    81  H    0.215115
    82  C    0.591509
    83  C   -0.267278
    84  H    0.141037
    85  H    0.174320
    86  O   -0.445255
    87  C   -0.262229
    88  H    0.149094
    89  H    0.134521
    90  C   -0.251191
    91  H    0.131168
    92  H    0.149329
    93  C   -0.133382
    94  H    0.115498
    95  H    0.135326
    96  N   -0.715908
    97  H    0.299164
    98  H    0.295085
    99  O   -0.583033
   100  H    0.421886
 Sum of Mulliken charges =   1.00000

 Dipole moment (field-independent basis, Debye):
    X=            -14.5166    Y=             -1.7207    Z=             16.0473  Tot=             21.7074
 Quadrupole moment (field-independent basis, Debye-Ang):
   XX=           -140.3733   YY=           -208.5241   ZZ=           -196.3325
   XY=            -53.7967   XZ=           -101.4413   YZ=             -2.9367

 Normal termination of Gaussian 16 at Fri May 27 02:49:30 2022.
