 Gaussian 16, Revision C.01,
 Gaussian 16:  ES64L-G16RevC.01  3-Jul-2019

 -------------------------------------------------------------------
 # B3LYP/6-31G* guess=read geom=check nosymm integral(ultrafinegrid)
 -------------------------------------------------------------------

 ------------------------------------------------------
 Candidate Structure: Conf:578 Charge calc in gas phase
 ------------------------------------------------------
 Structure from the checkpoint file:  "conf-578.chk"
 Charge =  1 Multiplicity = 1

                          Input orientation:
 ---------------------------------------------------------------------
 Center     Atomic      Atomic             Coordinates (Angstroms)
 Number     Number       Type             X           Y           Z
 ---------------------------------------------------------------------
      1          7           0       -7.594750    4.280964    3.159261
      2          1           0       -7.733031    4.133954    4.162890
      3          1           0       -8.523282    4.474086    2.688070
      4          1           0       -6.880629    5.030498    3.045567
      5          6           0       -6.999872    3.073255    2.484734
      6          1           0       -7.352252    2.181938    3.009450
      7          6           0       -5.465654    3.270622    2.606894
      8          6           0       -7.429420    3.043260    1.002381
      9          1           0       -6.957941    3.884651    0.476485
     10          1           0       -7.037787    2.127350    0.550374
     11          8           0       -5.055582    4.422261    2.786401
     12          6           0       -8.944249    3.169815    0.812909
     13          7           0       -9.494265    2.465093   -0.187040
     14          1           0      -10.482614    2.582651   -0.377232
     15          1           0       -8.958656    1.861828   -0.794837
     16          8           0       -9.611159    3.920111    1.541142
     17          7           0       -4.723882    2.175942    2.464010
     18          1           0       -5.124010    1.255662    2.267857
     19          6           0       -3.259942    2.160376    2.392594
     20          1           0       -2.941656    3.025801    1.803723
     21          6           0       -2.948114    0.851464    1.630540
     22          6           0       -2.619709    2.248764    3.813753
     23          1           0       -3.110715    3.115829    4.276445
     24          8           0       -3.818399   -0.021236    1.527215
     25          6           0       -1.105996    2.552078    3.795587
     26          1           0       -0.553765    1.701380    3.375804
     27          1           0       -0.788088    2.614983    4.843856
     28          6           0       -2.924677    1.005234    4.661147
     29          1           0       -2.420546    0.114980    4.267983
     30          1           0       -2.576305    1.155132    5.688158
     31          1           0       -3.997697    0.788683    4.703106
     32          6           0       -0.699050    3.849311    3.084231
     33          1           0        0.364508    4.053211    3.242687
     34          1           0       -0.854549    3.810828    1.998607
     35          1           0       -1.264632    4.707410    3.465999
     36          7           0       -1.713302    0.738986    1.118168
     37          1           0       -1.022163    1.477317    1.212227
     38          6           0       -1.236030   -0.448173    0.418128
     39          1           0       -1.584829   -1.333704    0.959670
     40          6           0        0.297719   -0.364490    0.438194
     41          6           0       -1.737992   -0.502611   -1.039653
     42          1           0       -1.422573   -1.433288   -1.522578
     43          1           0       -2.830360   -0.467597   -1.046174
     44          1           0       -1.339499    0.338404   -1.616983
     45          8           0        0.857188    0.732000    0.611692
     46          7           0        0.956467   -1.511011    0.205108
     47          1           0        0.454004   -2.363945   -0.030589
     48          6           0        2.388601   -1.584176   -0.114193
     49          1           0        2.943611   -0.966703    0.597753
     50          6           0        2.561689   -1.044702   -1.547060
     51          6           0        2.832303   -3.061757   -0.031960
     52          1           0        3.835688   -3.116433   -0.474895
     53          8           0        2.517461   -1.790038   -2.536144
     54          6           0        2.868960   -3.598040    1.392067
     55          1           0        3.601587   -3.051316    1.995079
     56          1           0        3.151125   -4.654290    1.374377
     57          1           0        1.888820   -3.515503    1.874153
     58          8           0        1.909308   -3.851384   -0.781085
     59          1           0        2.017968   -3.547985   -1.705299
     60          7           0        2.661189    0.293724   -1.633391
     61          1           0        2.725637    0.816894   -0.769085
     62          6           0        2.603645    1.035913   -2.893734
     63          1           0        2.003701    0.433840   -3.583651
     64          6           0        4.040255    1.182015   -3.435589
     65          6           0        1.916875    2.385527   -2.648558
     66          1           0        1.787308    2.898517   -3.604294
     67          1           0        2.564827    3.019170   -2.027521
     68          8           0        4.647277    2.243892   -3.404287
     69          8           0        0.622138    2.231878   -2.079236
     70          1           0        0.730954    1.912407   -1.166399
     71          7           0        4.560460    0.004369   -3.902488
     72          1           0        4.012364   -0.829557   -3.701629
     73          6           0        5.991872   -0.175157   -3.967482
     74          1           0        6.265397   -0.773376   -4.845081
     75          1           0        6.445205    0.814901   -4.078775
     76          6           0        6.528588   -0.851300   -2.689218
     77          8           0        5.800365   -1.134820   -1.743767
     78          7           0        7.863753   -1.129243   -2.722204
     79          1           0        8.415812   -0.718120   -3.464834
     80          6           0        8.584011   -1.623217   -1.559198
     81          1           0        7.834746   -2.065953   -0.898219
     82          6           0        9.260806   -0.513298   -0.751729
     83          6           0        9.631657   -2.694476   -1.933450
     84          1           0       10.354344   -2.257764   -2.639511
     85          1           0       10.193122   -2.931968   -1.022558
     86          8           0        9.689331   -0.663162    0.369016
     87          6           0        9.016422   -3.968808   -2.521058
     88          1           0        8.309410   -4.405645   -1.806361
     89          1           0        8.434643   -3.718459   -3.418514
     90          6           0       10.071665   -5.022100   -2.880286
     91          1           0       10.696459   -5.233349   -1.998861
     92          1           0       10.753057   -4.626728   -3.646761
     93          6           0        9.472185   -6.337779   -3.391001
     94          1           0        8.826274   -6.129347   -4.254083
     95          1           0       10.290900   -6.981081   -3.759736
     96          7           0        8.639790   -6.971493   -2.359746
     97          1           0        9.236762   -7.320621   -1.610131
     98          1           0        8.172171   -7.789067   -2.747564
     99          8           0        9.375937    0.647880   -1.440319
    100          1           0        9.843393    1.268966   -0.849605
 ---------------------------------------------------------------------

 SCF Done:  E(RB3LYP) =  -2418.45312170     A.U. after    3 cycles

 Alpha  occ. eigenvalues --  -19.27299 -19.26022 -19.24867 -19.22220 -19.21960
 Alpha  occ. eigenvalues --  -19.20258 -19.20205 -19.19778 -19.18707 -19.17377
 Alpha  occ. eigenvalues --  -19.17068 -14.58000 -14.50612 -14.49138 -14.45970
 Alpha  occ. eigenvalues --  -14.45567 -14.43667 -14.41673 -14.40584 -14.34935
 Alpha  occ. eigenvalues --  -10.44893 -10.43208 -10.41265 -10.39285 -10.38721
 Alpha  occ. eigenvalues --  -10.36844 -10.36486 -10.36404 -10.34474 -10.34256
 Alpha  occ. eigenvalues --  -10.34041 -10.33024 -10.30980 -10.30424 -10.29288
 Alpha  occ. eigenvalues --  -10.29193 -10.29188 -10.28815 -10.28161 -10.26893
 Alpha  occ. eigenvalues --  -10.26557 -10.26344 -10.25646 -10.24469 -10.23859
 Alpha  occ. eigenvalues --  -10.23594 -10.22084 -10.21979  -1.19228  -1.18161
 Alpha  occ. eigenvalues --   -1.15532  -1.14327  -1.13405  -1.12591  -1.11491
 Alpha  occ. eigenvalues --   -1.09339  -1.08589  -1.07812  -1.07430  -1.06450
 Alpha  occ. eigenvalues --   -1.05736  -1.05580  -1.02530  -1.01681  -0.99869
 Alpha  occ. eigenvalues --   -0.98252  -0.97190  -0.94443  -0.91601  -0.90839
 Alpha  occ. eigenvalues --   -0.87274  -0.85130  -0.84879  -0.84187  -0.82498
 Alpha  occ. eigenvalues --   -0.81888  -0.80401  -0.80092  -0.77902  -0.77040
 Alpha  occ. eigenvalues --   -0.75296  -0.74703  -0.73457  -0.73423  -0.73058
 Alpha  occ. eigenvalues --   -0.71363  -0.71086  -0.70553  -0.69181  -0.68431
 Alpha  occ. eigenvalues --   -0.67703  -0.67315  -0.67083  -0.66484  -0.65853
 Alpha  occ. eigenvalues --   -0.65402  -0.64981  -0.64684  -0.63730  -0.63066
 Alpha  occ. eigenvalues --   -0.62628  -0.61880  -0.61065  -0.59685  -0.58968
 Alpha  occ. eigenvalues --   -0.58905  -0.58467  -0.58238  -0.57845  -0.57117
 Alpha  occ. eigenvalues --   -0.56929  -0.56290  -0.55979  -0.55730  -0.55068
 Alpha  occ. eigenvalues --   -0.55009  -0.54217  -0.53923  -0.53742  -0.53172
 Alpha  occ. eigenvalues --   -0.53046  -0.52910  -0.52313  -0.51758  -0.51560
 Alpha  occ. eigenvalues --   -0.51493  -0.51194  -0.51068  -0.50600  -0.50548
 Alpha  occ. eigenvalues --   -0.50416  -0.49906  -0.49646  -0.49155  -0.49104
 Alpha  occ. eigenvalues --   -0.48432  -0.48271  -0.47914  -0.47840  -0.46916
 Alpha  occ. eigenvalues --   -0.46842  -0.46354  -0.45733  -0.45641  -0.45557
 Alpha  occ. eigenvalues --   -0.45391  -0.45086  -0.44863  -0.44466  -0.44444
 Alpha  occ. eigenvalues --   -0.44273  -0.43964  -0.43876  -0.42739  -0.42720
 Alpha  occ. eigenvalues --   -0.42651  -0.42304  -0.41854  -0.41735  -0.41539
 Alpha  occ. eigenvalues --   -0.41365  -0.40708  -0.40118  -0.40002  -0.39636
 Alpha  occ. eigenvalues --   -0.39055  -0.38233  -0.37892  -0.37165  -0.37081
 Alpha  occ. eigenvalues --   -0.36997  -0.36574  -0.36373  -0.35872  -0.35192
 Alpha  occ. eigenvalues --   -0.34308  -0.34145  -0.33722  -0.33360  -0.32196
 Alpha  occ. eigenvalues --   -0.31900  -0.30418  -0.29963  -0.29555  -0.27088
 Alpha virt. eigenvalues --   -0.12986  -0.11885  -0.09345  -0.08379  -0.07640
 Alpha virt. eigenvalues --   -0.05605  -0.05245  -0.04519  -0.03962  -0.03312
 Alpha virt. eigenvalues --   -0.02843  -0.02300  -0.01449  -0.01094   0.00210

 Mulliken charges:
               1
     1  N   -0.755075
     2  H    0.409362
     3  H    0.444550
     4  H    0.417674
     5  C   -0.122238
     6  H    0.215963
     7  C    0.649495
     8  C   -0.400614
     9  H    0.230346
    10  H    0.205177
    11  O   -0.531747
    12  C    0.646717
    13  N   -0.725408
    14  H    0.383526
    15  H    0.372147
    16  O   -0.534023
    17  N   -0.612969
    18  H    0.367513
    19  C   -0.071470
    20  H    0.191659
    21  C    0.634915
    22  C   -0.078213
    23  H    0.154794
    24  O   -0.557156
    25  C   -0.278404
    26  H    0.148492
    27  H    0.158490
    28  C   -0.462215
    29  H    0.164155
    30  H    0.167001
    31  H    0.137674
    32  C   -0.463589
    33  H    0.172315
    34  H    0.141653
    35  H    0.160674
    36  N   -0.623028
    37  H    0.373143
    38  C   -0.045052
    39  H    0.187188
    40  C    0.638435
    41  C   -0.465624
    42  H    0.166340
    43  H    0.178383
    44  H    0.190301
    45  O   -0.573420
    46  N   -0.596899
    47  H    0.359613
    48  C   -0.082324
    49  H    0.184197
    50  C    0.670124
    51  C    0.100414
    52  H    0.175755
    53  O   -0.570120
    54  C   -0.452670
    55  H    0.155446
    56  H    0.178837
    57  H    0.145818
    58  O   -0.651288
    59  H    0.423629
    60  N   -0.595187
    61  H    0.354752
    62  C   -0.090121
    63  H    0.188232
    64  C    0.621838
    65  C   -0.064644
    66  H    0.174082
    67  H    0.155896
    68  O   -0.513214
    69  O   -0.646469
    70  H    0.409664
    71  N   -0.585055
    72  H    0.367549
    73  C   -0.260640
    74  H    0.179260
    75  H    0.214757
    76  C    0.609807
    77  O   -0.525567
    78  N   -0.587558
    79  H    0.336784
    80  C   -0.055191
    81  H    0.205746
    82  C    0.589623
    83  C   -0.283070
    84  H    0.133932
    85  H    0.172514
    86  O   -0.456772
    87  C   -0.247742
    88  H    0.167842
    89  H    0.130388
    90  C   -0.257593
    91  H    0.130730
    92  H    0.131073
    93  C   -0.139658
    94  H    0.137584
    95  H    0.121336
    96  N   -0.715140
    97  H    0.295065
    98  H    0.300731
    99  O   -0.571327
   100  H    0.417396
 Sum of Mulliken charges =   1.00000

 Dipole moment (field-independent basis, Debye):
    X=            -22.4228    Y=              7.8608    Z=              5.9035  Tot=             24.4832
 Quadrupole moment (field-independent basis, Debye-Ang):
   XX=             17.5601   YY=           -232.4362   ZZ=           -234.6018
   XY=           -114.4112   XZ=            -80.5863   YZ=             45.5655

 Normal termination of Gaussian 16 at Fri May 27 02:49:29 2022.
