 Gaussian 16, Revision C.01,
 Gaussian 16:  ES64L-G16RevC.01  3-Jul-2019

 -------------------------------------------------------------------
 # B3LYP/6-31G* guess=read geom=check nosymm integral(ultrafinegrid)
 -------------------------------------------------------------------

 ------------------------------------------------------
 Candidate Structure: Conf:156 Charge calc in gas phase
 ------------------------------------------------------
 Structure from the checkpoint file:  "conf-156.chk"
 Charge =  1 Multiplicity = 1

                          Input orientation:
 ---------------------------------------------------------------------
 Center     Atomic      Atomic             Coordinates (Angstroms)
 Number     Number       Type             X           Y           Z
 ---------------------------------------------------------------------
      1          7           0       -7.448366   -2.382569    0.685354
      2          1           0       -7.369977   -1.913193    1.614252
      3          1           0       -7.919324   -3.286654    0.746534
      4          1           0       -7.940493   -1.708646    0.016394
      5          6           0       -6.034616   -2.451818    0.170837
      6          1           0       -5.606008   -3.408799    0.485407
      7          6           0       -5.306010   -1.335506    0.980923
      8          6           0       -6.014756   -2.363030   -1.366705
      9          1           0       -4.981734   -2.316127   -1.723338
     10          1           0       -6.429589   -3.291949   -1.780639
     11          8           0       -5.890998   -0.872427    1.964533
     12          6           0       -6.836951   -1.191423   -1.922520
     13          7           0       -6.482743   -0.726129   -3.118864
     14          1           0       -7.078888   -0.005523   -3.510979
     15          1           0       -5.783457   -1.178665   -3.747088
     16          8           0       -7.802492   -0.741145   -1.272887
     17          7           0       -4.066901   -1.013623    0.602755
     18          1           0       -3.642510   -1.365099   -0.250734
     19          6           0       -3.242756   -0.012280    1.292991
     20          1           0       -3.924150    0.652914    1.831678
     21          6           0       -2.514341    0.720884    0.150324
     22          6           0       -2.230251   -0.646275    2.299966
     23          1           0       -1.504934   -1.215134    1.699644
     24          8           0       -2.135557    0.076313   -0.834729
     25          6           0       -2.926946   -1.630796    3.263805
     26          1           0       -3.493846   -2.364009    2.677438
     27          1           0       -3.661723   -1.086696    3.871880
     28          6           0       -1.482221    0.461829    3.058666
     29          1           0       -2.186132    1.096306    3.615246
     30          1           0       -0.794561    0.028792    3.789221
     31          1           0       -0.871871    1.094856    2.409554
     32          6           0       -1.961850   -2.400930    4.174191
     33          1           0       -2.506214   -3.153870    4.754074
     34          1           0       -1.194381   -2.923128    3.590006
     35          1           0       -1.452814   -1.747798    4.889179
     36          7           0       -2.344656    2.053773    0.277474
     37          1           0       -2.598969    2.501485    1.149377
     38          6           0       -1.626432    2.866801   -0.717462
     39          1           0       -1.734381    2.332344   -1.665281
     40          6           0       -0.126591    2.930503   -0.341741
     41          6           0       -2.236623    4.261239   -0.808526
     42          1           0       -1.730825    4.841180   -1.585060
     43          1           0       -3.300768    4.196020   -1.054249
     44          1           0       -2.110291    4.804905    0.132273
     45          8           0        0.366985    3.936731    0.172093
     46          7           0        0.568185    1.799318   -0.593032
     47          1           0        0.118171    0.984349   -1.003303
     48          6           0        1.978643    1.659749   -0.269823
     49          1           0        2.478796    2.604295   -0.519072
     50          6           0        2.508435    0.517643   -1.151350
     51          6           0        2.216491    1.370495    1.258064
     52          1           0        1.953675    0.321838    1.447714
     53          8           0        1.713351   -0.298882   -1.637078
     54          6           0        3.663131    1.620937    1.691323
     55          1           0        4.366525    0.927661    1.220647
     56          1           0        3.731333    1.489377    2.774632
     57          1           0        3.967896    2.649668    1.459310
     58          8           0        1.320607    2.126277    2.055769
     59          1           0        1.272263    3.031622    1.692239
     60          7           0        3.847256    0.434548   -1.305892
     61          1           0        4.397692    1.261630   -1.099534
     62          6           0        4.511263   -0.490365   -2.240566
     63          1           0        3.952605   -0.472650   -3.185548
     64          6           0        4.568634   -1.957490   -1.724162
     65          6           0        5.938852    0.012020   -2.467192
     66          1           0        6.374111   -0.533879   -3.312729
     67          1           0        6.545385   -0.209289   -1.580597
     68          8           0        5.633559   -2.510460   -1.483938
     69          8           0        5.857385    1.413836   -2.716867
     70          1           0        6.760137    1.760705   -2.778920
     71          7           0        3.351504   -2.559595   -1.629834
     72          1           0        2.538271   -1.947607   -1.709579
     73          6           0        3.165990   -3.885954   -1.060944
     74          1           0        4.074820   -4.467228   -1.247900
     75          1           0        3.003279   -3.855822    0.021990
     76          6           0        1.941323   -4.574155   -1.674936
     77          8           0        1.139304   -5.203532   -0.996881
     78          7           0        1.825290   -4.418423   -3.027158
     79          1           0        2.494750   -3.830866   -3.506096
     80          6           0        0.636046   -4.836541   -3.747046
     81          1           0        0.191633   -5.660604   -3.183905
     82          6           0        0.970398   -5.364118   -5.135444
     83          6           0       -0.387668   -3.671876   -3.840321
     84          1           0       -0.521464   -3.301287   -2.816920
     85          1           0        0.067551   -2.852235   -4.413399
     86          8           0        0.275720   -6.132463   -5.760251
     87          6           0       -1.748752   -4.038746   -4.442324
     88          1           0       -1.616717   -4.444294   -5.452014
     89          1           0       -2.205181   -4.844536   -3.850562
     90          6           0       -2.695069   -2.830990   -4.493786
     91          1           0       -2.206840   -2.012622   -5.044062
     92          1           0       -2.877365   -2.445143   -3.480059
     93          6           0       -4.025710   -3.155232   -5.170363
     94          1           0       -3.832215   -3.556405   -6.176200
     95          1           0       -4.553475   -3.940341   -4.614660
     96          7           0       -4.909598   -1.965031   -5.217870
     97          1           0       -5.716169   -2.178229   -5.807277
     98          1           0       -4.416290   -1.214723   -5.705438
     99          8           0        2.105014   -4.818869   -5.637236
    100          1           0        2.226213   -5.195488   -6.529930
 ---------------------------------------------------------------------

 SCF Done:  E(RB3LYP) =  -2418.45310752     A.U. after    1 cycles

 Alpha  occ. eigenvalues --  -19.27368 -19.25425 -19.25322 -19.22875 -19.22415
 Alpha  occ. eigenvalues --  -19.21623 -19.21354 -19.20731 -19.19885 -19.18580
 Alpha  occ. eigenvalues --  -19.17933 -14.56204 -14.48955 -14.46933 -14.46883
 Alpha  occ. eigenvalues --  -14.45254 -14.44152 -14.43894 -14.42738 -14.42367
 Alpha  occ. eigenvalues --  -10.42802 -10.42683 -10.40353 -10.39532 -10.39472
 Alpha  occ. eigenvalues --  -10.38417 -10.37011 -10.35853 -10.35412 -10.35213
 Alpha  occ. eigenvalues --  -10.34031 -10.32450 -10.31822 -10.31729 -10.31563
 Alpha  occ. eigenvalues --  -10.31187 -10.31162 -10.31060 -10.29071 -10.28550
 Alpha  occ. eigenvalues --  -10.27833 -10.27071 -10.26747 -10.26385 -10.26212
 Alpha  occ. eigenvalues --  -10.24965 -10.24711 -10.24537  -1.18090  -1.18065
 Alpha  occ. eigenvalues --   -1.16662  -1.14289  -1.13480  -1.11785  -1.11041
 Alpha  occ. eigenvalues --   -1.10591  -1.10022  -1.09764  -1.09037  -1.08316
 Alpha  occ. eigenvalues --   -1.05311  -1.02859  -1.02677  -1.01398  -1.00245
 Alpha  occ. eigenvalues --   -1.00024  -0.99670  -0.98407  -0.93123  -0.90065
 Alpha  occ. eigenvalues --   -0.88720  -0.87093  -0.85817  -0.84392  -0.83831
 Alpha  occ. eigenvalues --   -0.83131  -0.81424  -0.79764  -0.78817  -0.78620
 Alpha  occ. eigenvalues --   -0.77266  -0.73698  -0.72871  -0.72589  -0.72325
 Alpha  occ. eigenvalues --   -0.71748  -0.71596  -0.70957  -0.69470  -0.68933
 Alpha  occ. eigenvalues --   -0.68481  -0.68328  -0.68135  -0.67068  -0.66631
 Alpha  occ. eigenvalues --   -0.66094  -0.65333  -0.64949  -0.64758  -0.64119
 Alpha  occ. eigenvalues --   -0.62581  -0.62037  -0.61471  -0.60274  -0.59810
 Alpha  occ. eigenvalues --   -0.59449  -0.59019  -0.58708  -0.58382  -0.58330
 Alpha  occ. eigenvalues --   -0.57736  -0.57433  -0.57328  -0.57126  -0.56764
 Alpha  occ. eigenvalues --   -0.55796  -0.55281  -0.55022  -0.54616  -0.54299
 Alpha  occ. eigenvalues --   -0.54070  -0.53715  -0.53577  -0.52853  -0.52645
 Alpha  occ. eigenvalues --   -0.52444  -0.52330  -0.51447  -0.51274  -0.51087
 Alpha  occ. eigenvalues --   -0.50626  -0.50471  -0.50186  -0.49979  -0.49784
 Alpha  occ. eigenvalues --   -0.49404  -0.49150  -0.48670  -0.48388  -0.48201
 Alpha  occ. eigenvalues --   -0.48110  -0.47587  -0.47154  -0.47017  -0.46824
 Alpha  occ. eigenvalues --   -0.46485  -0.46268  -0.46096  -0.45740  -0.45634
 Alpha  occ. eigenvalues --   -0.45361  -0.44682  -0.44651  -0.44225  -0.44031
 Alpha  occ. eigenvalues --   -0.43858  -0.43834  -0.43778  -0.42564  -0.42472
 Alpha  occ. eigenvalues --   -0.42049  -0.41869  -0.41619  -0.40999  -0.40751
 Alpha  occ. eigenvalues --   -0.40357  -0.40237  -0.39376  -0.39139  -0.39116
 Alpha  occ. eigenvalues --   -0.38223  -0.37079  -0.36750  -0.36174  -0.35941
 Alpha  occ. eigenvalues --   -0.35763  -0.35501  -0.35270  -0.34078  -0.33153
 Alpha  occ. eigenvalues --   -0.32914  -0.32784  -0.31834  -0.31450  -0.31020
 Alpha virt. eigenvalues --   -0.11988  -0.10584  -0.08751  -0.07897  -0.07673
 Alpha virt. eigenvalues --   -0.06766  -0.05960  -0.05461  -0.05231  -0.04300
 Alpha virt. eigenvalues --   -0.03301  -0.02620  -0.01318  -0.00434  -0.00183

 Mulliken charges:
               1
     1  N   -0.764122
     2  H    0.424266
     3  H    0.397022
     4  H    0.445513
     5  C   -0.126740
     6  H    0.225073
     7  C    0.668005
     8  C   -0.407040
     9  H    0.208379
    10  H    0.209018
    11  O   -0.530022
    12  C    0.633102
    13  N   -0.769607
    14  H    0.356822
    15  H    0.421959
    16  O   -0.552821
    17  N   -0.614737
    18  H    0.361753
    19  C   -0.057203
    20  H    0.183085
    21  C    0.630386
    22  C   -0.075210
    23  H    0.144272
    24  O   -0.559038
    25  C   -0.251503
    26  H    0.113854
    27  H    0.152422
    28  C   -0.499049
    29  H    0.140195
    30  H    0.176099
    31  H    0.191493
    32  C   -0.454575
    33  H    0.155208
    34  H    0.153096
    35  H    0.163033
    36  N   -0.587628
    37  H    0.349974
    38  C   -0.071930
    39  H    0.186329
    40  C    0.643326
    41  C   -0.456136
    42  H    0.181255
    43  H    0.155659
    44  H    0.178659
    45  O   -0.545935
    46  N   -0.611865
    47  H    0.374804
    48  C   -0.094239
    49  H    0.179303
    50  C    0.625805
    51  C    0.167711
    52  H    0.139355
    53  O   -0.557573
    54  C   -0.476813
    55  H    0.152434
    56  H    0.181132
    57  H    0.150445
    58  O   -0.634403
    59  H    0.419776
    60  N   -0.604123
    61  H    0.363220
    62  C   -0.068266
    63  H    0.182529
    64  C    0.616633
    65  C   -0.067545
    66  H    0.165594
    67  H    0.171319
    68  O   -0.505664
    69  O   -0.634801
    70  H    0.414963
    71  N   -0.655558
    72  H    0.383472
    73  C   -0.204253
    74  H    0.212533
    75  H    0.185441
    76  C    0.577361
    77  O   -0.517036
    78  N   -0.590407
    79  H    0.348075
    80  C   -0.047936
    81  H    0.207550
    82  C    0.593026
    83  C   -0.271881
    84  H    0.165344
    85  H    0.145230
    86  O   -0.454877
    87  C   -0.271964
    88  H    0.169254
    89  H    0.143065
    90  C   -0.266051
    91  H    0.142724
    92  H    0.133446
    93  C   -0.138305
    94  H    0.155508
    95  H    0.145115
    96  N   -0.764751
    97  H    0.326358
    98  H    0.325086
    99  O   -0.573821
   100  H    0.422559
 Sum of Mulliken charges =   1.00000

 Dipole moment (field-independent basis, Debye):
    X=            -19.0929    Y=             -5.3933    Z=             -9.4131  Tot=             21.9598
 Quadrupole moment (field-independent basis, Debye-Ang):
   XX=            -98.9243   YY=           -272.1940   ZZ=           -216.3275
   XY=             71.2785   XZ=             10.5582   YZ=              7.8764

 Normal termination of Gaussian 16 at Fri May 27 02:49:04 2022.
