 Gaussian 16, Revision C.01,
 Gaussian 16:  ES64L-G16RevC.01  3-Jul-2019

 -------------------------------------------------------------------
 # B3LYP/6-31G* guess=read geom=check nosymm integral(ultrafinegrid)
 -------------------------------------------------------------------

 ------------------------------------------------------
 Candidate Structure: Conf:917 Charge calc in gas phase
 ------------------------------------------------------
 Structure from the checkpoint file:  "conf-917.chk"
 Charge =  1 Multiplicity = 1

                          Input orientation:
 ---------------------------------------------------------------------
 Center     Atomic      Atomic             Coordinates (Angstroms)
 Number     Number       Type             X           Y           Z
 ---------------------------------------------------------------------
      1          7           0       -8.752104    2.638853    1.577168
      2          1           0       -8.157376    3.424133    1.229891
      3          1           0       -9.622547    2.988948    1.981853
      4          1           0       -8.935334    1.986917    0.753278
      5          6           0       -7.877545    1.892142    2.553288
      6          1           0       -8.291355    2.010863    3.558078
      7          6           0       -6.488183    2.579877    2.453167
      8          6           0       -7.802586    0.392027    2.178644
      9          1           0       -7.022998   -0.091019    2.770374
     10          1           0       -8.755120   -0.091663    2.421519
     11          8           0       -6.322128    3.456500    1.606071
     12          6           0       -7.574758    0.198507    0.678398
     13          7           0       -6.500370   -0.504129    0.304589
     14          1           0       -6.341604   -0.622421   -0.689304
     15          1           0       -5.726150   -0.666566    0.947887
     16          8           0       -8.399121    0.681159   -0.118961
     17          7           0       -5.560691    2.132960    3.318138
     18          1           0       -5.797683    1.316781    3.867998
     19          6           0       -4.123086    2.297367    3.086704
     20          1           0       -4.013006    3.189855    2.466977
     21          6           0       -3.655875    1.054650    2.285011
     22          6           0       -3.386149    2.510949    4.444179
     23          1           0       -3.976236    3.288261    4.949207
     24          8           0       -4.368728    0.040392    2.221757
     25          6           0       -1.949736    3.060838    4.302124
     26          1           0       -1.290020    2.305916    3.856042
     27          1           0       -1.572242    3.207782    5.321506
     28          6           0       -3.400861    1.249241    5.322885
     29          1           0       -2.828364    0.432256    4.869188
     30          1           0       -2.951065    1.467014    6.296511
     31          1           0       -4.413916    0.877266    5.520387
     32          6           0       -1.824089    4.387055    3.541663
     33          1           0       -0.797488    4.761407    3.599188
     34          1           0       -2.068577    4.296819    2.475454
     35          1           0       -2.482262    5.154621    3.965778
     36          7           0       -2.459011    1.153417    1.687582
     37          1           0       -1.866880    1.970944    1.812330
     38          6           0       -1.792138    0.045669    1.012447
     39          1           0       -2.075126   -0.881902    1.520607
     40          6           0       -0.281058    0.301871    1.175961
     41          6           0       -2.181666   -0.043561   -0.474206
     42          1           0       -1.695673   -0.896696   -0.958263
     43          1           0       -3.264198   -0.169906   -0.564257
     44          1           0       -1.891239    0.868309   -1.005262
     45          8           0        0.131873    1.427027    1.487565
     46          7           0        0.524091   -0.747938    0.945176
     47          1           0        0.168080   -1.643366    0.622908
     48          6           0        1.982457   -0.682191    1.045475
     49          1           0        2.235643   -0.017163    1.877166
     50          6           0        2.581084   -0.113928   -0.260508
     51          6           0        2.512815   -2.111615    1.301143
     52          1           0        3.605425   -2.076153    1.202676
     53          8           0        3.083145   -0.854097   -1.116700
     54          6           0        2.147035   -2.652381    2.676333
     55          1           0        2.592942   -2.039766    3.467067
     56          1           0        2.521266   -3.674950    2.773476
     57          1           0        1.061722   -2.674078    2.822088
     58          8           0        1.953157   -2.982322    0.318987
     59          1           0        2.343549   -2.691767   -0.528164
     60          7           0        2.500226    1.222470   -0.401998
     61          1           0        2.064997    1.755616    0.343626
     62          6           0        3.108773    1.910171   -1.533944
     63          1           0        2.652412    1.547801   -2.462775
     64          6           0        4.633735    1.645311   -1.529408
     65          6           0        2.847794    3.413921   -1.417151
     66          1           0        3.410746    3.799292   -0.555579
     67          1           0        1.773288    3.587779   -1.240204
     68          8           0        5.278388    1.785824   -0.498950
     69          8           0        3.273170    3.990427   -2.638998
     70          1           0        3.476443    4.925071   -2.488926
     71          7           0        5.159328    1.255485   -2.719538
     72          1           0        4.550540    1.196291   -3.524026
     73          6           0        6.555561    0.891476   -2.881728
     74          1           0        6.998698    1.417072   -3.732216
     75          1           0        7.079474    1.211666   -1.976793
     76          6           0        6.818599   -0.607230   -3.091000
     77          8           0        7.883694   -0.985000   -3.562913
     78          7           0        5.833863   -1.461928   -2.705927
     79          1           0        4.962146   -1.110439   -2.326010
     80          6           0        6.020301   -2.896644   -2.848525
     81          1           0        6.934163   -3.198222   -2.325430
     82          6           0        6.236679   -3.325524   -4.301572
     83          6           0        4.807140   -3.644522   -2.253492
     84          1           0        4.581830   -3.181579   -1.284532
     85          1           0        3.933620   -3.466627   -2.896699
     86          8           0        6.875678   -4.298419   -4.630460
     87          6           0        5.021922   -5.149792   -2.053799
     88          1           0        5.362072   -5.607938   -2.989747
     89          1           0        5.835950   -5.298326   -1.330186
     90          6           0        3.753687   -5.855269   -1.555148
     91          1           0        2.972068   -5.779524   -2.327647
     92          1           0        3.352779   -5.352699   -0.664948
     93          6           0        3.983485   -7.331287   -1.222937
     94          1           0        4.439361   -7.832265   -2.096825
     95          1           0        4.714201   -7.406244   -0.407322
     96          7           0        2.737664   -7.957423   -0.760200
     97          1           0        2.924525   -8.918400   -0.476910
     98          1           0        2.085180   -8.023795   -1.541461
     99          8           0        5.559651   -2.556393   -5.188864
    100          1           0        5.764136   -2.932539   -6.065927
 ---------------------------------------------------------------------

 SCF Done:  E(RB3LYP) =  -2418.44291417     A.U. after    3 cycles

 Alpha  occ. eigenvalues --  -19.27810 -19.26326 -19.24520 -19.23244 -19.23188
 Alpha  occ. eigenvalues --  -19.22388 -19.21990 -19.21341 -19.17468 -19.17264
 Alpha  occ. eigenvalues --  -19.14975 -14.58166 -14.50662 -14.48997 -14.48019
 Alpha  occ. eigenvalues --  -14.46982 -14.44990 -14.42548 -14.39836 -14.34756
 Alpha  occ. eigenvalues --  -10.44661 -10.43775 -10.41889 -10.41458 -10.40088
 Alpha  occ. eigenvalues --  -10.37943 -10.35883 -10.35797 -10.35434 -10.35059
 Alpha  occ. eigenvalues --  -10.34976 -10.32524 -10.32436 -10.32088 -10.31768
 Alpha  occ. eigenvalues --  -10.31152 -10.31011 -10.29396 -10.28358 -10.28350
 Alpha  occ. eigenvalues --  -10.27884 -10.27541 -10.27107 -10.25056 -10.24170
 Alpha  occ. eigenvalues --  -10.24042 -10.22267 -10.21765  -1.20053  -1.17941
 Alpha  occ. eigenvalues --   -1.16118  -1.14831  -1.14036  -1.13004  -1.12797
 Alpha  occ. eigenvalues --   -1.10169  -1.09510  -1.09208  -1.07474  -1.07094
 Alpha  occ. eigenvalues --   -1.04913  -1.04637  -1.04251  -1.03126  -1.01162
 Alpha  occ. eigenvalues --   -0.98698  -0.96214  -0.94742  -0.92202  -0.91372
 Alpha  occ. eigenvalues --   -0.89200  -0.86314  -0.85349  -0.84610  -0.84072
 Alpha  occ. eigenvalues --   -0.83074  -0.81501  -0.80040  -0.79430  -0.77402
 Alpha  occ. eigenvalues --   -0.76871  -0.74390  -0.74079  -0.73799  -0.72992
 Alpha  occ. eigenvalues --   -0.72693  -0.71916  -0.70967  -0.70389  -0.69604
 Alpha  occ. eigenvalues --   -0.68911  -0.68273  -0.67583  -0.67140  -0.66987
 Alpha  occ. eigenvalues --   -0.66556  -0.64873  -0.63987  -0.63843  -0.63216
 Alpha  occ. eigenvalues --   -0.63006  -0.61784  -0.61241  -0.60622  -0.60520
 Alpha  occ. eigenvalues --   -0.60272  -0.60039  -0.59841  -0.59165  -0.58554
 Alpha  occ. eigenvalues --   -0.58323  -0.57671  -0.56907  -0.56212  -0.55446
 Alpha  occ. eigenvalues --   -0.55384  -0.55181  -0.54767  -0.54343  -0.53878
 Alpha  occ. eigenvalues --   -0.53575  -0.53323  -0.53216  -0.52825  -0.52615
 Alpha  occ. eigenvalues --   -0.52246  -0.52133  -0.51689  -0.51360  -0.51206
 Alpha  occ. eigenvalues --   -0.51201  -0.50479  -0.50361  -0.50204  -0.49830
 Alpha  occ. eigenvalues --   -0.49430  -0.49236  -0.49018  -0.48651  -0.48297
 Alpha  occ. eigenvalues --   -0.47856  -0.47431  -0.47393  -0.47119  -0.46800
 Alpha  occ. eigenvalues --   -0.46152  -0.45969  -0.45871  -0.45282  -0.44809
 Alpha  occ. eigenvalues --   -0.44315  -0.44199  -0.43804  -0.43557  -0.43369
 Alpha  occ. eigenvalues --   -0.43155  -0.43077  -0.42976  -0.42011  -0.41430
 Alpha  occ. eigenvalues --   -0.41272  -0.41030  -0.40878  -0.40562  -0.40048
 Alpha  occ. eigenvalues --   -0.39903  -0.38922  -0.38668  -0.38331  -0.37930
 Alpha  occ. eigenvalues --   -0.37570  -0.37115  -0.36998  -0.36814  -0.35438
 Alpha  occ. eigenvalues --   -0.35281  -0.34949  -0.34870  -0.33595  -0.32603
 Alpha  occ. eigenvalues --   -0.31734  -0.31297  -0.28868  -0.28264  -0.26998
 Alpha virt. eigenvalues --   -0.13772  -0.12497  -0.10608  -0.09206  -0.09066
 Alpha virt. eigenvalues --   -0.07224  -0.06083  -0.04143  -0.04080  -0.02956
 Alpha virt. eigenvalues --   -0.02828  -0.02397  -0.01328  -0.01067  -0.00781

 Mulliken charges:
               1
     1  N   -0.772875
     2  H    0.426112
     3  H    0.406720
     4  H    0.445215
     5  C   -0.123980
     6  H    0.222895
     7  C    0.639971
     8  C   -0.387793
     9  H    0.208262
    10  H    0.221392
    11  O   -0.510394
    12  C    0.615660
    13  N   -0.743801
    14  H    0.368495
    15  H    0.411315
    16  O   -0.537016
    17  N   -0.575322
    18  H    0.353610
    19  C   -0.109967
    20  H    0.209229
    21  C    0.639719
    22  C   -0.080874
    23  H    0.156761
    24  O   -0.582769
    25  C   -0.285765
    26  H    0.155416
    27  H    0.163521
    28  C   -0.473430
    29  H    0.166111
    30  H    0.179762
    31  H    0.135225
    32  C   -0.464219
    33  H    0.176441
    34  H    0.139824
    35  H    0.159758
    36  N   -0.602823
    37  H    0.380653
    38  C   -0.056019
    39  H    0.189345
    40  C    0.635973
    41  C   -0.442031
    42  H    0.172550
    43  H    0.156572
    44  H    0.176547
    45  O   -0.558058
    46  N   -0.601974
    47  H    0.358463
    48  C   -0.086007
    49  H    0.188833
    50  C    0.659000
    51  C    0.101038
    52  H    0.164409
    53  O   -0.556265
    54  C   -0.451639
    55  H    0.155133
    56  H    0.187955
    57  H    0.141825
    58  O   -0.647040
    59  H    0.429991
    60  N   -0.617908
    61  H    0.366692
    62  C   -0.028675
    63  H    0.164723
    64  C    0.635938
    65  C   -0.065622
    66  H    0.164467
    67  H    0.132482
    68  O   -0.525350
    69  O   -0.618623
    70  H    0.412130
    71  N   -0.602521
    72  H    0.343194
    73  C   -0.235000
    74  H    0.191054
    75  H    0.222613
    76  C    0.610254
    77  O   -0.515469
    78  N   -0.653228
    79  H    0.375001
    80  C    0.015825
    81  H    0.189035
    82  C    0.603469
    83  C   -0.323851
    84  H    0.150244
    85  H    0.145680
    86  O   -0.463489
    87  C   -0.269789
    88  H    0.167488
    89  H    0.139635
    90  C   -0.257274
    91  H    0.117664
    92  H    0.150145
    93  C   -0.137533
    94  H    0.120294
    95  H    0.140358
    96  N   -0.718848
    97  H    0.298037
    98  H    0.289283
    99  O   -0.574223
   100  H    0.412057
 Sum of Mulliken charges =   1.00000

 Dipole moment (field-independent basis, Debye):
    X=            -32.1083    Y=              9.5058    Z=             11.1829  Tot=             35.3038
 Quadrupole moment (field-independent basis, Debye-Ang):
   XX=           -111.7786   YY=           -239.5658   ZZ=           -235.9589
   XY=            -38.5548   XZ=            -58.4804   YZ=             17.3837

 Normal termination of Gaussian 16 at Fri May 27 02:49:38 2022.
