 Gaussian 16, Revision C.01,
 Gaussian 16:  ES64L-G16RevC.01  3-Jul-2019

 -------------------------------------------------------------------
 # B3LYP/6-31G* guess=read geom=check nosymm integral(ultrafinegrid)
 -------------------------------------------------------------------

 -----------------------------------------------------
 Candidate Structure: Conf:14 Charge calc in gas phase
 -----------------------------------------------------
 Structure from the checkpoint file:  "conf-14.chk"
 Charge =  1 Multiplicity = 1

                          Input orientation:
 ---------------------------------------------------------------------
 Center     Atomic      Atomic             Coordinates (Angstroms)
 Number     Number       Type             X           Y           Z
 ---------------------------------------------------------------------
      1          7           0       -8.187766    2.672804    3.500528
      2          1           0       -8.343320    2.794260    4.506005
      3          1           0       -9.092485    2.537108    3.041244
      4          1           0       -7.679837    3.539295    3.128787
      5          6           0       -7.170204    1.594625    3.178657
      6          1           0       -7.095832    0.919802    4.033458
      7          6           0       -5.866178    2.433764    2.994638
      8          6           0       -7.606281    0.841828    1.901290
      9          1           0       -8.437628    0.168030    2.142846
     10          1           0       -7.936187    1.559151    1.143974
     11          8           0       -6.018034    3.643597    2.763778
     12          6           0       -6.409508    0.097670    1.277100
     13          7           0       -6.064536   -1.067970    1.895949
     14          1           0       -5.230873   -1.536584    1.558042
     15          1           0       -6.730083   -1.620644    2.418630
     16          8           0       -5.762251    0.619721    0.388577
     17          7           0       -4.719825    1.781811    3.126692
     18          1           0       -4.710518    0.761709    3.203583
     19          6           0       -3.403291    2.295201    2.714913
     20          1           0       -3.567579    3.173786    2.083585
     21          6           0       -2.805945    1.120102    1.906721
     22          6           0       -2.514708    2.677652    3.937483
     23          1           0       -2.384982    1.758855    4.528129
     24          8           0       -3.095764   -0.038319    2.224725
     25          6           0       -3.223865    3.726388    4.820897
     26          1           0       -4.239126    3.377309    5.046662
     27          1           0       -3.340312    4.658198    4.250173
     28          6           0       -1.127996    3.156760    3.475539
     29          1           0       -1.214870    4.043231    2.831188
     30          1           0       -0.521992    3.446594    4.337724
     31          1           0       -0.568905    2.383543    2.940973
     32          6           0       -2.510507    4.015410    6.147468
     33          1           0       -3.109062    4.695842    6.762704
     34          1           0       -2.354334    3.095437    6.723939
     35          1           0       -1.534132    4.486416    6.000045
     36          7           0       -1.998072    1.429006    0.876955
     37          1           0       -1.701375    2.388941    0.760101
     38          6           0       -1.243901    0.400862    0.160438
     39          1           0       -1.959034   -0.363478   -0.160136
     40          6           0       -0.183528   -0.216883    1.092028
     41          6           0       -0.542278    1.025499   -1.050392
     42          1           0        0.086554    0.283490   -1.550696
     43          1           0       -1.273312    1.419767   -1.763536
     44          1           0        0.121542    1.832841   -0.722456
     45          8           0        0.548635    0.497151    1.777142
     46          7           0       -0.082854   -1.561910    1.040023
     47          1           0       -0.715850   -2.125784    0.484334
     48          6           0        0.953481   -2.311976    1.740920
     49          1           0        1.278378   -1.706595    2.592316
     50          6           0        2.133752   -2.529757    0.767804
     51          6           0        0.367951   -3.662965    2.201383
     52          1           0        1.195993   -4.261872    2.606212
     53          8           0        2.328467   -3.623299    0.220063
     54          6           0       -0.711608   -3.505878    3.264041
     55          1           0       -0.292337   -3.079436    4.181985
     56          1           0       -1.137474   -4.486205    3.497200
     57          1           0       -1.515819   -2.849078    2.915403
     58          8           0       -0.207261   -4.321190    1.073951
     59          1           0        0.558472   -4.501062    0.490878
     60          7           0        2.882600   -1.437282    0.527741
     61          1           0        2.694576   -0.547129    0.987034
     62          6           0        3.959220   -1.419162   -0.445294
     63          1           0        4.613999   -2.282526   -0.269307
     64          6           0        4.747845   -0.115001   -0.202211
     65          6           0        3.454576   -1.529386   -1.892334
     66          1           0        2.898221   -2.469610   -1.992070
     67          1           0        4.323217   -1.574283   -2.566251
     68          8           0        4.338847    0.748367    0.569283
     69          8           0        2.637146   -0.398359   -2.178060
     70          1           0        2.441413   -0.410024   -3.126931
     71          7           0        5.907146   -0.005047   -0.886119
     72          1           0        6.254211   -0.721249   -1.516650
     73          6           0        6.748122    1.164618   -0.789245
     74          1           0        6.191090    2.069925   -1.064231
     75          1           0        7.100380    1.311325    0.240923
     76          6           0        7.938750    0.962994   -1.734017
     77          8           0        8.041160   -0.051523   -2.419294
     78          7           0        8.833312    1.984184   -1.751817
     79          1           0        8.726905    2.738558   -1.086087
     80          6           0       10.081526    1.924378   -2.501987
     81          1           0       10.160945    0.904339   -2.888248
     82          6           0       11.301575    2.159205   -1.615026
     83          6           0       10.122139    2.914120   -3.690652
     84          1           0        9.991556    3.936566   -3.308181
     85          1           0       11.128261    2.864291   -4.122604
     86          8           0       12.437708    1.946791   -1.964893
     87          6           0        9.071733    2.618350   -4.766530
     88          1           0        9.221127    1.597719   -5.145348
     89          1           0        8.069979    2.635127   -4.316798
     90          6           0        9.124355    3.619617   -5.927072
     91          1           0       10.134976    3.621276   -6.362840
     92          1           0        8.944734    4.638522   -5.560598
     93          6           0        8.105554    3.317274   -7.028537
     94          1           0        8.276709    2.291557   -7.406304
     95          1           0        7.095613    3.324307   -6.597142
     96          7           0        8.150171    4.353427   -8.066040
     97          1           0        7.443449    4.163617   -8.774927
     98          1           0        9.046973    4.312080   -8.549767
     99          8           0       10.985379    2.686713   -0.404776
    100          1           0       11.831822    2.831256    0.059971
 ---------------------------------------------------------------------

 SCF Done:  E(RB3LYP) =  -2418.42010570     A.U. after    1 cycles

 Alpha  occ. eigenvalues --  -19.27281 -19.25612 -19.23798 -19.21850 -19.21193
 Alpha  occ. eigenvalues --  -19.19314 -19.19112 -19.18482 -19.18224 -19.17963
 Alpha  occ. eigenvalues --  -19.17195 -14.61129 -14.49547 -14.47966 -14.45756
 Alpha  occ. eigenvalues --  -14.43143 -14.42485 -14.41567 -14.41494 -14.34572
 Alpha  occ. eigenvalues --  -10.44011 -10.42425 -10.41973 -10.38783 -10.37599
 Alpha  occ. eigenvalues --  -10.35697 -10.35628 -10.35535 -10.34771 -10.34485
 Alpha  occ. eigenvalues --  -10.34081 -10.31681 -10.29742 -10.29553 -10.29429
 Alpha  occ. eigenvalues --  -10.29429 -10.29148 -10.29129 -10.28673 -10.26672
 Alpha  occ. eigenvalues --  -10.25844 -10.25032 -10.24976 -10.24302 -10.24072
 Alpha  occ. eigenvalues --  -10.23160 -10.22743 -10.21875  -1.19871  -1.16218
 Alpha  occ. eigenvalues --   -1.15840  -1.14760  -1.13711  -1.10649  -1.10310
 Alpha  occ. eigenvalues --   -1.09772  -1.09017  -1.08138  -1.07151  -1.06595
 Alpha  occ. eigenvalues --   -1.06255  -1.02798  -1.02031  -0.99438  -0.99108
 Alpha  occ. eigenvalues --   -0.98095  -0.97745  -0.94521  -0.91311  -0.90420
 Alpha  occ. eigenvalues --   -0.86278  -0.85493  -0.84674  -0.83705  -0.82440
 Alpha  occ. eigenvalues --   -0.81902  -0.80867  -0.78996  -0.77878  -0.76750
 Alpha  occ. eigenvalues --   -0.75175  -0.74859  -0.73694  -0.73263  -0.72660
 Alpha  occ. eigenvalues --   -0.71434  -0.70924  -0.70606  -0.68721  -0.67567
 Alpha  occ. eigenvalues --   -0.67137  -0.66581  -0.66073  -0.65765  -0.65278
 Alpha  occ. eigenvalues --   -0.65052  -0.64684  -0.64544  -0.63982  -0.63330
 Alpha  occ. eigenvalues --   -0.62442  -0.61736  -0.60492  -0.59668  -0.59333
 Alpha  occ. eigenvalues --   -0.58927  -0.58483  -0.58121  -0.57660  -0.57198
 Alpha  occ. eigenvalues --   -0.56074  -0.55476  -0.55011  -0.54748  -0.53885
 Alpha  occ. eigenvalues --   -0.53728  -0.53225  -0.53173  -0.53045  -0.52782
 Alpha  occ. eigenvalues --   -0.52686  -0.52472  -0.52081  -0.51785  -0.51613
 Alpha  occ. eigenvalues --   -0.51074  -0.50732  -0.50571  -0.50327  -0.50095
 Alpha  occ. eigenvalues --   -0.49937  -0.49781  -0.49239  -0.49012  -0.48280
 Alpha  occ. eigenvalues --   -0.48180  -0.47743  -0.47261  -0.46961  -0.46481
 Alpha  occ. eigenvalues --   -0.46327  -0.46165  -0.45938  -0.45360  -0.45281
 Alpha  occ. eigenvalues --   -0.45095  -0.44658  -0.44518  -0.44303  -0.44008
 Alpha  occ. eigenvalues --   -0.43951  -0.43580  -0.42978  -0.42585  -0.42491
 Alpha  occ. eigenvalues --   -0.42193  -0.42038  -0.41375  -0.40953  -0.40948
 Alpha  occ. eigenvalues --   -0.40654  -0.40197  -0.39872  -0.39488  -0.38783
 Alpha  occ. eigenvalues --   -0.38662  -0.38323  -0.37519  -0.37468  -0.37183
 Alpha  occ. eigenvalues --   -0.36769  -0.36007  -0.35575  -0.34479  -0.34417
 Alpha  occ. eigenvalues --   -0.33864  -0.32651  -0.32584  -0.32081  -0.31914
 Alpha  occ. eigenvalues --   -0.31171  -0.30808  -0.30166  -0.29992  -0.26802
 Alpha virt. eigenvalues --   -0.13185  -0.12039  -0.11278  -0.07725  -0.06975
 Alpha virt. eigenvalues --   -0.05658  -0.04853  -0.04565  -0.03973  -0.03463
 Alpha virt. eigenvalues --   -0.03174  -0.02390  -0.01961  -0.00704  -0.00257

 Mulliken charges:
               1
     1  N   -0.754637
     2  H    0.418540
     3  H    0.415715
     4  H    0.437036
     5  C   -0.115920
     6  H    0.218125
     7  C    0.656602
     8  C   -0.378063
     9  H    0.185426
    10  H    0.210573
    11  O   -0.540325
    12  C    0.572575
    13  N   -0.734568
    14  H    0.384793
    15  H    0.349194
    16  O   -0.457239
    17  N   -0.588886
    18  H    0.379216
    19  C   -0.082444
    20  H    0.185307
    21  C    0.664396
    22  C   -0.068859
    23  H    0.144731
    24  O   -0.568463
    25  C   -0.249122
    26  H    0.112616
    27  H    0.147280
    28  C   -0.509045
    29  H    0.137205
    30  H    0.174187
    31  H    0.208328
    32  C   -0.453028
    33  H    0.153379
    34  H    0.149981
    35  H    0.165231
    36  N   -0.584364
    37  H    0.348445
    38  C   -0.047643
    39  H    0.165893
    40  C    0.651638
    41  C   -0.490363
    42  H    0.192401
    43  H    0.165854
    44  H    0.180812
    45  O   -0.539986
    46  N   -0.590760
    47  H    0.346281
    48  C   -0.086375
    49  H    0.186324
    50  C    0.642798
    51  C    0.124000
    52  H    0.145141
    53  O   -0.558447
    54  C   -0.456952
    55  H    0.146646
    56  H    0.165047
    57  H    0.152337
    58  O   -0.657695
    59  H    0.421061
    60  N   -0.617715
    61  H    0.381923
    62  C   -0.059996
    63  H    0.185772
    64  C    0.637219
    65  C   -0.048737
    66  H    0.171354
    67  H    0.134733
    68  O   -0.529606
    69  O   -0.614460
    70  H    0.403453
    71  N   -0.632896
    72  H    0.359256
    73  C   -0.190995
    74  H    0.192921
    75  H    0.191309
    76  C    0.603531
    77  O   -0.521941
    78  N   -0.604036
    79  H    0.346027
    80  C   -0.067845
    81  H    0.215772
    82  C    0.592133
    83  C   -0.266293
    84  H    0.138863
    85  H    0.174341
    86  O   -0.447455
    87  C   -0.262278
    88  H    0.147136
    89  H    0.135707
    90  C   -0.251563
    91  H    0.131037
    92  H    0.148706
    93  C   -0.132759
    94  H    0.114725
    95  H    0.133568
    96  N   -0.716044
    97  H    0.297232
    98  H    0.295073
    99  O   -0.580518
   100  H    0.421415
 Sum of Mulliken charges =   1.00000

 Dipole moment (field-independent basis, Debye):
    X=            -25.7531    Y=              8.8480    Z=             11.6115  Tot=             29.6030
 Quadrupole moment (field-independent basis, Debye-Ang):
   XX=             19.6541   YY=           -267.4553   ZZ=           -198.2613
   XY=            -28.5154   XZ=           -123.2111   YZ=             27.5978

 Normal termination of Gaussian 16 at Fri May 27 02:48:58 2022.
