 Gaussian 16, Revision C.01,
 Gaussian 16:  ES64L-G16RevC.01  3-Jul-2019

 -------------------------------------------------------------------
 # B3LYP/6-31G* guess=read geom=check nosymm integral(ultrafinegrid)
 -------------------------------------------------------------------

 ------------------------------------------------------
 Candidate Structure: Conf:110 Charge calc in gas phase
 ------------------------------------------------------
 Structure from the checkpoint file:  "conf-110.chk"
 Charge =  1 Multiplicity = 1

                          Input orientation:
 ---------------------------------------------------------------------
 Center     Atomic      Atomic             Coordinates (Angstroms)
 Number     Number       Type             X           Y           Z
 ---------------------------------------------------------------------
      1          7           0       -7.341637    0.907169    5.718769
      2          1           0       -7.114822    1.273570    6.647593
      3          1           0       -8.084817    0.154976    5.795873
      4          1           0       -7.599253    1.715514    5.117787
      5          6           0       -6.149751    0.275054    5.051360
      6          1           0       -5.515665   -0.156898    5.829491
      7          6           0       -5.450317    1.430778    4.291042
      8          6           0       -6.622093   -0.812944    4.062656
      9          1           0       -7.166646   -0.333887    3.237525
     10          1           0       -5.739159   -1.287596    3.623832
     11          8           0       -6.121551    2.432657    4.033227
     12          6           0       -7.566255   -1.831659    4.708094
     13          7           0       -7.450959   -3.107612    4.313179
     14          1           0       -8.105442   -3.790181    4.677633
     15          1           0       -6.768391   -3.414203    3.634507
     16          8           0       -8.414497   -1.464803    5.535534
     17          7           0       -4.176321    1.206593    3.959073
     18          1           0       -3.781267    0.274133    4.077739
     19          6           0       -3.406146    1.990183    2.985570
     20          1           0       -4.086297    2.707892    2.518790
     21          6           0       -2.931006    0.931210    1.962859
     22          6           0       -2.216666    2.735239    3.666539
     23          1           0       -1.583251    1.952892    4.109145
     24          8           0       -2.808171   -0.245488    2.318844
     25          6           0       -2.687684    3.645031    4.825480
     26          1           0       -1.783341    4.000496    5.335450
     27          1           0       -3.224691    3.036281    5.564135
     28          6           0       -1.361536    3.510059    2.647796
     29          1           0       -1.964962    4.214878    2.061216
     30          1           0       -0.609289    4.103051    3.178359
     31          1           0       -0.826160    2.854534    1.955190
     32          6           0       -3.550384    4.852511    4.435279
     33          1           0       -3.790979    5.442671    5.326090
     34          1           0       -3.030319    5.518930    3.739334
     35          1           0       -4.500152    4.551892    3.979772
     36          7           0       -2.697519    1.353103    0.702235
     37          1           0       -2.673409    2.348720    0.521267
     38          6           0       -2.073756    0.483602   -0.301093
     39          1           0       -2.568277   -0.488880   -0.227282
     40          6           0       -0.571494    0.342572    0.008702
     41          6           0       -2.261301    1.081654   -1.696707
     42          1           0       -1.776065    0.450869   -2.446599
     43          1           0       -3.324469    1.174292   -1.938944
     44          1           0       -1.786977    2.067353   -1.746575
     45          8           0        0.156806    1.339030    0.059314
     46          7           0       -0.123452   -0.913602    0.196042
     47          1           0       -0.738673   -1.718002    0.139365
     48          6           0        1.273381   -1.226403    0.484648
     49          1           0        1.697427   -0.382141    1.038172
     50          6           0        2.032121   -1.392856   -0.848038
     51          6           0        1.326357   -2.523817    1.318703
     52          1           0        2.380738   -2.820483    1.400875
     53          8           0        2.381625   -2.510542   -1.258311
     54          6           0        0.735943   -2.352165    2.712506
     55          1           0        1.325194   -1.636351    3.296237
     56          1           0        0.745899   -3.315303    3.230570
     57          1           0       -0.297991   -1.993628    2.665070
     58          8           0        0.581490   -3.534125    0.642501
     59          1           0        1.090865   -3.715733   -0.171334
     60          7           0        2.247885   -0.250505   -1.529667
     61          1           0        1.819533    0.598185   -1.164333
     62          6           0        2.683531   -0.248542   -2.931954
     63          1           0        2.244415   -1.133228   -3.409315
     64          6           0        4.222190   -0.339336   -3.063883
     65          6           0        2.170556    1.004823   -3.630797
     66          1           0        2.475135    0.963277   -4.683437
     67          1           0        2.638251    1.893919   -3.186393
     68          8           0        4.878655    0.578380   -3.565571
     69          8           0        0.750723    1.027808   -3.487078
     70          1           0        0.430666    1.835282   -3.916219
     71          7           0        4.760173   -1.487626   -2.603696
     72          1           0        4.128079   -2.196638   -2.239398
     73          6           0        6.200538   -1.730730   -2.587690
     74          1           0        6.705717   -0.807858   -2.282189
     75          1           0        6.410181   -2.513430   -1.858155
     76          6           0        6.762636   -2.209065   -3.940202
     77          8           0        7.208742   -3.339120   -4.092800
     78          7           0        6.718271   -1.277197   -4.929122
     79          1           0        6.364900   -0.351884   -4.705500
     80          6           0        7.212873   -1.574622   -6.259092
     81          1           0        6.794640   -2.532866   -6.585499
     82          6           0        8.730838   -1.769737   -6.320844
     83          6           0        6.810026   -0.476621   -7.263605
     84          1           0        7.270625    0.474443   -6.958975
     85          1           0        7.257546   -0.746127   -8.227225
     86          8           0        9.286398   -2.365530   -7.215499
     87          6           0        5.293924   -0.302098   -7.424092
     88          1           0        4.827593   -1.267390   -7.651979
     89          1           0        4.852824    0.038832   -6.477412
     90          6           0        4.941935    0.701497   -8.529577
     91          1           0        5.379025    0.364523   -9.482100
     92          1           0        5.404960    1.674482   -8.313214
     93          6           0        3.436989    0.916179   -8.722257
     94          1           0        2.999999    1.274838   -7.779573
     95          1           0        3.288663    1.722998   -9.462833
     96          7           0        2.761011   -0.340265   -9.071137
     97          1           0        3.100951   -0.665460   -9.976308
     98          1           0        1.763321   -0.173574   -9.193443
     99          8           0        9.396719   -1.151164   -5.319258
    100          1           0       10.341616   -1.335963   -5.479454
 ---------------------------------------------------------------------

 SCF Done:  E(RB3LYP) =  -2418.44334758     A.U. after    3 cycles

 Alpha  occ. eigenvalues --  -19.27877 -19.27112 -19.23620 -19.22351 -19.22215
 Alpha  occ. eigenvalues --  -19.21155 -19.20756 -19.20746 -19.18055 -19.16276
 Alpha  occ. eigenvalues --  -19.14646 -14.58808 -14.51170 -14.50200 -14.47568
 Alpha  occ. eigenvalues --  -14.45400 -14.44057 -14.41835 -14.38738 -14.35109
 Alpha  occ. eigenvalues --  -10.45474 -10.44250 -10.42048 -10.40506 -10.37902
 Alpha  occ. eigenvalues --  -10.37195 -10.37057 -10.35321 -10.35042 -10.34449
 Alpha  occ. eigenvalues --  -10.33567 -10.31882 -10.31489 -10.31411 -10.30501
 Alpha  occ. eigenvalues --  -10.30476 -10.30053 -10.27613 -10.27526 -10.27431
 Alpha  occ. eigenvalues --  -10.26841 -10.26723 -10.25834 -10.24794 -10.24683
 Alpha  occ. eigenvalues --  -10.22761 -10.21907 -10.21529  -1.19910  -1.19069
 Alpha  occ. eigenvalues --   -1.15489  -1.13441  -1.13133  -1.12916  -1.12011
 Alpha  occ. eigenvalues --   -1.09795  -1.09171  -1.08699  -1.06880  -1.06474
 Alpha  occ. eigenvalues --   -1.06150  -1.03990  -1.03755  -1.01619  -1.00137
 Alpha  occ. eigenvalues --   -0.97902  -0.95601  -0.95213  -0.91774  -0.91584
 Alpha  occ. eigenvalues --   -0.87913  -0.85802  -0.85145  -0.83843  -0.83322
 Alpha  occ. eigenvalues --   -0.82616  -0.80273  -0.79633  -0.78871  -0.77041
 Alpha  occ. eigenvalues --   -0.75839  -0.74857  -0.74171  -0.73364  -0.72898
 Alpha  occ. eigenvalues --   -0.72546  -0.71994  -0.70704  -0.70154  -0.68991
 Alpha  occ. eigenvalues --   -0.68411  -0.67706  -0.67097  -0.66276  -0.66113
 Alpha  occ. eigenvalues --   -0.65375  -0.64728  -0.64610  -0.63331  -0.62888
 Alpha  occ. eigenvalues --   -0.61903  -0.61709  -0.61438  -0.60895  -0.60239
 Alpha  occ. eigenvalues --   -0.59810  -0.59422  -0.59119  -0.58730  -0.58145
 Alpha  occ. eigenvalues --   -0.57120  -0.56950  -0.56508  -0.55863  -0.55647
 Alpha  occ. eigenvalues --   -0.55515  -0.54883  -0.54338  -0.54225  -0.52982
 Alpha  occ. eigenvalues --   -0.52835  -0.52720  -0.52452  -0.52416  -0.52083
 Alpha  occ. eigenvalues --   -0.51631  -0.51114  -0.50713  -0.50287  -0.50165
 Alpha  occ. eigenvalues --   -0.50008  -0.49950  -0.49587  -0.49426  -0.48610
 Alpha  occ. eigenvalues --   -0.48310  -0.47894  -0.47799  -0.47595  -0.47224
 Alpha  occ. eigenvalues --   -0.46968  -0.46884  -0.46556  -0.46175  -0.45913
 Alpha  occ. eigenvalues --   -0.45764  -0.45427  -0.45149  -0.44766  -0.44470
 Alpha  occ. eigenvalues --   -0.44294  -0.43891  -0.43090  -0.42918  -0.42656
 Alpha  occ. eigenvalues --   -0.42438  -0.42326  -0.42275  -0.42122  -0.41959
 Alpha  occ. eigenvalues --   -0.41255  -0.41109  -0.41064  -0.40341  -0.39750
 Alpha  occ. eigenvalues --   -0.39444  -0.39112  -0.38114  -0.37263  -0.37066
 Alpha  occ. eigenvalues --   -0.36722  -0.36555  -0.36440  -0.35300  -0.34670
 Alpha  occ. eigenvalues --   -0.34515  -0.34217  -0.34068  -0.32627  -0.32591
 Alpha  occ. eigenvalues --   -0.31418  -0.30908  -0.27783  -0.27675  -0.27222
 Alpha virt. eigenvalues --   -0.13673  -0.12746  -0.10090  -0.09449  -0.07920
 Alpha virt. eigenvalues --   -0.06037  -0.05806  -0.05314  -0.04443  -0.03323
 Alpha virt. eigenvalues --   -0.02187  -0.01781  -0.01681  -0.00961  -0.00694

 Mulliken charges:
               1
     1  N   -0.753961
     2  H    0.411327
     3  H    0.445675
     4  H    0.417925
     5  C   -0.125890
     6  H    0.218962
     7  C    0.642151
     8  C   -0.404847
     9  H    0.228560
    10  H    0.210502
    11  O   -0.520638
    12  C    0.647834
    13  N   -0.724990
    14  H    0.384737
    15  H    0.373737
    16  O   -0.534051
    17  N   -0.585826
    18  H    0.361064
    19  C   -0.095150
    20  H    0.190606
    21  C    0.637672
    22  C   -0.070612
    23  H    0.143777
    24  O   -0.553095
    25  C   -0.257173
    26  H    0.158011
    27  H    0.121310
    28  C   -0.505585
    29  H    0.145428
    30  H    0.174042
    31  H    0.193017
    32  C   -0.471747
    33  H    0.160142
    34  H    0.160201
    35  H    0.162096
    36  N   -0.586243
    37  H    0.351232
    38  C   -0.055506
    39  H    0.169171
    40  C    0.658849
    41  C   -0.479351
    42  H    0.199023
    43  H    0.165078
    44  H    0.171918
    45  O   -0.557160
    46  N   -0.587263
    47  H    0.356268
    48  C   -0.084450
    49  H    0.187043
    50  C    0.642257
    51  C    0.115007
    52  H    0.151907
    53  O   -0.563449
    54  C   -0.461553
    55  H    0.147492
    56  H    0.171900
    57  H    0.157488
    58  O   -0.649951
    59  H    0.423206
    60  N   -0.602619
    61  H    0.379851
    62  C   -0.076839
    63  H    0.196552
    64  C    0.640333
    65  C   -0.067200
    66  H    0.169676
    67  H    0.157935
    68  O   -0.549961
    69  O   -0.632885
    70  H    0.404632
    71  N   -0.601983
    72  H    0.379581
    73  C   -0.244424
    74  H    0.188442
    75  H    0.183715
    76  C    0.608785
    77  O   -0.508833
    78  N   -0.617618
    79  H    0.369484
    80  C   -0.004984
    81  H    0.188732
    82  C    0.596020
    83  C   -0.310594
    84  H    0.144708
    85  H    0.169893
    86  O   -0.468493
    87  C   -0.254858
    88  H    0.163457
    89  H    0.133015
    90  C   -0.261208
    91  H    0.133122
    92  H    0.134078
    93  C   -0.136349
    94  H    0.126090
    95  H    0.118254
    96  N   -0.713538
    97  H    0.296991
    98  H    0.295015
    99  O   -0.565887
   100  H    0.411790
 Sum of Mulliken charges =   1.00000

 Dipole moment (field-independent basis, Debye):
    X=            -29.4319    Y=              4.8098    Z=             18.6105  Tot=             35.1528
 Quadrupole moment (field-independent basis, Debye-Ang):
   XX=           -138.1581   YY=           -275.9670   ZZ=           -155.4456
   XY=             41.6571   XZ=            -96.5243   YZ=            -29.1533

 Normal termination of Gaussian 16 at Fri May 27 02:49:32 2022.
