 Gaussian 16, Revision C.01,
 Gaussian 16:  ES64L-G16RevC.01  3-Jul-2019

 -------------------------------------------------------------------
 # B3LYP/6-31G* guess=read geom=check nosymm integral(ultrafinegrid)
 -------------------------------------------------------------------

 ------------------------------------------------------
 Candidate Structure: Conf:234 Charge calc in gas phase
 ------------------------------------------------------
 Structure from the checkpoint file:  "conf-234.chk"
 Charge =  1 Multiplicity = 1

                          Input orientation:
 ---------------------------------------------------------------------
 Center     Atomic      Atomic             Coordinates (Angstroms)
 Number     Number       Type             X           Y           Z
 ---------------------------------------------------------------------
      1          7           0       -6.386396    3.509507    4.706269
      2          1           0       -5.607759    4.205292    4.755167
      3          1           0       -7.025551    3.611793    5.497179
      4          1           0       -6.898711    3.634110    3.784365
      5          6           0       -5.699305    2.168313    4.643138
      6          1           0       -5.733631    1.715840    5.638206
      7          6           0       -4.222652    2.515865    4.283179
      8          6           0       -6.397654    1.257985    3.611172
      9          1           0       -5.879479    0.298859    3.543836
     10          1           0       -7.416633    1.037670    3.949493
     11          8           0       -3.870581    3.695352    4.325959
     12          6           0       -6.511699    1.964059    2.259286
     13          7           0       -5.954597    1.370234    1.196277
     14          1           0       -6.011482    1.857345    0.309111
     15          1           0       -5.256759    0.634144    1.293883
     16          8           0       -7.115465    3.049237    2.206964
     17          7           0       -3.452052    1.470401    3.957333
     18          1           0       -3.895799    0.576271    3.777216
     19          6           0       -2.162725    1.580809    3.269264
     20          1           0       -2.013424    2.638268    3.036299
     21          6           0       -2.352923    0.777841    1.956465
     22          6           0       -1.000139    1.086984    4.185112
     23          1           0       -1.157100    1.634747    5.124814
     24          8           0       -3.339738    0.031875    1.816929
     25          6           0        0.410791    1.460164    3.680618
     26          1           0        0.662529    0.886898    2.779153
     27          1           0        1.114599    1.113166    4.447372
     28          6           0       -1.100659   -0.416148    4.484126
     29          1           0       -0.945879   -1.019479    3.581697
     30          1           0       -0.334532   -0.707305    5.209621
     31          1           0       -2.072167   -0.689672    4.911041
     32          6           0        0.652531    2.955922    3.439653
     33          1           0        1.708221    3.139509    3.218086
     34          1           0        0.078913    3.353153    2.592480
     35          1           0        0.388909    3.550508    4.322265
     36          7           0       -1.414116    0.937026    1.017543
     37          1           0       -0.584535    1.504794    1.178625
     38          6           0       -1.365014    0.180985   -0.229906
     39          1           0       -1.669660   -0.850564   -0.019063
     40          6           0        0.112273    0.215039   -0.678282
     41          6           0       -2.292084    0.773748   -1.305392
     42          1           0       -2.245880    0.186109   -2.226836
     43          1           0       -3.324269    0.765348   -0.944904
     44          1           0       -2.004515    1.803823   -1.538061
     45          8           0        0.907745    0.984839   -0.122589
     46          7           0        0.426754   -0.591097   -1.706015
     47          1           0       -0.202864   -1.350434   -1.952178
     48          6           0        1.795072   -0.790059   -2.204440
     49          1           0        2.479105   -0.849236   -1.348490
     50          6           0        2.256295    0.390074   -3.097090
     51          6           0        1.824101   -2.110926   -3.023511
     52          1           0        1.441219   -1.886932   -4.021431
     53          8           0        2.398559    0.259893   -4.316775
     54          6           0        3.228543   -2.690754   -3.128532
     55          1           0        3.934019   -1.972376   -3.554830
     56          1           0        3.216426   -3.583169   -3.760933
     57          1           0        3.606626   -2.970650   -2.135751
     58          8           0        0.894166   -3.057108   -2.477345
     59          1           0        1.325594   -3.504166   -1.730445
     60          7           0        2.509975    1.541614   -2.440829
     61          1           0        2.398580    1.542822   -1.430277
     62          6           0        2.986538    2.757351   -3.102578
     63          1           0        2.467569    2.854705   -4.061567
     64          6           0        4.505584    2.644992   -3.362157
     65          6           0        2.681468    3.976910   -2.217876
     66          1           0        3.083138    3.794839   -1.207987
     67          1           0        1.596085    4.091905   -2.133501
     68          8           0        5.325837    3.318909   -2.721108
     69          8           0        3.189538    5.164644   -2.775700
     70          1           0        4.158616    5.075406   -2.725601
     71          7           0        4.854770    1.744783   -4.305237
     72          1           0        4.112894    1.149506   -4.673261
     73          6           0        6.243615    1.341317   -4.509939
     74          1           0        6.322641    0.834732   -5.472197
     75          1           0        6.871351    2.236446   -4.514561
     76          6           0        6.680380    0.358319   -3.411184
     77          8           0        6.693262   -0.856726   -3.576998
     78          7           0        7.005623    0.950056   -2.226312
     79          1           0        6.749166    1.927565   -2.107081
     80          6           0        7.250700    0.138671   -1.048091
     81          1           0        8.096837   -0.527608   -1.242014
     82          6           0        6.038018   -0.745614   -0.740749
     83          6           0        7.567382    1.062274    0.147673
     84          1           0        8.352026    1.754864   -0.182902
     85          1           0        6.677526    1.670555    0.361022
     86          8           0        4.875600   -0.417435   -0.870639
     87          6           0        8.030413    0.341846    1.420100
     88          1           0        7.262004   -0.367219    1.754196
     89          1           0        8.919933   -0.261266    1.190974
     90          6           0        8.344203    1.319806    2.559168
     91          1           0        7.453267    1.909987    2.809918
     92          1           0        9.107235    2.038940    2.224661
     93          6           0        8.834385    0.624137    3.831304
     94          1           0        8.074055   -0.094703    4.164855
     95          1           0        9.739042    0.033526    3.594346
     96          7           0        9.021496    1.601284    4.909700
     97          1           0        9.790674    2.227116    4.671301
     98          1           0        9.309235    1.122477    5.761840
     99          8           0        6.410878   -1.938646   -0.234806
    100          1           0        5.592436   -2.427207   -0.027945
 ---------------------------------------------------------------------

 SCF Done:  E(RB3LYP) =  -2418.45260454     A.U. after    3 cycles

 Alpha  occ. eigenvalues --  -19.27185 -19.26296 -19.26177 -19.24355 -19.23218
 Alpha  occ. eigenvalues --  -19.22730 -19.20566 -19.19613 -19.19127 -19.19021
 Alpha  occ. eigenvalues --  -19.17089 -14.58108 -14.50022 -14.49124 -14.47655
 Alpha  occ. eigenvalues --  -14.45972 -14.43462 -14.42487 -14.41001 -14.35510
 Alpha  occ. eigenvalues --  -10.44219 -10.43821 -10.41669 -10.41246 -10.39434
 Alpha  occ. eigenvalues --  -10.38374 -10.36630 -10.35991 -10.35596 -10.35450
 Alpha  occ. eigenvalues --  -10.34560 -10.34023 -10.31473 -10.31285 -10.30260
 Alpha  occ. eigenvalues --  -10.29879 -10.29564 -10.29473 -10.28640 -10.28550
 Alpha  occ. eigenvalues --  -10.27743 -10.27524 -10.26422 -10.25286 -10.25248
 Alpha  occ. eigenvalues --  -10.24266 -10.23925 -10.22949  -1.19552  -1.17859
 Alpha  occ. eigenvalues --   -1.17039  -1.15920  -1.14275  -1.12701  -1.11560
 Alpha  occ. eigenvalues --   -1.10559  -1.10264  -1.08859  -1.07817  -1.06966
 Alpha  occ. eigenvalues --   -1.06814  -1.04438  -1.04102  -1.02216  -0.99955
 Alpha  occ. eigenvalues --   -0.98691  -0.97796  -0.94582  -0.92255  -0.91675
 Alpha  occ. eigenvalues --   -0.88510  -0.86116  -0.85590  -0.84860  -0.82955
 Alpha  occ. eigenvalues --   -0.82661  -0.81132  -0.81057  -0.78454  -0.77841
 Alpha  occ. eigenvalues --   -0.76212  -0.74360  -0.74294  -0.73913  -0.73687
 Alpha  occ. eigenvalues --   -0.72049  -0.71272  -0.70369  -0.70113  -0.69759
 Alpha  occ. eigenvalues --   -0.69070  -0.68783  -0.67289  -0.66975  -0.66682
 Alpha  occ. eigenvalues --   -0.65872  -0.65324  -0.64273  -0.63854  -0.63630
 Alpha  occ. eigenvalues --   -0.62604  -0.62376  -0.60904  -0.60589  -0.60010
 Alpha  occ. eigenvalues --   -0.59796  -0.59292  -0.58849  -0.58152  -0.57994
 Alpha  occ. eigenvalues --   -0.57339  -0.56663  -0.56474  -0.56270  -0.55765
 Alpha  occ. eigenvalues --   -0.55417  -0.55035  -0.54667  -0.54167  -0.53921
 Alpha  occ. eigenvalues --   -0.53772  -0.53507  -0.53303  -0.53082  -0.53039
 Alpha  occ. eigenvalues --   -0.52494  -0.52365  -0.52038  -0.51874  -0.51575
 Alpha  occ. eigenvalues --   -0.51432  -0.50836  -0.50445  -0.49874  -0.49695
 Alpha  occ. eigenvalues --   -0.49556  -0.49215  -0.48929  -0.48714  -0.48563
 Alpha  occ. eigenvalues --   -0.47429  -0.47170  -0.46933  -0.46563  -0.46430
 Alpha  occ. eigenvalues --   -0.46241  -0.45993  -0.45851  -0.45529  -0.45213
 Alpha  occ. eigenvalues --   -0.44785  -0.44435  -0.44231  -0.43927  -0.43594
 Alpha  occ. eigenvalues --   -0.43446  -0.43046  -0.43027  -0.42350  -0.41893
 Alpha  occ. eigenvalues --   -0.41609  -0.40924  -0.40661  -0.40099  -0.40084
 Alpha  occ. eigenvalues --   -0.39519  -0.39170  -0.39042  -0.38548  -0.38240
 Alpha  occ. eigenvalues --   -0.38001  -0.37783  -0.37634  -0.37160  -0.36604
 Alpha  occ. eigenvalues --   -0.35598  -0.35027  -0.34378  -0.33792  -0.32701
 Alpha  occ. eigenvalues --   -0.32356  -0.31291  -0.30953  -0.29657  -0.27781
 Alpha virt. eigenvalues --   -0.13580  -0.12019  -0.10341  -0.08780  -0.08253
 Alpha virt. eigenvalues --   -0.06914  -0.05582  -0.05166  -0.04788  -0.03788
 Alpha virt. eigenvalues --   -0.02998  -0.02603  -0.01755  -0.01092  -0.00911

 Mulliken charges:
               1
     1  N   -0.766723
     2  H    0.427636
     3  H    0.406531
     4  H    0.443389
     5  C   -0.125875
     6  H    0.231804
     7  C    0.636337
     8  C   -0.397722
     9  H    0.204347
    10  H    0.221765
    11  O   -0.513564
    12  C    0.619166
    13  N   -0.743933
    14  H    0.370567
    15  H    0.404288
    16  O   -0.532403
    17  N   -0.587070
    18  H    0.359592
    19  C   -0.107852
    20  H    0.207246
    21  C    0.634463
    22  C   -0.066381
    23  H    0.154500
    24  O   -0.584737
    25  C   -0.287304
    26  H    0.153511
    27  H    0.161580
    28  C   -0.469205
    29  H    0.158381
    30  H    0.174202
    31  H    0.140966
    32  C   -0.463658
    33  H    0.176978
    34  H    0.140325
    35  H    0.160956
    36  N   -0.610679
    37  H    0.387116
    38  C   -0.053175
    39  H    0.187813
    40  C    0.631402
    41  C   -0.440649
    42  H    0.177450
    43  H    0.155112
    44  H    0.175069
    45  O   -0.556357
    46  N   -0.613584
    47  H    0.361221
    48  C   -0.097482
    49  H    0.202307
    50  C    0.652554
    51  C    0.108046
    52  H    0.189520
    53  O   -0.544768
    54  C   -0.477410
    55  H    0.201830
    56  H    0.175616
    57  H    0.124079
    58  O   -0.637300
    59  H    0.394595
    60  N   -0.615311
    61  H    0.379272
    62  C   -0.079499
    63  H    0.193365
    64  C    0.636079
    65  C   -0.035698
    66  H    0.132148
    67  H    0.146713
    68  O   -0.570086
    69  O   -0.622658
    70  H    0.418257
    71  N   -0.594499
    72  H    0.386694
    73  C   -0.241294
    74  H    0.191235
    75  H    0.192352
    76  C    0.604011
    77  O   -0.516655
    78  N   -0.616396
    79  H    0.372347
    80  C    0.002033
    81  H    0.189205
    82  C    0.606661
    83  C   -0.310302
    84  H    0.163884
    85  H    0.154747
    86  O   -0.496612
    87  C   -0.266268
    88  H    0.139201
    89  H    0.145599
    90  C   -0.250080
    91  H    0.146040
    92  H    0.130917
    93  C   -0.133714
    94  H    0.134180
    95  H    0.118073
    96  N   -0.718311
    97  H    0.295699
    98  H    0.299346
    99  O   -0.551220
   100  H    0.406119
 Sum of Mulliken charges =   1.00000

 Dipole moment (field-independent basis, Debye):
    X=            -16.2537    Y=              4.5449    Z=             17.9114  Tot=             24.6101
 Quadrupole moment (field-independent basis, Debye-Ang):
   XX=           -108.4255   YY=           -274.9674   ZZ=           -199.1441
   XY=            -46.2030   XZ=            -78.2593   YZ=             33.0719

 Normal termination of Gaussian 16 at Fri May 27 02:49:36 2022.
