 Gaussian 16, Revision C.01,
 Gaussian 16:  ES64L-G16RevC.01  3-Jul-2019

 -------------------------------------------------------------------
 # B3LYP/6-31G* guess=read geom=check nosymm integral(ultrafinegrid)
 -------------------------------------------------------------------

 ------------------------------------------------------
 Candidate Structure: Conf:217 Charge calc in gas phase
 ------------------------------------------------------
 Structure from the checkpoint file:  "conf-217.chk"
 Charge =  1 Multiplicity = 1

                          Input orientation:
 ---------------------------------------------------------------------
 Center     Atomic      Atomic             Coordinates (Angstroms)
 Number     Number       Type             X           Y           Z
 ---------------------------------------------------------------------
      1          7           0       -7.065046   -0.388611    3.762599
      2          1           0       -7.120504   -1.349106    4.116169
      3          1           0       -8.015205   -0.039849    3.607824
      4          1           0       -6.540318    0.202920    4.479066
      5          6           0       -6.157874   -0.249572    2.554090
      6          1           0       -6.081296   -1.221575    2.063064
      7          6           0       -4.808663    0.174431    3.212984
      8          6           0       -6.737082    0.821718    1.602483
      9          1           0       -7.604084    0.406959    1.073820
     10          1           0       -7.054912    1.694363    2.180922
     11          8           0       -4.882935    0.676624    4.344454
     12          6           0       -5.648577    1.334241    0.638727
     13          7           0       -5.406646    0.539738   -0.441393
     14          1           0       -4.651016    0.819390   -1.057022
     15          1           0       -6.099504   -0.094701   -0.814081
     16          8           0       -4.985339    2.311733    0.934288
     17          7           0       -3.709132   -0.062058    2.509634
     18          1           0       -3.778026   -0.375917    1.539299
     19          6           0       -2.383899    0.512267    2.792233
     20          1           0       -2.511530    1.301302    3.538133
     21          6           0       -1.948053    1.090000    1.428080
     22          6           0       -1.385393   -0.571576    3.300442
     23          1           0       -1.315263   -1.320316    2.500347
     24          8           0       -2.314998    0.514637    0.391901
     25          6           0       -1.891997   -1.288318    4.572824
     26          1           0       -1.224215   -2.142916    4.740818
     27          1           0       -2.880586   -1.722272    4.372757
     28          6           0        0.023735    0.013769    3.495752
     29          1           0        0.022535    0.902538    4.139066
     30          1           0        0.665963   -0.729851    3.979858
     31          1           0        0.483482    0.273052    2.539261
     32          6           0       -1.953641   -0.443020    5.851818
     33          1           0       -2.293499   -1.058182    6.692100
     34          1           0       -0.971223   -0.042890    6.123181
     35          1           0       -2.653102    0.394662    5.759826
     36          7           0       -1.174750    2.186233    1.432037
     37          1           0       -0.879076    2.579712    2.316447
     38          6           0       -0.672860    2.826599    0.202166
     39          1           0       -1.459037    2.690548   -0.547692
     40          6           0        0.604544    2.114186   -0.312890
     41          6           0       -0.424063    4.310088    0.444134
     42          1           0       -0.080230    4.776243   -0.481653
     43          1           0       -1.343753    4.803818    0.772259
     44          1           0        0.362100    4.461832    1.190591
     45          8           0        1.687785    2.695347   -0.375778
     46          7           0        0.420015    0.826259   -0.682646
     47          1           0       -0.504742    0.416027   -0.590370
     48          6           0        1.524032   -0.027744   -1.121361
     49          1           0        2.421514    0.305178   -0.586371
     50          6           0        1.743620    0.182915   -2.636592
     51          6           0        1.229967   -1.503709   -0.782424
     52          1           0        0.398110   -1.835907   -1.411070
     53          8           0        1.362117   -0.639895   -3.474051
     54          6           0        2.440290   -2.400503   -1.015720
     55          1           0        2.801964   -2.338939   -2.044243
     56          1           0        2.177084   -3.439303   -0.792793
     57          1           0        3.270235   -2.107703   -0.356943
     58          8           0        0.750680   -1.615807    0.567623
     59          1           0        1.531608   -1.612645    1.144480
     60          7           0        2.349105    1.349585   -2.952649
     61          1           0        2.481682    2.025989   -2.202873
     62          6           0        2.431868    1.829922   -4.335146
     63          1           0        1.530469    1.487465   -4.857619
     64          6           0        3.675144    1.244469   -5.044934
     65          6           0        2.486749    3.352109   -4.355888
     66          1           0        2.546903    3.683693   -5.400500
     67          1           0        3.401950    3.691743   -3.852278
     68          8           0        4.629460    1.945924   -5.362836
     69          8           0        1.312904    3.837685   -3.707712
     70          1           0        1.394235    4.801521   -3.652905
     71          7           0        3.591341   -0.094319   -5.289099
     72          1           0        2.832045   -0.600117   -4.834482
     73          6           0        4.751706   -0.842433   -5.708824
     74          1           0        4.494415   -1.515819   -6.537289
     75          1           0        5.489585   -0.123928   -6.077667
     76          6           0        5.334241   -1.684292   -4.562683
     77          8           0        4.715830   -1.909667   -3.528981
     78          7           0        6.565518   -2.218552   -4.813223
     79          1           0        7.121503   -1.816340   -5.557316
     80          6           0        7.268894   -2.984926   -3.793407
     81          1           0        6.563796   -3.701652   -3.365814
     82          6           0        7.739082   -2.120241   -2.620943
     83          6           0        8.458107   -3.733305   -4.432683
     84          1           0        8.065535   -4.277679   -5.301406
     85          1           0        9.177612   -2.996443   -4.817843
     86          8           0        7.821748   -2.502195   -1.476025
     87          6           0        9.175611   -4.710649   -3.492814
     88          1           0        9.557248   -4.167423   -2.621137
     89          1           0        8.449311   -5.443136   -3.111165
     90          6           0       10.331167   -5.442472   -4.188195
     91          1           0       11.066618   -4.709206   -4.543802
     92          1           0        9.949049   -5.974452   -5.071316
     93          6           0       11.053696   -6.449121   -3.285716
     94          1           0       10.342532   -7.242333   -2.987122
     95          1           0       11.838916   -6.940304   -3.872281
     96          7           0       11.704930   -5.778971   -2.152755
     97          1           0       12.341496   -6.425957   -1.691130
     98          1           0       11.011604   -5.525994   -1.450875
     99          8           0        8.120406   -0.883624   -3.019211
    100          1           0        8.436207   -0.423132   -2.218864
 ---------------------------------------------------------------------

 SCF Done:  E(RB3LYP) =  -2418.41112896     A.U. after    1 cycles

 Alpha  occ. eigenvalues --  -19.27906 -19.24310 -19.24122 -19.23065 -19.21519
 Alpha  occ. eigenvalues --  -19.20008 -19.19200 -19.18240 -19.17642 -19.16773
 Alpha  occ. eigenvalues --  -19.15823 -14.61815 -14.50287 -14.48538 -14.47302
 Alpha  occ. eigenvalues --  -14.43044 -14.41280 -14.41119 -14.39537 -14.34195
 Alpha  occ. eigenvalues --  -10.44687 -10.43012 -10.42521 -10.40073 -10.36247
 Alpha  occ. eigenvalues --  -10.36196 -10.36166 -10.35000 -10.34519 -10.33744
 Alpha  occ. eigenvalues --  -10.32952 -10.32302 -10.30124 -10.29465 -10.29295
 Alpha  occ. eigenvalues --  -10.28525 -10.28430 -10.28171 -10.27379 -10.27311
 Alpha  occ. eigenvalues --  -10.26552 -10.25978 -10.25563 -10.24150 -10.23865
 Alpha  occ. eigenvalues --  -10.22472 -10.22292 -10.21419  -1.20482  -1.16362
 Alpha  occ. eigenvalues --   -1.15496  -1.14901  -1.14820  -1.11047  -1.09388
 Alpha  occ. eigenvalues --   -1.08673  -1.08493  -1.07562  -1.07038  -1.06999
 Alpha  occ. eigenvalues --   -1.05848  -1.03368  -1.03260  -0.99390  -0.97676
 Alpha  occ. eigenvalues --   -0.97632  -0.96070  -0.95137  -0.91191  -0.90934
 Alpha  occ. eigenvalues --   -0.86755  -0.85138  -0.84821  -0.83841  -0.82556
 Alpha  occ. eigenvalues --   -0.81611  -0.80161  -0.79836  -0.76863  -0.76457
 Alpha  occ. eigenvalues --   -0.75775  -0.75494  -0.73707  -0.73306  -0.72902
 Alpha  occ. eigenvalues --   -0.71909  -0.71496  -0.69930  -0.69387  -0.68114
 Alpha  occ. eigenvalues --   -0.68028  -0.67212  -0.66321  -0.65795  -0.64908
 Alpha  occ. eigenvalues --   -0.64685  -0.64624  -0.64267  -0.63330  -0.62071
 Alpha  occ. eigenvalues --   -0.61756  -0.60798  -0.60649  -0.59899  -0.59634
 Alpha  occ. eigenvalues --   -0.59221  -0.58954  -0.57928  -0.57128  -0.57007
 Alpha  occ. eigenvalues --   -0.56325  -0.55854  -0.55461  -0.54977  -0.54056
 Alpha  occ. eigenvalues --   -0.53975  -0.53515  -0.53295  -0.53255  -0.52658
 Alpha  occ. eigenvalues --   -0.52590  -0.52292  -0.52237  -0.51882  -0.51470
 Alpha  occ. eigenvalues --   -0.50657  -0.50523  -0.50405  -0.49941  -0.49890
 Alpha  occ. eigenvalues --   -0.49675  -0.49425  -0.48867  -0.48623  -0.47966
 Alpha  occ. eigenvalues --   -0.47694  -0.47560  -0.47189  -0.46896  -0.46727
 Alpha  occ. eigenvalues --   -0.46517  -0.46029  -0.45827  -0.45650  -0.45203
 Alpha  occ. eigenvalues --   -0.44867  -0.44289  -0.44128  -0.43924  -0.43884
 Alpha  occ. eigenvalues --   -0.43228  -0.43032  -0.42982  -0.42664  -0.42086
 Alpha  occ. eigenvalues --   -0.41940  -0.41741  -0.41577  -0.41559  -0.41276
 Alpha  occ. eigenvalues --   -0.40797  -0.40121  -0.39857  -0.39450  -0.38869
 Alpha  occ. eigenvalues --   -0.38663  -0.38119  -0.37589  -0.37424  -0.37235
 Alpha  occ. eigenvalues --   -0.36806  -0.36214  -0.35792  -0.34546  -0.33819
 Alpha  occ. eigenvalues --   -0.33495  -0.32688  -0.32415  -0.32320  -0.31049
 Alpha  occ. eigenvalues --   -0.30374  -0.29856  -0.29175  -0.28457  -0.26473
 Alpha virt. eigenvalues --   -0.13839  -0.12534  -0.11850  -0.08980  -0.07521
 Alpha virt. eigenvalues --   -0.05898  -0.05314  -0.03883  -0.03771  -0.03676
 Alpha virt. eigenvalues --   -0.02816  -0.02367  -0.01972  -0.01936  -0.01089

 Mulliken charges:
               1
     1  N   -0.752746
     2  H    0.420386
     3  H    0.417310
     4  H    0.437108
     5  C   -0.117855
     6  H    0.220193
     7  C    0.658390
     8  C   -0.377597
     9  H    0.185831
    10  H    0.212217
    11  O   -0.537028
    12  C    0.575517
    13  N   -0.732501
    14  H    0.383144
    15  H    0.351077
    16  O   -0.461439
    17  N   -0.585365
    18  H    0.378733
    19  C   -0.081798
    20  H    0.188280
    21  C    0.672087
    22  C   -0.075154
    23  H    0.170707
    24  O   -0.582910
    25  C   -0.259447
    26  H    0.157719
    27  H    0.114339
    28  C   -0.490897
    29  H    0.144854
    30  H    0.168040
    31  H    0.173885
    32  C   -0.468182
    33  H    0.156653
    34  H    0.159958
    35  H    0.161136
    36  N   -0.589621
    37  H    0.348370
    38  C   -0.068130
    39  H    0.193934
    40  C    0.636536
    41  C   -0.465859
    42  H    0.190210
    43  H    0.161424
    44  H    0.170787
    45  O   -0.532881
    46  N   -0.614298
    47  H    0.374371
    48  C   -0.072833
    49  H    0.172376
    50  C    0.655162
    51  C    0.112664
    52  H    0.161420
    53  O   -0.555041
    54  C   -0.497291
    55  H    0.226012
    56  H    0.157617
    57  H    0.138399
    58  O   -0.637432
    59  H    0.391718
    60  N   -0.610319
    61  H    0.380745
    62  C   -0.069369
    63  H    0.184172
    64  C    0.619603
    65  C   -0.061627
    66  H    0.155982
    67  H    0.155167
    68  O   -0.523820
    69  O   -0.631806
    70  H    0.401091
    71  N   -0.597665
    72  H    0.378930
    73  C   -0.251037
    74  H    0.182773
    75  H    0.201733
    76  C    0.616460
    77  O   -0.516209
    78  N   -0.605815
    79  H    0.336081
    80  C   -0.014237
    81  H    0.191266
    82  C    0.600591
    83  C   -0.303736
    84  H    0.156467
    85  H    0.150602
    86  O   -0.465721
    87  C   -0.274609
    88  H    0.163680
    89  H    0.135030
    90  C   -0.238515
    91  H    0.145729
    92  H    0.125204
    93  C   -0.144593
    94  H    0.113550
    95  H    0.142848
    96  N   -0.718115
    97  H    0.300617
    98  H    0.299958
    99  O   -0.568505
   100  H    0.415156
 Sum of Mulliken charges =   1.00000

 Dipole moment (field-independent basis, Debye):
    X=            -24.5732    Y=             -2.9320    Z=             10.5287  Tot=             26.8941
 Quadrupole moment (field-independent basis, Debye-Ang):
   XX=            -50.3604   YY=           -250.5700   ZZ=           -218.5349
   XY=             -5.8471   XZ=            -90.1198   YZ=              0.4584

 Normal termination of Gaussian 16 at Fri May 27 02:48:54 2022.
