 Gaussian 16, Revision C.01,
 Gaussian 16:  ES64L-G16RevC.01  3-Jul-2019

 -------------------------------------------------------------------
 # B3LYP/6-31G* guess=read geom=check nosymm integral(ultrafinegrid)
 -------------------------------------------------------------------

 ------------------------------------------------------
 Candidate Structure: Conf:879 Charge calc in gas phase
 ------------------------------------------------------
 Structure from the checkpoint file:  "conf-879.chk"
 Charge =  1 Multiplicity = 1

                          Input orientation:
 ---------------------------------------------------------------------
 Center     Atomic      Atomic             Coordinates (Angstroms)
 Number     Number       Type             X           Y           Z
 ---------------------------------------------------------------------
      1          7           0       -8.961818   -0.302090    1.379406
      2          1           0       -8.623029    0.239384    2.243312
      3          1           0       -9.594762   -1.058736    1.647255
      4          1           0       -9.446401    0.348584    0.737089
      5          6           0       -7.640963   -0.775907    0.808712
      6          1           0       -7.600460   -1.863052    0.913929
      7          6           0       -6.601033   -0.120059    1.777307
      8          6           0       -7.494829   -0.380125   -0.674897
      9          1           0       -6.475390   -0.597883   -1.002568
     10          1           0       -8.177482   -0.983060   -1.284189
     11          8           0       -7.058959    0.544013    2.721589
     12          6           0       -7.746337    1.123878   -0.829068
     13          7           0       -9.067746    1.442948   -1.133255
     14          1           0       -9.225415    2.436649   -1.285802
     15          1           0       -9.559625    0.852209   -1.796987
     16          8           0       -6.916168    1.952955   -0.524740
     17          7           0       -5.325957   -0.364284    1.533644
     18          1           0       -4.998259   -0.857128    0.697622
     19          6           0       -4.202029    0.230596    2.264511
     20          1           0       -4.438574    1.282943    2.456295
     21          6           0       -3.031696    0.124961    1.255427
     22          6           0       -3.955892   -0.486804    3.627995
     23          1           0       -4.945292   -0.506851    4.105449
     24          8           0       -3.137891   -0.622106    0.273739
     25          6           0       -3.033012    0.336356    4.552800
     26          1           0       -3.338865    1.391872    4.512939
     27          1           0       -1.997741    0.296523    4.191931
     28          6           0       -3.476286   -1.933051    3.438692
     29          1           0       -2.465432   -1.968187    3.016021
     30          1           0       -3.453304   -2.461148    4.395921
     31          1           0       -4.136964   -2.495724    2.769803
     32          6           0       -3.067102   -0.121624    6.016339
     33          1           0       -2.441172    0.530421    6.633622
     34          1           0       -4.086162   -0.086763    6.420004
     35          1           0       -2.691078   -1.142975    6.135955
     36          7           0       -1.948801    0.866904    1.518368
     37          1           0       -1.872403    1.436121    2.358447
     38          6           0       -0.717631    0.809542    0.739645
     39          1           0       -0.530786   -0.233644    0.461427
     40          6           0        0.391009    1.310646    1.688600
     41          6           0       -0.799535    1.667639   -0.536115
     42          1           0        0.137207    1.626048   -1.101673
     43          1           0       -1.605817    1.295399   -1.173500
     44          1           0       -1.001084    2.712973   -0.281068
     45          8           0        0.102162    1.894960    2.730349
     46          7           0        1.660537    1.048084    1.281366
     47          1           0        1.811653    0.772990    0.313773
     48          6           0        2.829950    1.708651    1.864368
     49          1           0        2.468954    2.397716    2.632680
     50          6           0        3.518371    2.452045    0.709966
     51          6           0        3.756216    0.652887    2.545348
     52          1           0        4.168533    0.005832    1.757575
     53          8           0        3.386041    2.049581   -0.455224
     54          6           0        4.904087    1.276603    3.327112
     55          1           0        5.631553    1.742592    2.659228
     56          1           0        5.416961    0.487832    3.884339
     57          1           0        4.532964    2.010767    4.052559
     58          8           0        2.987695   -0.101362    3.471216
     59          1           0        2.257160   -0.502052    2.973573
     60          7           0        4.238101    3.543755    1.031532
     61          1           0        4.417638    3.792072    1.999296
     62          6           0        4.987973    4.326962    0.048918
     63          1           0        4.381479    4.398663   -0.860042
     64          6           0        6.325046    3.623438   -0.272689
     65          6           0        5.246903    5.715528    0.649369
     66          1           0        4.294794    6.234704    0.795418
     67          1           0        5.858802    6.303143   -0.047881
     68          8           0        7.386790    3.993597    0.231249
     69          8           0        5.855397    5.598946    1.923557
     70          1           0        6.730543    5.203931    1.739476
     71          7           0        6.225656    2.588414   -1.147913
     72          1           0        5.286473    2.223085   -1.295665
     73          6           0        7.339536    1.686393   -1.333159
     74          1           0        7.289355    1.246304   -2.335534
     75          1           0        8.263262    2.267560   -1.264893
     76          6           0        7.349201    0.556977   -0.284115
     77          8           0        6.412478    0.378523    0.487997
     78          7           0        8.454152   -0.235130   -0.328460
     79          1           0        9.271818    0.083417   -0.838515
     80          6           0        8.725140   -1.251570    0.679080
     81          1           0        8.096193   -1.038607    1.549346
     82          6           0       10.190928   -1.118130    1.074192
     83          6           0        8.441516   -2.694246    0.193136
     84          1           0        9.094747   -2.910230   -0.663653
     85          1           0        8.733063   -3.381462    0.996440
     86          8           0       11.018330   -0.498778    0.439485
     87          6           0        6.978646   -2.937215   -0.194904
     88          1           0        6.329001   -2.677107    0.651537
     89          1           0        6.701467   -2.259035   -1.012215
     90          6           0        6.723252   -4.388998   -0.618655
     91          1           0        6.957281   -5.074847    0.205328
     92          1           0        7.402322   -4.653863   -1.443836
     93          6           0        5.280212   -4.641441   -1.061336
     94          1           0        4.601138   -4.391099   -0.235382
     95          1           0        5.032110   -3.951132   -1.890427
     96          7           0        5.082272   -6.058844   -1.382726
     97          1           0        5.642995   -6.305280   -2.197994
     98          1           0        4.113134   -6.222726   -1.650640
     99          8           0       10.474932   -1.805964    2.195911
    100          1           0       11.432327   -1.701773    2.357839
 ---------------------------------------------------------------------

 SCF Done:  E(RB3LYP) =  -2418.43532120     A.U. after    1 cycles

 Alpha  occ. eigenvalues --  -19.26940 -19.26404 -19.25661 -19.21744 -19.20246
 Alpha  occ. eigenvalues --  -19.20123 -19.19415 -19.19352 -19.19216 -19.18160
 Alpha  occ. eigenvalues --  -19.17599 -14.59480 -14.50485 -14.49032 -14.45156
 Alpha  occ. eigenvalues --  -14.43843 -14.43445 -14.41608 -14.41595 -14.35209
 Alpha  occ. eigenvalues --  -10.43858 -10.43677 -10.42097 -10.38732 -10.38023
 Alpha  occ. eigenvalues --  -10.37217 -10.36250 -10.36077 -10.34863 -10.34697
 Alpha  occ. eigenvalues --  -10.33902 -10.32160 -10.29779 -10.29599 -10.29376
 Alpha  occ. eigenvalues --  -10.29365 -10.29009 -10.28722 -10.28708 -10.26290
 Alpha  occ. eigenvalues --  -10.26209 -10.25949 -10.24889 -10.24512 -10.24182
 Alpha  occ. eigenvalues --  -10.22886 -10.22252 -10.22240  -1.19467  -1.18199
 Alpha  occ. eigenvalues --   -1.16655  -1.13907  -1.13387  -1.12169  -1.11098
 Alpha  occ. eigenvalues --   -1.09982  -1.09165  -1.07698  -1.07204  -1.06686
 Alpha  occ. eigenvalues --   -1.05871  -1.04898  -1.01796  -1.00144  -0.99513
 Alpha  occ. eigenvalues --   -0.98307  -0.97998  -0.94619  -0.91923  -0.90376
 Alpha  occ. eigenvalues --   -0.86439  -0.85484  -0.84903  -0.84020  -0.82048
 Alpha  occ. eigenvalues --   -0.81638  -0.80835  -0.79318  -0.77782  -0.76886
 Alpha  occ. eigenvalues --   -0.75003  -0.74323  -0.73883  -0.73649  -0.72899
 Alpha  occ. eigenvalues --   -0.72103  -0.70404  -0.69846  -0.68519  -0.67714
 Alpha  occ. eigenvalues --   -0.67445  -0.66863  -0.66658  -0.65865  -0.65604
 Alpha  occ. eigenvalues --   -0.65239  -0.64684  -0.63885  -0.63818  -0.63660
 Alpha  occ. eigenvalues --   -0.62613  -0.62076  -0.60568  -0.59736  -0.59456
 Alpha  occ. eigenvalues --   -0.58428  -0.57993  -0.57617  -0.57356  -0.56604
 Alpha  occ. eigenvalues --   -0.56030  -0.55811  -0.55432  -0.55181  -0.55036
 Alpha  occ. eigenvalues --   -0.54456  -0.54158  -0.53660  -0.53530  -0.53468
 Alpha  occ. eigenvalues --   -0.53004  -0.52836  -0.52548  -0.52268  -0.52166
 Alpha  occ. eigenvalues --   -0.51592  -0.51410  -0.51303  -0.50555  -0.50115
 Alpha  occ. eigenvalues --   -0.49907  -0.49715  -0.49418  -0.48895  -0.48504
 Alpha  occ. eigenvalues --   -0.48190  -0.47813  -0.47423  -0.47101  -0.46731
 Alpha  occ. eigenvalues --   -0.46556  -0.46415  -0.46130  -0.45500  -0.45409
 Alpha  occ. eigenvalues --   -0.45296  -0.45053  -0.44813  -0.44353  -0.44008
 Alpha  occ. eigenvalues --   -0.43795  -0.43631  -0.43201  -0.42957  -0.42837
 Alpha  occ. eigenvalues --   -0.42591  -0.42257  -0.41925  -0.41568  -0.41219
 Alpha  occ. eigenvalues --   -0.40759  -0.40422  -0.39723  -0.39520  -0.38988
 Alpha  occ. eigenvalues --   -0.38837  -0.38415  -0.38292  -0.37840  -0.37707
 Alpha  occ. eigenvalues --   -0.37140  -0.35970  -0.35347  -0.35052  -0.34285
 Alpha  occ. eigenvalues --   -0.34024  -0.33855  -0.33318  -0.32777  -0.32317
 Alpha  occ. eigenvalues --   -0.31484  -0.31394  -0.30731  -0.30093  -0.27397
 Alpha virt. eigenvalues --   -0.13739  -0.12628  -0.09692  -0.07520  -0.06431
 Alpha virt. eigenvalues --   -0.06070  -0.05635  -0.04918  -0.04877  -0.03854
 Alpha virt. eigenvalues --   -0.03340  -0.02506  -0.01768  -0.00762   0.00034

 Mulliken charges:
               1
     1  N   -0.773848
     2  H    0.438989
     3  H    0.411275
     4  H    0.415313
     5  C   -0.119732
     6  H    0.231347
     7  C    0.677724
     8  C   -0.370953
     9  H    0.236123
    10  H    0.180871
    11  O   -0.544903
    12  C    0.539828
    13  N   -0.755553
    14  H    0.375070
    15  H    0.357982
    16  O   -0.420946
    17  N   -0.611944
    18  H    0.375608
    19  C   -0.068827
    20  H    0.194091
    21  C    0.635065
    22  C   -0.071155
    23  H    0.153004
    24  O   -0.560524
    25  C   -0.285229
    26  H    0.142004
    27  H    0.159892
    28  C   -0.464319
    29  H    0.161357
    30  H    0.170893
    31  H    0.137057
    32  C   -0.454385
    33  H    0.169187
    34  H    0.148643
    35  H    0.157131
    36  N   -0.618194
    37  H    0.374426
    38  C   -0.050614
    39  H    0.183528
    40  C    0.604855
    41  C   -0.454818
    42  H    0.171482
    43  H    0.182799
    44  H    0.168859
    45  O   -0.517191
    46  N   -0.629274
    47  H    0.356921
    48  C   -0.093056
    49  H    0.191197
    50  C    0.651689
    51  C    0.143474
    52  H    0.154861
    53  O   -0.570148
    54  C   -0.474376
    55  H    0.172282
    56  H    0.174460
    57  H    0.148643
    58  O   -0.617950
    59  H    0.393570
    60  N   -0.594687
    61  H    0.361531
    62  C   -0.091616
    63  H    0.179325
    64  C    0.629502
    65  C   -0.052578
    66  H    0.157162
    67  H    0.156686
    68  O   -0.537256
    69  O   -0.635276
    70  H    0.424136
    71  N   -0.582724
    72  H    0.373887
    73  C   -0.256551
    74  H    0.185531
    75  H    0.209202
    76  C    0.614500
    77  O   -0.523095
    78  N   -0.598358
    79  H    0.350896
    80  C   -0.045456
    81  H    0.198156
    82  C    0.583231
    83  C   -0.263744
    84  H    0.143459
    85  H    0.164629
    86  O   -0.465286
    87  C   -0.259835
    88  H    0.146645
    89  H    0.137784
    90  C   -0.251978
    91  H    0.153272
    92  H    0.126173
    93  C   -0.131664
    94  H    0.134787
    95  H    0.107599
    96  N   -0.713863
    97  H    0.294193
    98  H    0.294275
    99  O   -0.558857
   100  H    0.422702
 Sum of Mulliken charges =   1.00000

 Dipole moment (field-independent basis, Debye):
    X=            -29.1658    Y=             -3.1388    Z=             -1.3323  Tot=             29.3644
 Quadrupole moment (field-independent basis, Debye-Ang):
   XX=             86.6404   YY=           -281.5694   ZZ=           -268.8336
   XY=              3.2842   XZ=            -17.5536   YZ=            -10.1705

 Normal termination of Gaussian 16 at Fri May 27 02:48:57 2022.
