 Gaussian 16, Revision C.01,
 Gaussian 16:  ES64L-G16RevC.01  3-Jul-2019

 -------------------------------------------------------------------
 # B3LYP/6-31G* guess=read geom=check nosymm integral(ultrafinegrid)
 -------------------------------------------------------------------

 ------------------------------------------------------
 Candidate Structure: Conf:472 Charge calc in gas phase
 ------------------------------------------------------
 Structure from the checkpoint file:  "conf-472.chk"
 Charge =  1 Multiplicity = 1

                          Input orientation:
 ---------------------------------------------------------------------
 Center     Atomic      Atomic             Coordinates (Angstroms)
 Number     Number       Type             X           Y           Z
 ---------------------------------------------------------------------
      1          7           0       -3.329976    0.950409    6.669299
      2          1           0       -2.488191    0.935636    7.253073
      3          1           0       -4.115927    0.587736    7.215723
      4          1           0       -3.504307    1.958383    6.344470
      5          6           0       -3.143833    0.259166    5.331862
      6          1           0       -2.281705   -0.406914    5.400874
      7          6           0       -2.859962    1.468365    4.386643
      8          6           0       -4.428387   -0.517072    4.969162
      9          1           0       -4.517505   -1.395065    5.621387
     10          1           0       -5.302306    0.124947    5.113874
     11          8           0       -3.192826    2.589251    4.808566
     12          6           0       -4.436427   -0.906329    3.477611
     13          7           0       -3.619543   -1.953011    3.149903
     14          1           0       -3.596947   -2.218792    2.171571
     15          1           0       -3.376141   -2.669626    3.820576
     16          8           0       -5.034262   -0.228532    2.664940
     17          7           0       -2.287013    1.195375    3.227463
     18          1           0       -2.106441    0.233780    2.925835
     19          6           0       -2.133503    2.154810    2.127080
     20          1           0       -3.003255    2.817521    2.139800
     21          6           0       -2.154614    1.268182    0.864075
     22          6           0       -0.832462    3.002417    2.295995
     23          1           0       -0.914906    3.416038    3.311178
     24          8           0       -1.908985    0.061902    0.951464
     25          6           0       -0.742257    4.198727    1.323905
     26          1           0       -0.586006    3.831353    0.302058
     27          1           0        0.179888    4.735568    1.579177
     28          6           0        0.435851    2.139834    2.213008
     29          1           0        0.594461    1.762497    1.197556
     30          1           0        1.311227    2.738861    2.484494
     31          1           0        0.397624    1.283574    2.895797
     32          6           0       -1.910188    5.192977    1.381233
     33          1           0       -1.694444    6.072518    0.766189
     34          1           0       -2.856818    4.773944    1.013740
     35          1           0       -2.089318    5.540489    2.405665
     36          7           0       -2.466668    1.879137   -0.298421
     37          1           0       -2.506262    2.889910   -0.312964
     38          6           0       -2.279905    1.206913   -1.578681
     39          1           0       -2.697832    0.200948   -1.477628
     40          6           0       -0.769486    1.105353   -1.894485
     41          6           0       -3.013719    1.974337   -2.685689
     42          1           0       -2.902552    1.459273   -3.643448
     43          1           0       -4.080221    2.052779   -2.454117
     44          1           0       -2.599603    2.982980   -2.798472
     45          8           0        0.025303    1.939505   -1.445838
     46          7           0       -0.423215    0.099196   -2.722113
     47          1           0       -1.073206   -0.673022   -2.845984
     48          6           0        0.966479   -0.286064   -3.000847
     49          1           0        1.545254   -0.183362   -2.072071
     50          6           0        1.645561    0.622451   -4.057523
     51          6           0        0.973565   -1.765468   -3.481460
     52          1           0        0.743031   -1.768271   -4.548932
     53          8           0        2.081226    0.163654   -5.117482
     54          6           0        2.318156   -2.437818   -3.241620
     55          1           0        3.127257   -1.858787   -3.691213
     56          1           0        2.314045   -3.445162   -3.668733
     57          1           0        2.527480   -2.513523   -2.165542
     58          8           0       -0.100819   -2.497865   -2.873155
     59          1           0        0.178165   -2.736055   -1.973219
     60          7           0        1.752025    1.922354   -3.709900
     61          1           0        1.410793    2.193072   -2.787974
     62          6           0        2.419635    2.924223   -4.541870
     63          1           0        2.207073    2.696468   -5.591268
     64          6           0        3.946137    2.852952   -4.310424
     65          6           0        1.886154    4.322685   -4.190812
     66          1           0        1.961646    4.469778   -3.100893
     67          1           0        0.828035    4.379722   -4.465718
     68          8           0        4.560377    3.748231   -3.728657
     69          8           0        2.561906    5.333022   -4.900733
     70          1           0        3.474313    5.311052   -4.557757
     71          7           0        4.534140    1.721461   -4.785957
     72          1           0        3.903442    0.990888   -5.113094
     73          6           0        5.838446    1.325028   -4.315642
     74          1           0        6.382096    0.797448   -5.108286
     75          1           0        6.396973    2.232537   -4.067186
     76          6           0        5.736445    0.419053   -3.072654
     77          8           0        4.661397    0.035378   -2.626738
     78          7           0        6.939068    0.049045   -2.541587
     79          1           0        7.769404    0.543259   -2.844116
     80          6           0        7.027522   -0.698447   -1.295131
     81          1           0        6.112494   -1.286261   -1.217613
     82          6           0        7.055850    0.211565   -0.067688
     83          6           0        8.264248   -1.626941   -1.312845
     84          1           0        8.188886   -2.232894   -2.224409
     85          1           0        9.165510   -1.007106   -1.418055
     86          8           0        6.590778   -0.067630    1.002528
     87          6           0        8.418222   -2.545913   -0.089917
     88          1           0        9.356387   -3.103057   -0.215600
     89          1           0        8.539815   -1.943313    0.818989
     90          6           0        7.262169   -3.534871    0.109755
     91          1           0        7.089459   -4.088990   -0.826379
     92          1           0        6.333406   -3.000952    0.339938
     93          6           0        7.525777   -4.532932    1.240007
     94          1           0        8.480973   -5.056025    1.046645
     95          1           0        7.656654   -3.982958    2.180755
     96          7           0        6.378499   -5.434444    1.408855
     97          1           0        6.544300   -6.051294    2.202963
     98          1           0        6.309597   -6.046437    0.595647
     99          8           0        7.725500    1.363624   -0.302531
    100          1           0        7.723538    1.862419    0.536550
 ---------------------------------------------------------------------

 SCF Done:  E(RB3LYP) =  -2418.41873624     A.U. after    1 cycles

 Alpha  occ. eigenvalues --  -19.27449 -19.25530 -19.24168 -19.22502 -19.22351
 Alpha  occ. eigenvalues --  -19.20736 -19.19798 -19.18151 -19.17884 -19.17675
 Alpha  occ. eigenvalues --  -19.17253 -14.61157 -14.49657 -14.48394 -14.46225
 Alpha  occ. eigenvalues --  -14.44241 -14.42262 -14.41820 -14.40632 -14.35614
 Alpha  occ. eigenvalues --  -10.44132 -10.42570 -10.42317 -10.39385 -10.37585
 Alpha  occ. eigenvalues --  -10.37387 -10.35856 -10.35246 -10.34915 -10.34277
 Alpha  occ. eigenvalues --  -10.33959 -10.32788 -10.30571 -10.30265 -10.29529
 Alpha  occ. eigenvalues --  -10.28948 -10.28488 -10.28322 -10.28031 -10.27308
 Alpha  occ. eigenvalues --  -10.26404 -10.25804 -10.25459 -10.25190 -10.25074
 Alpha  occ. eigenvalues --  -10.23620 -10.23312 -10.22594  -1.20011  -1.16632
 Alpha  occ. eigenvalues --   -1.16231  -1.14908  -1.14329  -1.12252  -1.10150
 Alpha  occ. eigenvalues --   -1.09722  -1.09383  -1.08733  -1.07713  -1.06451
 Alpha  occ. eigenvalues --   -1.05352  -1.03185  -1.02711  -1.00499  -0.98814
 Alpha  occ. eigenvalues --   -0.98441  -0.97147  -0.94745  -0.92249  -0.90687
 Alpha  occ. eigenvalues --   -0.87005  -0.86035  -0.84983  -0.84067  -0.82223
 Alpha  occ. eigenvalues --   -0.81922  -0.80686  -0.80027  -0.77593  -0.76787
 Alpha  occ. eigenvalues --   -0.75324  -0.74974  -0.74206  -0.73911  -0.73088
 Alpha  occ. eigenvalues --   -0.71182  -0.70939  -0.69890  -0.69508  -0.68874
 Alpha  occ. eigenvalues --   -0.68015  -0.67281  -0.66595  -0.66089  -0.66015
 Alpha  occ. eigenvalues --   -0.65604  -0.64799  -0.64138  -0.63865  -0.63014
 Alpha  occ. eigenvalues --   -0.62452  -0.62204  -0.60524  -0.59711  -0.59543
 Alpha  occ. eigenvalues --   -0.59333  -0.58901  -0.57984  -0.57134  -0.56748
 Alpha  occ. eigenvalues --   -0.56450  -0.55755  -0.55205  -0.54946  -0.54590
 Alpha  occ. eigenvalues --   -0.54119  -0.53710  -0.53585  -0.53367  -0.52984
 Alpha  occ. eigenvalues --   -0.52782  -0.52641  -0.52556  -0.52144  -0.51904
 Alpha  occ. eigenvalues --   -0.51345  -0.51199  -0.50844  -0.50670  -0.50565
 Alpha  occ. eigenvalues --   -0.50357  -0.50225  -0.49709  -0.49455  -0.48459
 Alpha  occ. eigenvalues --   -0.48225  -0.48003  -0.47712  -0.47567  -0.47392
 Alpha  occ. eigenvalues --   -0.47170  -0.46997  -0.46553  -0.45865  -0.45199
 Alpha  occ. eigenvalues --   -0.45109  -0.44739  -0.44686  -0.44626  -0.44160
 Alpha  occ. eigenvalues --   -0.44058  -0.43525  -0.43483  -0.43081  -0.42945
 Alpha  occ. eigenvalues --   -0.42761  -0.42386  -0.42234  -0.41746  -0.41563
 Alpha  occ. eigenvalues --   -0.40912  -0.40708  -0.39851  -0.39096  -0.38671
 Alpha  occ. eigenvalues --   -0.38644  -0.38210  -0.37782  -0.37702  -0.37611
 Alpha  occ. eigenvalues --   -0.37410  -0.36623  -0.36198  -0.35814  -0.34989
 Alpha  occ. eigenvalues --   -0.34543  -0.34158  -0.33523  -0.32262  -0.31268
 Alpha  occ. eigenvalues --   -0.30929  -0.30856  -0.30394  -0.29260  -0.27881
 Alpha virt. eigenvalues --   -0.13276  -0.12169  -0.11581  -0.08265  -0.07110
 Alpha virt. eigenvalues --   -0.06706  -0.05303  -0.05035  -0.04872  -0.03525
 Alpha virt. eigenvalues --   -0.03275  -0.02715  -0.02071  -0.01853  -0.00436

 Mulliken charges:
               1
     1  N   -0.756395
     2  H    0.418547
     3  H    0.415502
     4  H    0.437846
     5  C   -0.112949
     6  H    0.219085
     7  C    0.659992
     8  C   -0.380477
     9  H    0.185246
    10  H    0.213210
    11  O   -0.546293
    12  C    0.567818
    13  N   -0.733017
    14  H    0.378660
    15  H    0.348585
    16  O   -0.449725
    17  N   -0.598661
    18  H    0.385797
    19  C   -0.083690
    20  H    0.197841
    21  C    0.659481
    22  C   -0.075198
    23  H    0.147411
    24  O   -0.562559
    25  C   -0.293434
    26  H    0.171457
    27  H    0.159730
    28  C   -0.473466
    29  H    0.192132
    30  H    0.164256
    31  H    0.128954
    32  C   -0.469200
    33  H    0.172933
    34  H    0.131850
    35  H    0.160760
    36  N   -0.593172
    37  H    0.354709
    38  C   -0.060046
    39  H    0.181409
    40  C    0.641751
    41  C   -0.473955
    42  H    0.185269
    43  H    0.180575
    44  H    0.170920
    45  O   -0.549935
    46  N   -0.607781
    47  H    0.359497
    48  C   -0.092851
    49  H    0.190504
    50  C    0.662533
    51  C    0.112932
    52  H    0.185095
    53  O   -0.548645
    54  C   -0.477979
    55  H    0.196833
    56  H    0.164834
    57  H    0.137406
    58  O   -0.636318
    59  H    0.393462
    60  N   -0.629160
    61  H    0.382888
    62  C   -0.084831
    63  H    0.193084
    64  C    0.624910
    65  C   -0.034691
    66  H    0.128792
    67  H    0.146110
    68  O   -0.543959
    69  O   -0.625753
    70  H    0.417296
    71  N   -0.584436
    72  H    0.377135
    73  C   -0.259478
    74  H    0.184930
    75  H    0.208635
    76  C    0.613047
    77  O   -0.520338
    78  N   -0.598691
    79  H    0.338231
    80  C   -0.042141
    81  H    0.203476
    82  C    0.598915
    83  C   -0.289923
    84  H    0.159414
    85  H    0.145191
    86  O   -0.456597
    87  C   -0.271159
    88  H    0.142058
    89  H    0.153168
    90  C   -0.254679
    91  H    0.122155
    92  H    0.162558
    93  C   -0.137634
    94  H    0.115435
    95  H    0.143810
    96  N   -0.720049
    97  H    0.297208
    98  H    0.292110
    99  O   -0.571732
   100  H    0.415620
 Sum of Mulliken charges =   1.00000

 Dipole moment (field-independent basis, Debye):
    X=             -7.3455    Y=             -2.9181    Z=             23.1055  Tot=             24.4200
 Quadrupole moment (field-independent basis, Debye-Ang):
   XX=           -170.2585   YY=           -265.3539   ZZ=           -128.1726
   XY=            -20.0441   XZ=            -82.8512   YZ=             13.0823

 Normal termination of Gaussian 16 at Fri May 27 02:49:02 2022.
