 Gaussian 16, Revision C.01,
 Gaussian 16:  ES64L-G16RevC.01  3-Jul-2019

 -------------------------------------------------------------------
 # B3LYP/6-31G* guess=read geom=check nosymm integral(ultrafinegrid)
 -------------------------------------------------------------------

 ------------------------------------------------------
 Candidate Structure: Conf:306 Charge calc in gas phase
 ------------------------------------------------------
 Structure from the checkpoint file:  "conf-306.chk"
 Charge =  1 Multiplicity = 1

                          Input orientation:
 ---------------------------------------------------------------------
 Center     Atomic      Atomic             Coordinates (Angstroms)
 Number     Number       Type             X           Y           Z
 ---------------------------------------------------------------------
      1          7           0       -5.965986    4.452455    2.185432
      2          1           0       -5.009571    4.735367    1.871523
      3          1           0       -6.417930    5.209671    2.701387
      4          1           0       -6.518656    4.178673    1.316470
      5          6           0       -5.743308    3.202371    2.999060
      6          1           0       -6.077669    3.384147    4.023485
      7          6           0       -4.211844    2.956704    2.948453
      8          6           0       -6.514035    2.003981    2.388579
      9          1           0       -6.134813    1.077270    2.823502
     10          1           0       -7.576666    2.087440    2.641022
     11          8           0       -3.531701    3.623922    2.169134
     12          6           0       -6.427774    1.984758    0.861177
     13          7           0       -5.928296    0.885187    0.286430
     14          1           0       -5.866200    0.877380   -0.725123
     15          1           0       -5.346155    0.233515    0.814659
     16          8           0       -6.847719    2.969277    0.226200
     17          7           0       -3.757999    1.981084    3.750941
     18          1           0       -4.445403    1.446653    4.268874
     19          6           0       -2.500537    1.260255    3.497123
     20          1           0       -1.703943    1.997077    3.360392
     21          6           0       -2.709450    0.440341    2.203746
     22          6           0       -2.190659    0.358317    4.725690
     23          1           0       -3.086430   -0.265574    4.882338
     24          8           0       -3.802703   -0.108108    1.991908
     25          6           0       -1.966550    1.228608    5.983439
     26          1           0       -2.754262    1.990360    6.048577
     27          1           0       -1.023069    1.778622    5.862269
     28          6           0       -1.003286   -0.579713    4.465614
     29          1           0       -0.089040   -0.006238    4.279138
     30          1           0       -0.833260   -1.217961    5.336517
     31          1           0       -1.166730   -1.237418    3.607208
     32          6           0       -1.939687    0.439231    7.297660
     33          1           0       -1.841800    1.120417    8.149240
     34          1           0       -2.863252   -0.136195    7.437156
     35          1           0       -1.100191   -0.261032    7.343142
     36          7           0       -1.658343    0.365419    1.371371
     37          1           0       -0.794881    0.848630    1.618269
     38          6           0       -1.653176   -0.501750    0.189197
     39          1           0       -2.337704   -1.328103    0.413066
     40          6           0       -0.235735   -1.109879    0.081149
     41          6           0       -2.157817    0.242180   -1.054664
     42          1           0       -2.278139   -0.437348   -1.905680
     43          1           0       -3.136699    0.679212   -0.840534
     44          1           0       -1.483660    1.056194   -1.341111
     45          8           0        0.362162   -1.463568    1.107164
     46          7           0        0.295744   -1.217141   -1.151342
     47          1           0       -0.167314   -0.821686   -1.963746
     48          6           0        1.716915   -1.504962   -1.397300
     49          1           0        2.032200   -2.324417   -0.746058
     50          6           0        2.464757   -0.202592   -1.045074
     51          6           0        1.896753   -1.878084   -2.883201
     52          1           0        2.969608   -1.886368   -3.108268
     53          8           0        2.641136    0.695766   -1.880201
     54          6           0        1.298373   -3.234129   -3.226732
     55          1           0        1.777158   -4.027273   -2.642766
     56          1           0        1.460777   -3.444756   -4.286771
     57          1           0        0.221038   -3.258727   -3.030399
     58          8           0        1.241475   -0.885208   -3.683297
     59          1           0        1.728572   -0.057596   -3.491740
     60          7           0        2.768592   -0.063685    0.260252
     61          1           0        2.635575   -0.867953    0.859513
     62          6           0        3.113375    1.218576    0.875414
     63          1           0        2.655350    1.992612    0.250592
     64          6           0        4.647998    1.390439    0.869499
     65          6           0        2.536943    1.279414    2.296172
     66          1           0        2.658996    2.290673    2.689631
     67          1           0        3.098497    0.604181    2.952029
     68          8           0        5.318523    1.274034    1.886096
     69          8           0        1.136768    0.979804    2.334219
     70          1           0        1.020963    0.026396    2.152038
     71          7           0        5.149676    1.651369   -0.373809
     72          1           0        4.490866    1.537766   -1.141429
     73          6           0        6.535485    1.366529   -0.677621
     74          1           0        6.974053    2.171576   -1.278782
     75          1           0        7.076851    1.320619    0.272931
     76          6           0        6.655688    0.015025   -1.408712
     77          8           0        5.766919   -0.829413   -1.351435
     78          7           0        7.799126   -0.139977   -2.127167
     79          1           0        8.560581    0.521394   -2.020294
     80          6           0        8.146062   -1.389889   -2.787291
     81          1           0        7.588755   -2.195678   -2.299192
     82          6           0        9.638438   -1.613170   -2.585324
     83          6           0        7.809808   -1.393968   -4.301966
     84          1           0        8.417269   -0.623272   -4.797258
     85          1           0        8.126476   -2.360765   -4.712214
     86          8           0       10.417101   -0.758848   -2.217726
     87          6           0        6.323547   -1.155848   -4.588372
     88          1           0        5.716755   -1.902106   -4.066259
     89          1           0        6.029111   -0.182046   -4.176652
     90          6           0        5.983202   -1.180711   -6.082775
     91          1           0        6.229752   -2.165253   -6.508193
     92          1           0        6.603121   -0.451228   -6.623316
     93          6           0        4.508949   -0.861625   -6.362737
     94          1           0        4.265421    0.110495   -5.914662
     95          1           0        4.364442   -0.749892   -7.451273
     96          7           0        3.615252   -1.859910   -5.756469
     97          1           0        3.619488   -2.710061   -6.318820
     98          1           0        2.656282   -1.517128   -5.750225
     99          8           0       10.007843   -2.868111   -2.904845
    100          1           0       10.976222   -2.916104   -2.788377
 ---------------------------------------------------------------------

 SCF Done:  E(RB3LYP) =  -2418.46095570     A.U. after    2 cycles

 Alpha  occ. eigenvalues --  -19.27134 -19.25788 -19.25763 -19.23384 -19.23264
 Alpha  occ. eigenvalues --  -19.21973 -19.21314 -19.20942 -19.20235 -19.17936
 Alpha  occ. eigenvalues --  -19.17315 -14.57663 -14.50023 -14.48323 -14.46971
 Alpha  occ. eigenvalues --  -14.46184 -14.44781 -14.41703 -14.41497 -14.36027
 Alpha  occ. eigenvalues --  -10.43855 -10.43198 -10.41290 -10.40074 -10.39323
 Alpha  occ. eigenvalues --  -10.38145 -10.37581 -10.35170 -10.34981 -10.34818
 Alpha  occ. eigenvalues --  -10.34598 -10.34134 -10.31788 -10.31290 -10.30822
 Alpha  occ. eigenvalues --  -10.30775 -10.29836 -10.29438 -10.28713 -10.28568
 Alpha  occ. eigenvalues --  -10.27277 -10.25675 -10.25489 -10.25380 -10.24165
 Alpha  occ. eigenvalues --  -10.24162 -10.22602 -10.22264  -1.19365  -1.17357
 Alpha  occ. eigenvalues --   -1.16771  -1.14842  -1.13879  -1.12455  -1.12247
 Alpha  occ. eigenvalues --   -1.10308  -1.09749  -1.08971  -1.08568  -1.07792
 Alpha  occ. eigenvalues --   -1.06731  -1.03765  -1.03236  -1.02276  -1.00931
 Alpha  occ. eigenvalues --   -0.98323  -0.98029  -0.94016  -0.92518  -0.91056
 Alpha  occ. eigenvalues --   -0.88413  -0.85689  -0.85232  -0.84378  -0.83546
 Alpha  occ. eigenvalues --   -0.82060  -0.81121  -0.79384  -0.78675  -0.78024
 Alpha  occ. eigenvalues --   -0.76444  -0.74293  -0.73735  -0.73533  -0.73250
 Alpha  occ. eigenvalues --   -0.72221  -0.71718  -0.69985  -0.69373  -0.69150
 Alpha  occ. eigenvalues --   -0.68162  -0.67591  -0.67152  -0.66689  -0.66351
 Alpha  occ. eigenvalues --   -0.66303  -0.64998  -0.64081  -0.63987  -0.63420
 Alpha  occ. eigenvalues --   -0.62599  -0.62316  -0.61419  -0.60941  -0.59885
 Alpha  occ. eigenvalues --   -0.59661  -0.59563  -0.58897  -0.58086  -0.57769
 Alpha  occ. eigenvalues --   -0.57485  -0.56788  -0.56186  -0.55702  -0.55263
 Alpha  occ. eigenvalues --   -0.55115  -0.54649  -0.54236  -0.54072  -0.53905
 Alpha  occ. eigenvalues --   -0.53592  -0.53420  -0.52967  -0.52723  -0.52439
 Alpha  occ. eigenvalues --   -0.51950  -0.51853  -0.51554  -0.51266  -0.50925
 Alpha  occ. eigenvalues --   -0.50867  -0.50698  -0.50279  -0.49994  -0.49565
 Alpha  occ. eigenvalues --   -0.49443  -0.49269  -0.48922  -0.48780  -0.48306
 Alpha  occ. eigenvalues --   -0.47833  -0.47253  -0.46856  -0.46819  -0.46297
 Alpha  occ. eigenvalues --   -0.46256  -0.45648  -0.45522  -0.45296  -0.44965
 Alpha  occ. eigenvalues --   -0.44827  -0.44715  -0.44644  -0.43610  -0.43361
 Alpha  occ. eigenvalues --   -0.42549  -0.42193  -0.42060  -0.41721  -0.41460
 Alpha  occ. eigenvalues --   -0.41107  -0.41085  -0.40525  -0.40458  -0.40450
 Alpha  occ. eigenvalues --   -0.39908  -0.39435  -0.38855  -0.37945  -0.37824
 Alpha  occ. eigenvalues --   -0.37675  -0.37154  -0.36951  -0.36603  -0.36260
 Alpha  occ. eigenvalues --   -0.36106  -0.34999  -0.34631  -0.33903  -0.33211
 Alpha  occ. eigenvalues --   -0.32243  -0.31245  -0.30789  -0.30612  -0.28185
 Alpha virt. eigenvalues --   -0.13092  -0.12122  -0.09601  -0.09103  -0.08761
 Alpha virt. eigenvalues --   -0.06435  -0.05468  -0.05036  -0.04400  -0.03433
 Alpha virt. eigenvalues --   -0.02988  -0.02429  -0.00753  -0.00282   0.00495

 Mulliken charges:
               1
     1  N   -0.774897
     2  H    0.424995
     3  H    0.406301
     4  H    0.444390
     5  C   -0.120129
     6  H    0.218200
     7  C    0.645163
     8  C   -0.385018
     9  H    0.208540
    10  H    0.220829
    11  O   -0.515037
    12  C    0.611365
    13  N   -0.740847
    14  H    0.366632
    15  H    0.412296
    16  O   -0.538458
    17  N   -0.582624
    18  H    0.348250
    19  C   -0.061365
    20  H    0.199035
    21  C    0.637408
    22  C   -0.106388
    23  H    0.133071
    24  O   -0.589812
    25  C   -0.259175
    26  H    0.129586
    27  H    0.154948
    28  C   -0.494912
    29  H    0.172983
    30  H    0.170065
    31  H    0.172347
    32  C   -0.452755
    33  H    0.163310
    34  H    0.145221
    35  H    0.165791
    36  N   -0.602918
    37  H    0.385834
    38  C   -0.037253
    39  H    0.205770
    40  C    0.612382
    41  C   -0.479837
    42  H    0.173894
    43  H    0.156291
    44  H    0.178677
    45  O   -0.557185
    46  N   -0.598762
    47  H    0.362108
    48  C   -0.081388
    49  H    0.185681
    50  C    0.662452
    51  C    0.100623
    52  H    0.197540
    53  O   -0.567977
    54  C   -0.453109
    55  H    0.155774
    56  H    0.172730
    57  H    0.144616
    58  O   -0.661158
    59  H    0.423381
    60  N   -0.586918
    61  H    0.353940
    62  C   -0.093940
    63  H    0.182676
    64  C    0.629443
    65  C   -0.072861
    66  H    0.177425
    67  H    0.174556
    68  O   -0.511324
    69  O   -0.669780
    70  H    0.440541
    71  N   -0.584734
    72  H    0.364372
    73  C   -0.253784
    74  H    0.171709
    75  H    0.221592
    76  C    0.608114
    77  O   -0.527820
    78  N   -0.603080
    79  H    0.349734
    80  C   -0.041960
    81  H    0.197258
    82  C    0.582716
    83  C   -0.265405
    84  H    0.140266
    85  H    0.160277
    86  O   -0.466694
    87  C   -0.246619
    88  H    0.169787
    89  H    0.130781
    90  C   -0.254668
    91  H    0.129793
    92  H    0.131692
    93  C   -0.142418
    94  H    0.135783
    95  H    0.123450
    96  N   -0.732672
    97  H    0.296191
    98  H    0.313240
    99  O   -0.560071
   100  H    0.421935
 Sum of Mulliken charges =   1.00000

 Dipole moment (field-independent basis, Debye):
    X=            -15.9184    Y=              8.2720    Z=              6.2886  Tot=             19.0097
 Quadrupole moment (field-independent basis, Debye-Ang):
   XX=           -119.5602   YY=           -227.6149   ZZ=           -213.5545
   XY=            -81.9362   XZ=            -95.4055   YZ=             44.3281

 Normal termination of Gaussian 16 at Fri May 27 02:49:24 2022.
