 Gaussian 16, Revision C.01,
 Gaussian 16:  ES64L-G16RevC.01  3-Jul-2019

 -------------------------------------------------------------------
 # B3LYP/6-31G* guess=read geom=check nosymm integral(ultrafinegrid)
 -------------------------------------------------------------------

 ------------------------------------------------------
 Candidate Structure: Conf:950 Charge calc in gas phase
 ------------------------------------------------------
 Structure from the checkpoint file:  "conf-950.chk"
 Charge =  1 Multiplicity = 1

                          Input orientation:
 ---------------------------------------------------------------------
 Center     Atomic      Atomic             Coordinates (Angstroms)
 Number     Number       Type             X           Y           Z
 ---------------------------------------------------------------------
      1          7           0       -5.627234    3.888511    5.404859
      2          1           0       -5.177847    4.118462    6.295111
      3          1           0       -6.618713    3.706535    5.578378
      4          1           0       -5.499094    4.706688    4.705435
      5          6           0       -4.919849    2.782712    4.650055
      6          1           0       -4.123601    2.377433    5.275994
      7          6           0       -4.313192    3.563849    3.438288
      8          6           0       -5.890780    1.653506    4.270915
      9          1           0       -6.551477    1.426259    5.118855
     10          1           0       -6.528573    1.945412    3.427508
     11          8           0       -4.659169    4.757856    3.324771
     12          6           0       -5.094773    0.380054    3.928786
     13          7           0       -5.829863   -0.694806    3.578731
     14          1           0       -5.342820   -1.548653    3.336462
     15          1           0       -6.837553   -0.683726    3.514174
     16          8           0       -3.869750    0.373579    3.999105
     17          7           0       -3.495052    2.911710    2.634199
     18          1           0       -3.269219    1.928483    2.811247
     19          6           0       -2.857843    3.523239    1.460693
     20          1           0       -3.565636    4.243925    1.042989
     21          6           0       -2.620519    2.364821    0.480927
     22          6           0       -1.544658    4.274459    1.865110
     23          1           0       -1.872649    4.976957    2.645331
     24          8           0       -2.500173    1.210732    0.903359
     25          6           0       -0.943012    5.113635    0.717359
     26          1           0       -0.565065    4.447657   -0.067984
     27          1           0       -0.053920    5.607083    1.129315
     28          6           0       -0.488228    3.331481    2.461918
     29          1           0       -0.081058    2.639494    1.718415
     30          1           0        0.345989    3.922322    2.855058
     31          1           0       -0.885422    2.735749    3.291265
     32          6           0       -1.862015    6.195024    0.132492
     33          1           0       -1.313292    6.820712   -0.578858
     34          1           0       -2.728079    5.787892   -0.407993
     35          1           0       -2.256693    6.852160    0.916811
     36          7           0       -2.555693    2.681366   -0.830921
     37          1           0       -2.507420    3.660292   -1.083536
     38          6           0       -2.032080    1.720147   -1.808133
     39          1           0       -2.676717    0.835833   -1.777626
     40          6           0       -0.590472    1.346909   -1.387689
     41          6           0       -2.046850    2.344186   -3.204145
     42          1           0       -1.710254    1.614638   -3.946333
     43          1           0       -3.056303    2.668769   -3.477312
     44          1           0       -1.366578    3.201707   -3.242659
     45          8           0        0.217191    2.226898   -1.101753
     46          7           0       -0.330787    0.021275   -1.351682
     47          1           0       -1.009095   -0.658211   -1.678762
     48          6           0        0.926716   -0.549422   -0.893324
     49          1           0        1.684950    0.236760   -0.937183
     50          6           0        1.229210   -1.727853   -1.828587
     51          6           0        0.775940   -1.039569    0.585441
     52          1           0        0.106924   -1.915421    0.562126
     53          8           0        0.305911   -2.440656   -2.227223
     54          6           0        2.111972   -1.432917    1.204047
     55          1           0        2.595608   -2.240519    0.646750
     56          1           0        1.953441   -1.767638    2.233107
     57          1           0        2.785608   -0.568739    1.230244
     58          8           0        0.226412   -0.021312    1.402120
     59          1           0       -0.682622    0.168069    1.108871
     60          7           0        2.525414   -1.929450   -2.150210
     61          1           0        3.267798   -1.347935   -1.773133
     62          6           0        2.981173   -3.059683   -2.937241
     63          1           0        2.417037   -3.954772   -2.654374
     64          6           0        4.470699   -3.241842   -2.651059
     65          6           0        2.756606   -2.816857   -4.464142
     66          1           0        3.227336   -1.863200   -4.737601
     67          1           0        1.677838   -2.731575   -4.619908
     68          8           0        5.140251   -2.364761   -2.107550
     69          8           0        3.235164   -3.885230   -5.257357
     70          1           0        4.167938   -3.684925   -5.486483
     71          7           0        4.992545   -4.425463   -3.090502
     72          1           0        4.398929   -4.919090   -3.752142
     73          6           0        6.418813   -4.498824   -3.330076
     74          1           0        6.948782   -4.187492   -2.426438
     75          1           0        6.689175   -5.538222   -3.544157
     76          6           0        6.824606   -3.610971   -4.524118
     77          8           0        6.012455   -3.282995   -5.393482
     78          7           0        8.122757   -3.239149   -4.548366
     79          1           0        8.734916   -3.526124   -3.796038
     80          6           0        8.689213   -2.386910   -5.587927
     81          1           0        7.994979   -2.414055   -6.430868
     82          6           0       10.028879   -2.914523   -6.087531
     83          6           0        8.865781   -0.919231   -5.123287
     84          1           0        9.568740   -0.898072   -4.278084
     85          1           0        9.343243   -0.372406   -5.945069
     86          8           0       10.532470   -2.594851   -7.136940
     87          6           0        7.550042   -0.238608   -4.726777
     88          1           0        6.857483   -0.269322   -5.579022
     89          1           0        7.068117   -0.803622   -3.918393
     90          6           0        7.755443    1.214245   -4.280144
     91          1           0        8.210154    1.805244   -5.085051
     92          1           0        8.464257    1.240160   -3.437970
     93          6           0        6.451968    1.894492   -3.854771
     94          1           0        5.757057    1.903239   -4.704792
     95          1           0        5.971893    1.287766   -3.063580
     96          7           0        6.700683    3.289143   -3.472972
     97          1           0        7.264131    3.314211   -2.623415
     98          1           0        5.820826    3.745880   -3.238127
     99          8           0       10.635332   -3.734017   -5.190428
    100          1           0       11.497706   -3.977763   -5.577950
 ---------------------------------------------------------------------

 SCF Done:  E(RB3LYP) =  -2418.43879432     A.U. after    3 cycles

 Alpha  occ. eigenvalues --  -19.27235 -19.25651 -19.25079 -19.22060 -19.19408
 Alpha  occ. eigenvalues --  -19.19173 -19.18822 -19.18765 -19.18565 -19.18293
 Alpha  occ. eigenvalues --  -19.17699 -14.60143 -14.49170 -14.48906 -14.45890
 Alpha  occ. eigenvalues --  -14.42984 -14.42981 -14.42256 -14.41961 -14.34733
 Alpha  occ. eigenvalues --  -10.43728 -10.43274 -10.41495 -10.38973 -10.37687
 Alpha  occ. eigenvalues --  -10.36376 -10.35837 -10.35706 -10.35040 -10.34965
 Alpha  occ. eigenvalues --  -10.33883 -10.31933 -10.29732 -10.29638 -10.29582
 Alpha  occ. eigenvalues --  -10.29127 -10.28875 -10.28438 -10.28383 -10.26579
 Alpha  occ. eigenvalues --  -10.25709 -10.25532 -10.24318 -10.24289 -10.24206
 Alpha  occ. eigenvalues --  -10.22928 -10.22515 -10.21821  -1.19677  -1.17042
 Alpha  occ. eigenvalues --   -1.16265  -1.14194  -1.13711  -1.10972  -1.10472
 Alpha  occ. eigenvalues --   -1.09938  -1.09288  -1.07239  -1.06871  -1.06224
 Alpha  occ. eigenvalues --   -1.05929  -1.03893  -1.02129  -0.99436  -0.99121
 Alpha  occ. eigenvalues --   -0.98781  -0.98410  -0.94478  -0.91424  -0.90128
 Alpha  occ. eigenvalues --   -0.86220  -0.85558  -0.84725  -0.83881  -0.82055
 Alpha  occ. eigenvalues --   -0.81837  -0.80660  -0.79345  -0.77843  -0.76736
 Alpha  occ. eigenvalues --   -0.74883  -0.74312  -0.73799  -0.73167  -0.72518
 Alpha  occ. eigenvalues --   -0.71049  -0.70456  -0.69890  -0.69077  -0.67661
 Alpha  occ. eigenvalues --   -0.67206  -0.66807  -0.66338  -0.65860  -0.65472
 Alpha  occ. eigenvalues --   -0.65213  -0.64971  -0.64309  -0.64188  -0.63378
 Alpha  occ. eigenvalues --   -0.62389  -0.62192  -0.60746  -0.59863  -0.59472
 Alpha  occ. eigenvalues --   -0.58799  -0.58218  -0.57953  -0.57184  -0.57044
 Alpha  occ. eigenvalues --   -0.56770  -0.56160  -0.55826  -0.55536  -0.54557
 Alpha  occ. eigenvalues --   -0.54225  -0.53889  -0.53526  -0.53073  -0.52721
 Alpha  occ. eigenvalues --   -0.52690  -0.52038  -0.51870  -0.51494  -0.51346
 Alpha  occ. eigenvalues --   -0.50935  -0.50751  -0.50591  -0.50004  -0.49896
 Alpha  occ. eigenvalues --   -0.49707  -0.49370  -0.49255  -0.48806  -0.48733
 Alpha  occ. eigenvalues --   -0.48298  -0.47910  -0.47470  -0.47321  -0.47101
 Alpha  occ. eigenvalues --   -0.46674  -0.46031  -0.45863  -0.45703  -0.44952
 Alpha  occ. eigenvalues --   -0.44766  -0.44666  -0.44420  -0.44228  -0.44078
 Alpha  occ. eigenvalues --   -0.43814  -0.43329  -0.43264  -0.42760  -0.42568
 Alpha  occ. eigenvalues --   -0.42221  -0.42017  -0.41683  -0.41254  -0.41011
 Alpha  occ. eigenvalues --   -0.40095  -0.39960  -0.39655  -0.39191  -0.38322
 Alpha  occ. eigenvalues --   -0.38275  -0.38038  -0.37859  -0.37699  -0.36954
 Alpha  occ. eigenvalues --   -0.36827  -0.36175  -0.35635  -0.34600  -0.34366
 Alpha  occ. eigenvalues --   -0.33617  -0.33452  -0.33140  -0.32474  -0.31629
 Alpha  occ. eigenvalues --   -0.31588  -0.30906  -0.30312  -0.29858  -0.26909
 Alpha virt. eigenvalues --   -0.12395  -0.11844  -0.11119  -0.08315  -0.07141
 Alpha virt. eigenvalues --   -0.05035  -0.04909  -0.04772  -0.04684  -0.04069
 Alpha virt. eigenvalues --   -0.03638  -0.03313  -0.02047  -0.01550  -0.00179

 Mulliken charges:
               1
     1  N   -0.772904
     2  H    0.418180
     3  H    0.408553
     4  H    0.440284
     5  C   -0.090624
     6  H    0.247271
     7  C    0.634156
     8  C   -0.411610
     9  H    0.194936
    10  H    0.211987
    11  O   -0.554722
    12  C    0.637218
    13  N   -0.740266
    14  H    0.380335
    15  H    0.360780
    16  O   -0.493145
    17  N   -0.611031
    18  H    0.420450
    19  C   -0.085262
    20  H    0.186411
    21  C    0.651882
    22  C   -0.076704
    23  H    0.140536
    24  O   -0.558003
    25  C   -0.294767
    26  H    0.182795
    27  H    0.157558
    28  C   -0.481347
    29  H    0.208230
    30  H    0.157907
    31  H    0.136040
    32  C   -0.467363
    33  H    0.171194
    34  H    0.125089
    35  H    0.157841
    36  N   -0.599099
    37  H    0.354316
    38  C   -0.038455
    39  H    0.165658
    40  C    0.624737
    41  C   -0.486556
    42  H    0.183922
    43  H    0.168117
    44  H    0.180353
    45  O   -0.528553
    46  N   -0.613495
    47  H    0.350273
    48  C   -0.062118
    49  H    0.178419
    50  C    0.625934
    51  C    0.139824
    52  H    0.126502
    53  O   -0.548005
    54  C   -0.462368
    55  H    0.153842
    56  H    0.166847
    57  H    0.158906
    58  O   -0.646978
    59  H    0.430604
    60  N   -0.620908
    61  H    0.357147
    62  C   -0.062476
    63  H    0.188992
    64  C    0.593563
    65  C   -0.040863
    66  H    0.144653
    67  H    0.177084
    68  O   -0.536264
    69  O   -0.649839
    70  H    0.439454
    71  N   -0.572290
    72  H    0.351249
    73  C   -0.257263
    74  H    0.195956
    75  H    0.195483
    76  C    0.645785
    77  O   -0.546034
    78  N   -0.592149
    79  H    0.349495
    80  C   -0.064588
    81  H    0.213766
    82  C    0.592688
    83  C   -0.268124
    84  H    0.139216
    85  H    0.173923
    86  O   -0.446122
    87  C   -0.273927
    88  H    0.146540
    89  H    0.154090
    90  C   -0.249845
    91  H    0.153641
    92  H    0.123993
    93  C   -0.135797
    94  H    0.138162
    95  H    0.113553
    96  N   -0.714366
    97  H    0.292025
    98  H    0.294887
    99  O   -0.581397
   100  H    0.422395
 Sum of Mulliken charges =   1.00000

 Dipole moment (field-independent basis, Debye):
    X=            -19.5182    Y=              8.5850    Z=             17.9729  Tot=             27.8871
 Quadrupole moment (field-independent basis, Debye-Ang):
   XX=            -54.3081   YY=           -216.3213   ZZ=           -195.3474
   XY=           -105.4420   XZ=           -123.0161   YZ=             64.0665

 Normal termination of Gaussian 16 at Fri May 27 02:49:34 2022.
