 Gaussian 16, Revision C.01,
 Gaussian 16:  ES64L-G16RevC.01  3-Jul-2019

 -------------------------------------------------------------------
 # B3LYP/6-31G* guess=read geom=check nosymm integral(ultrafinegrid)
 -------------------------------------------------------------------

 ------------------------------------------------------
 Candidate Structure: Conf:197 Charge calc in gas phase
 ------------------------------------------------------
 Structure from the checkpoint file:  "conf-197.chk"
 Charge =  1 Multiplicity = 1

                          Input orientation:
 ---------------------------------------------------------------------
 Center     Atomic      Atomic             Coordinates (Angstroms)
 Number     Number       Type             X           Y           Z
 ---------------------------------------------------------------------
      1          7           0       -6.523057   -3.285757    4.119915
      2          1           0       -6.183443   -3.872599    4.887182
      3          1           0       -7.270666   -3.799856    3.571520
      4          1           0       -6.827908   -2.379660    4.529307
      5          6           0       -5.429754   -2.935745    3.145936
      6          1           0       -4.722720   -3.768480    3.116856
      7          6           0       -4.795066   -1.637023    3.706644
      8          6           0       -6.038246   -2.684301    1.749304
      9          1           0       -6.654586   -1.775684    1.786052
     10          1           0       -5.221906   -2.484776    1.048592
     11          8           0       -5.473511   -0.959071    4.481318
     12          6           0       -6.935450   -3.831880    1.274397
     13          7           0       -6.907357   -4.128080   -0.032922
     14          1           0       -7.539402   -4.838546   -0.383462
     15          1           0       -6.319123   -3.642589   -0.695215
     16          8           0       -7.671910   -4.427036    2.075427
     17          7           0       -3.564834   -1.358560    3.268512
     18          1           0       -3.139501   -1.912210    2.526369
     19          6           0       -2.877777   -0.075829    3.458848
     20          1           0       -3.613095    0.641124    3.838063
     21          6           0       -2.411981    0.301129    2.035365
     22          6           0       -1.694862   -0.197340    4.470599
     23          1           0       -0.990785   -0.928203    4.049719
     24          8           0       -2.186604   -0.601197    1.214968
     25          6           0       -2.202770   -0.717698    5.832624
     26          1           0       -2.813172   -1.613268    5.666922
     27          1           0       -2.871976    0.030743    6.279611
     28          6           0       -0.953024    1.141329    4.612576
     29          1           0       -1.630584    1.948018    4.925117
     30          1           0       -0.176775    1.065240    5.378514
     31          1           0       -0.459717    1.433346    3.682186
     32          6           0       -1.087489   -1.076544    6.822695
     33          1           0       -1.511705   -1.523310    7.728005
     34          1           0       -0.389156   -1.802275    6.388768
     35          1           0       -0.509804   -0.201626    7.136662
     36          7           0       -2.286620    1.608122    1.744188
     37          1           0       -2.426581    2.292192    2.477285
     38          6           0       -1.811764    2.105752    0.438908
     39          1           0       -2.195553    1.402053   -0.307170
     40          6           0       -0.262263    2.077132    0.375250
     41          6           0       -2.353096    3.507703    0.184505
     42          1           0       -2.030684    3.857844   -0.798547
     43          1           0       -3.446908    3.508821    0.219175
     44          1           0       -1.961867    4.218619    0.918735
     45          8           0        0.402562    3.107755    0.304500
     46          7           0        0.282385    0.835871    0.406498
     47          1           0       -0.332612    0.034373    0.515277
     48          6           0        1.725159    0.635484    0.532886
     49          1           0        2.123771    1.519337    1.046926
     50          6           0        2.366809    0.564300   -0.871897
     51          6           0        2.012819   -0.623834    1.377291
     52          1           0        1.646010   -1.497300    0.829286
     53          8           0        2.771239   -0.501016   -1.353800
     54          6           0        3.496803   -0.804117    1.681831
     55          1           0        4.069012   -0.941964    0.762267
     56          1           0        3.636648   -1.684280    2.316571
     57          1           0        3.898162    0.070475    2.212619
     58          8           0        1.238546   -0.586905    2.585219
     59          1           0        1.687122    0.021877    3.194484
     60          7           0        2.420517    1.743422   -1.525273
     61          1           0        2.088495    2.597970   -1.080247
     62          6           0        2.908085    1.850856   -2.900088
     63          1           0        2.575422    0.961697   -3.447669
     64          6           0        4.451047    1.900238   -2.917470
     65          6           0        2.335765    3.117603   -3.549259
     66          1           0        1.245274    3.035888   -3.605882
     67          1           0        2.730613    3.192534   -4.572039
     68          8           0        5.073185    2.953547   -3.052919
     69          8           0        2.624502    4.264176   -2.773719
     70          1           0        3.599182    4.333321   -2.793368
     71          7           0        5.062841    0.690932   -2.795768
     72          1           0        4.480204   -0.091679   -2.507450
     73          6           0        6.514852    0.597072   -2.739555
     74          1           0        6.927196    1.341365   -2.052716
     75          1           0        6.783010   -0.396741   -2.369273
     76          6           0        7.226609    0.825524   -4.085442
     77          8           0        8.414671    1.112446   -4.115413
     78          7           0        6.453957    0.636307   -5.193351
     79          1           0        5.452154    0.572814   -5.056887
     80          6           0        6.865935    1.120357   -6.499671
     81          1           0        7.703129    1.812043   -6.352526
     82          6           0        5.689915    1.889700   -7.089508
     83          6           0        7.319526   -0.002285   -7.464947
     84          1           0        6.473186   -0.680130   -7.644513
     85          1           0        7.567713    0.459684   -8.428246
     86          8           0        4.555252    1.864380   -6.654136
     87          6           0        8.520480   -0.795689   -6.938108
     88          1           0        9.331474   -0.097918   -6.694312
     89          1           0        8.245950   -1.283304   -5.993628
     90          6           0        9.017136   -1.852144   -7.932825
     91          1           0        9.323815   -1.361424   -8.869376
     92          1           0        8.188092   -2.525861   -8.197658
     93          6           0       10.188883   -2.701783   -7.401932
     94          1           0        9.867970   -3.233188   -6.495641
     95          1           0       10.428801   -3.475701   -8.142079
     96          7           0       11.432853   -1.999506   -7.079428
     97          1           0       11.274164   -1.314450   -6.342713
     98          1           0       11.759638   -1.476678   -7.891358
     99          8           0        6.040612    2.586349   -8.186326
    100          1           0        5.232887    3.026677   -8.512942
 ---------------------------------------------------------------------

 SCF Done:  E(RB3LYP) =  -2418.44447321     A.U. after    1 cycles

 Alpha  occ. eigenvalues --  -19.28056 -19.27162 -19.25269 -19.24106 -19.23268
 Alpha  occ. eigenvalues --  -19.20342 -19.19842 -19.19292 -19.18508 -19.18097
 Alpha  occ. eigenvalues --  -19.15315 -14.58914 -14.51345 -14.50464 -14.48333
 Alpha  occ. eigenvalues --  -14.44284 -14.42950 -14.41966 -14.39812 -14.33534
 Alpha  occ. eigenvalues --  -10.45661 -10.44377 -10.42224 -10.41075 -10.37626
 Alpha  occ. eigenvalues --  -10.37329 -10.37276 -10.36239 -10.35704 -10.34764
 Alpha  occ. eigenvalues --  -10.33488 -10.32898 -10.32087 -10.31136 -10.30038
 Alpha  occ. eigenvalues --  -10.29329 -10.28572 -10.28309 -10.27930 -10.27846
 Alpha  occ. eigenvalues --  -10.27511 -10.26974 -10.26114 -10.25035 -10.23226
 Alpha  occ. eigenvalues --  -10.23192 -10.21576 -10.21122  -1.20081  -1.19228
 Alpha  occ. eigenvalues --   -1.16270  -1.15957  -1.13562  -1.12294  -1.10969
 Alpha  occ. eigenvalues --   -1.10315  -1.09775  -1.07551  -1.07066  -1.07025
 Alpha  occ. eigenvalues --   -1.06329  -1.06117  -1.04279  -1.00672  -0.99144
 Alpha  occ. eigenvalues --   -0.98233  -0.96417  -0.95391  -0.91856  -0.90288
 Alpha  occ. eigenvalues --   -0.87807  -0.85898  -0.85194  -0.84163  -0.82938
 Alpha  occ. eigenvalues --   -0.82540  -0.80574  -0.79659  -0.78486  -0.77037
 Alpha  occ. eigenvalues --   -0.76003  -0.74584  -0.74245  -0.73892  -0.72826
 Alpha  occ. eigenvalues --   -0.72520  -0.72147  -0.70800  -0.70356  -0.69168
 Alpha  occ. eigenvalues --   -0.69051  -0.67704  -0.67152  -0.66969  -0.66025
 Alpha  occ. eigenvalues --   -0.65710  -0.65173  -0.64635  -0.63849  -0.63380
 Alpha  occ. eigenvalues --   -0.62409  -0.61962  -0.60953  -0.60506  -0.60231
 Alpha  occ. eigenvalues --   -0.59766  -0.59532  -0.58553  -0.58345  -0.57714
 Alpha  occ. eigenvalues --   -0.57392  -0.56798  -0.56507  -0.56202  -0.55799
 Alpha  occ. eigenvalues --   -0.54771  -0.54602  -0.54494  -0.54260  -0.53918
 Alpha  occ. eigenvalues --   -0.52864  -0.52691  -0.52379  -0.52121  -0.51872
 Alpha  occ. eigenvalues --   -0.51749  -0.51317  -0.51264  -0.50899  -0.50536
 Alpha  occ. eigenvalues --   -0.50289  -0.50069  -0.49794  -0.49108  -0.48638
 Alpha  occ. eigenvalues --   -0.48409  -0.48069  -0.47740  -0.47516  -0.47477
 Alpha  occ. eigenvalues --   -0.47131  -0.46964  -0.46398  -0.46098  -0.45695
 Alpha  occ. eigenvalues --   -0.45637  -0.45596  -0.45120  -0.44913  -0.44676
 Alpha  occ. eigenvalues --   -0.44569  -0.44212  -0.44075  -0.43820  -0.43220
 Alpha  occ. eigenvalues --   -0.42769  -0.42646  -0.42446  -0.42326  -0.42206
 Alpha  occ. eigenvalues --   -0.41470  -0.41392  -0.40702  -0.39947  -0.39394
 Alpha  occ. eigenvalues --   -0.39047  -0.38543  -0.38409  -0.38025  -0.37720
 Alpha  occ. eigenvalues --   -0.37342  -0.36341  -0.36100  -0.35904  -0.35474
 Alpha  occ. eigenvalues --   -0.34441  -0.33524  -0.33444  -0.32740  -0.31916
 Alpha  occ. eigenvalues --   -0.31883  -0.30124  -0.29771  -0.28573  -0.25574
 Alpha virt. eigenvalues --   -0.13846  -0.12902  -0.10345  -0.09961  -0.07138
 Alpha virt. eigenvalues --   -0.06044  -0.05658  -0.05397  -0.04578  -0.03902
 Alpha virt. eigenvalues --   -0.03397  -0.02937  -0.01998  -0.01701  -0.01578

 Mulliken charges:
               1
     1  N   -0.754122
     2  H    0.411277
     3  H    0.446027
     4  H    0.418306
     5  C   -0.125483
     6  H    0.218621
     7  C    0.643442
     8  C   -0.403084
     9  H    0.229376
    10  H    0.207389
    11  O   -0.521895
    12  C    0.647901
    13  N   -0.724944
    14  H    0.385108
    15  H    0.372914
    16  O   -0.533293
    17  N   -0.592936
    18  H    0.364035
    19  C   -0.086822
    20  H    0.186038
    21  C    0.646125
    22  C   -0.072873
    23  H    0.168638
    24  O   -0.570332
    25  C   -0.252408
    26  H    0.120828
    27  H    0.148859
    28  C   -0.493878
    29  H    0.145895
    30  H    0.174828
    31  H    0.165124
    32  C   -0.455874
    33  H    0.159918
    34  H    0.154007
    35  H    0.161478
    36  N   -0.590397
    37  H    0.350234
    38  C   -0.072031
    39  H    0.188386
    40  C    0.622369
    41  C   -0.463041
    42  H    0.194899
    43  H    0.154540
    44  H    0.178342
    45  O   -0.516909
    46  N   -0.613395
    47  H    0.374051
    48  C   -0.069238
    49  H    0.171959
    50  C    0.641045
    51  C    0.117251
    52  H    0.164438
    53  O   -0.557679
    54  C   -0.484646
    55  H    0.187666
    56  H    0.169601
    57  H    0.141687
    58  O   -0.633548
    59  H    0.393681
    60  N   -0.607141
    61  H    0.382840
    62  C   -0.080005
    63  H    0.173862
    64  C    0.621007
    65  C   -0.058117
    66  H    0.143163
    67  H    0.168049
    68  O   -0.524755
    69  O   -0.633204
    70  H    0.422735
    71  N   -0.630548
    72  H    0.372371
    73  C   -0.223925
    74  H    0.204948
    75  H    0.181735
    76  C    0.608282
    77  O   -0.511896
    78  N   -0.593432
    79  H    0.346480
    80  C   -0.046568
    81  H    0.202723
    82  C    0.588668
    83  C   -0.262343
    84  H    0.136112
    85  H    0.158921
    86  O   -0.483961
    87  C   -0.255339
    88  H    0.144469
    89  H    0.141755
    90  C   -0.262401
    91  H    0.125208
    92  H    0.123689
    93  C   -0.142499
    94  H    0.137248
    95  H    0.142458
    96  N   -0.706960
    97  H    0.303910
    98  H    0.292350
    99  O   -0.555735
   100  H    0.418391
 Sum of Mulliken charges =   1.00000

 Dipole moment (field-independent basis, Debye):
    X=            -26.3736    Y=            -12.0264    Z=             10.8305  Tot=             30.9435
 Quadrupole moment (field-independent basis, Debye-Ang):
   XX=           -187.3535   YY=           -250.4826   ZZ=           -182.2526
   XY=             71.3281   XZ=            -49.3900   YZ=            -30.9137

 Normal termination of Gaussian 16 at Fri May 27 02:48:52 2022.
