 Gaussian 16, Revision C.01,
 Gaussian 16:  ES64L-G16RevC.01  3-Jul-2019

 ----------------------------------------------------------------------
 # B3LYP/6-31G* empiricaldispersion=gd3bj guess=read geom=check nosymm
 integral(ultrafinegrid)
 ----------------------------------------------------------------------

 ------------------------------------------------------
 Candidate Structure: Conf:966 Charge calc in gas phase
 ------------------------------------------------------
 Structure from the checkpoint file:  "conf-966.chk"
 Charge =  1 Multiplicity = 1

                          Input orientation:
 ---------------------------------------------------------------------
 Center     Atomic      Atomic             Coordinates (Angstroms)
 Number     Number       Type             X           Y           Z
 ---------------------------------------------------------------------
      1          7           0       -8.984035    0.924121    6.037893
      2          1           0       -9.348084    0.092932    6.507897
      3          1           0       -8.106080    1.284934    6.539286
      4          1           0       -9.711264    1.643756    6.033276
      5          6           0       -8.429314    0.646836    4.656172
      6          1           0       -8.559530   -0.419548    4.456302
      7          6           0       -6.924375    0.984088    4.831188
      8          6           0       -9.134777    1.484663    3.571885
      9          1           0       -8.624645    1.222118    2.636797
     10          8           0       -6.562443    1.434891    5.932815
     11          6           0      -10.609235    1.084574    3.430248
     12          1           0      -11.197422    1.345139    4.320754
     13          1           0      -10.723419    0.010283    3.249943
     14          1           0      -11.063010    1.616027    2.589253
     15          6           0       -8.960892    2.993321    3.795864
     16          1           0       -9.470137    3.345353    4.703628
     17          1           0       -7.907625    3.280339    3.866730
     18          1           0       -9.403153    3.542952    2.960821
     19          7           0       -6.152140    0.775412    3.781800
     20          1           0       -6.506223    0.466856    2.869388
     21          6           0       -4.730813    1.104501    3.702029
     22          1           0       -4.585388    2.130250    4.058915
     23          6           0       -4.426407    1.033014    2.187514
     24          6           0       -3.865822    0.140792    4.523163
     25          1           0       -2.808982    0.409956    4.441538
     26          1           0       -4.150934    0.188726    5.577058
     27          1           0       -3.988489   -0.884955    4.162270
     28          8           0       -5.303218    0.640623    1.404284
     29          7           0       -3.195935    1.397258    1.837044
     30          1           0       -2.483384    1.675752    2.512392
     31          6           0       -2.671947    1.340650    0.485112
     32          1           0       -2.914386    0.368760    0.038792
     33          6           0       -1.139808    1.478011    0.652172
     34          6           0       -3.254029    2.438072   -0.409401
     35          1           0       -2.836945    2.325505   -1.420878
     36          1           0       -4.341860    2.297924   -0.473255
     37          8           0       -0.653832    1.671014    1.770208
     38          8           0       -2.912251    3.685749    0.170564
     39          1           0       -3.113298    4.383308   -0.470324
     40          7           0       -0.431338    1.363159   -0.475305
     41          1           0       -0.858209    1.232100   -1.389946
     42          6           0        1.013803    1.517826   -0.545333
     43          1           0        1.303532    2.360705    0.088700
     44          6           0        1.305616    1.825195   -2.023953
     45          6           0        1.720544    0.230034   -0.060963
     46          1           0        1.429810   -0.583351   -0.738212
     47          1           0        1.295419   -0.001260    0.923413
     48          8           0        0.466247    1.557590   -2.891928
     49          6           0        3.253938    0.277031    0.063926
     50          1           0        3.692875    0.470164   -0.921869
     51          6           0        3.728657    1.379521    1.020073
     52          1           0        3.285016    1.249899    2.015413
     53          1           0        3.466071    2.385143    0.671944
     54          1           0        4.818061    1.353860    1.123353
     55          6           0        3.762870   -1.092174    0.533410
     56          1           0        3.371438   -1.335585    1.529651
     57          1           0        3.454042   -1.889112   -0.152945
     58          1           0        4.856611   -1.102301    0.591073
     59          7           0        2.506593    2.365023   -2.277052
     60          1           0        3.200083    2.492389   -1.543316
     61          6           0        3.094250    2.473941   -3.602793
     62          1           0        2.665025    1.707035   -4.250370
     63          6           0        4.610444    2.233555   -3.448714
     64          6           0        2.815978    3.874931   -4.212579
     65          1           0        2.891234    4.613320   -3.403306
     66          1           0        1.774361    3.888278   -4.548761
     67          8           0        5.194318    1.881302   -4.531872
     68          6           0        3.759791    4.272124   -5.363804
     69          1           0        4.024835    3.386685   -5.945990
     70          1           0        3.255265    4.980263   -6.033331
     71          6           0        5.046481    4.923228   -4.825462
     72          1           0        5.422307    4.406981   -3.941995
     73          1           0        4.838462    5.954936   -4.517840
     74          7           0        6.142612    4.978365   -5.798280
     75          1           0        6.013504    5.568333   -6.609302
     76          7           0        7.333099    3.114414   -5.055808
     77          1           0        8.241187    2.672573   -4.997423
     78          1           0        6.438062    2.522908   -4.712117
     79          7           0        8.222526    4.548233   -6.683076
     80          1           0        8.391423    5.532432   -6.838416
     81          1           0        9.033992    3.952341   -6.758629
     82          6           0        7.228523    4.182968   -5.816035
     83          8           0        5.133176    2.488600   -2.349949
 ---------------------------------------------------------------------

 SCF Done:  E(RB3LYP) =  -1868.17189231     A.U. after    1 cycles

 Alpha  occ. eigenvalues --  -19.26541 -19.21314 -19.21065 -19.17784 -19.15776
 Alpha  occ. eigenvalues --  -19.13359 -19.12687 -14.59275 -14.48661 -14.45055
 Alpha  occ. eigenvalues --  -14.44771 -14.44020 -14.41370 -14.41197 -14.39206
 Alpha  occ. eigenvalues --  -10.43007 -10.40187 -10.40118 -10.37924 -10.34927
 Alpha  occ. eigenvalues --  -10.34349 -10.33916 -10.32733 -10.30827 -10.30649
 Alpha  occ. eigenvalues --  -10.30628 -10.30606 -10.30529 -10.28290 -10.27735
 Alpha  occ. eigenvalues --  -10.27497 -10.25326 -10.23314 -10.22964 -10.22523
 Alpha  occ. eigenvalues --  -10.22307 -10.20693 -10.20600  -1.18946  -1.13436
 Alpha  occ. eigenvalues --   -1.12827  -1.09947  -1.08799  -1.08614  -1.07616
 Alpha  occ. eigenvalues --   -1.06414  -1.05552  -1.00855  -0.98588  -0.98296
 Alpha  occ. eigenvalues --   -0.98010  -0.95924  -0.95725  -0.95264  -0.88866
 Alpha  occ. eigenvalues --   -0.85778  -0.85031  -0.84241  -0.82961  -0.81922
 Alpha  occ. eigenvalues --   -0.79654  -0.77597  -0.76672  -0.73948  -0.73600
 Alpha  occ. eigenvalues --   -0.73203  -0.72702  -0.71608  -0.71244  -0.70287
 Alpha  occ. eigenvalues --   -0.69642  -0.68882  -0.66293  -0.65946  -0.65790
 Alpha  occ. eigenvalues --   -0.64534  -0.63576  -0.62954  -0.62318  -0.61934
 Alpha  occ. eigenvalues --   -0.60949  -0.60043  -0.59787  -0.59275  -0.58448
 Alpha  occ. eigenvalues --   -0.58367  -0.57653  -0.57339  -0.56318  -0.55232
 Alpha  occ. eigenvalues --   -0.54778  -0.54297  -0.53592  -0.53181  -0.52713
 Alpha  occ. eigenvalues --   -0.52300  -0.51937  -0.51708  -0.51163  -0.50943
 Alpha  occ. eigenvalues --   -0.50481  -0.50465  -0.49875  -0.49635  -0.48805
 Alpha  occ. eigenvalues --   -0.48682  -0.48084  -0.48021  -0.47820  -0.47534
 Alpha  occ. eigenvalues --   -0.47250  -0.46683  -0.46456  -0.46124  -0.45800
 Alpha  occ. eigenvalues --   -0.45601  -0.45158  -0.44309  -0.44019  -0.43091
 Alpha  occ. eigenvalues --   -0.42818  -0.42139  -0.41572  -0.41174  -0.41060
 Alpha  occ. eigenvalues --   -0.40945  -0.40710  -0.40252  -0.39540  -0.38769
 Alpha  occ. eigenvalues --   -0.38729  -0.37411  -0.36854  -0.36197  -0.35990
 Alpha  occ. eigenvalues --   -0.35671  -0.35630  -0.34558  -0.33359  -0.32893
 Alpha  occ. eigenvalues --   -0.31962  -0.30942  -0.30212  -0.29831  -0.28803
 Alpha  occ. eigenvalues --   -0.27306  -0.26696
 Alpha virt. eigenvalues --   -0.11930  -0.10870  -0.06726  -0.06371  -0.05223
 Alpha virt. eigenvalues --   -0.03678  -0.03329  -0.02103  -0.01996  -0.01474
 Alpha virt. eigenvalues --   -0.00291   0.00558   0.00846   0.01396   0.01478

 Mulliken charges:
               1
     1  N   -0.764712
     2  H    0.414701
     3  H    0.436603
     4  H    0.407963
     5  C   -0.098637
     6  H    0.215593
     7  C    0.654400
     8  C   -0.127363
     9  H    0.193092
    10  O   -0.552730
    11  C   -0.461774
    12  H    0.138117
    13  H    0.172647
    14  H    0.198918
    15  C   -0.477036
    16  H    0.141185
    17  H    0.189067
    18  H    0.198537
    19  N   -0.612680
    20  H    0.379451
    21  C   -0.055616
    22  H    0.199222
    23  C    0.635746
    24  C   -0.459200
    25  H    0.187541
    26  H    0.186236
    27  H    0.169650
    28  O   -0.561954
    29  N   -0.611459
    30  H    0.373981
    31  C   -0.067775
    32  H    0.186798
    33  C    0.650590
    34  C   -0.044659
    35  H    0.145826
    36  H    0.158366
    37  O   -0.553865
    38  O   -0.613018
    39  H    0.406234
    40  N   -0.630155
    41  H    0.358304
    42  C   -0.056155
    43  H    0.178399
    44  C    0.609229
    45  C   -0.253652
    46  H    0.140039
    47  H    0.157361
    48  O   -0.559105
    49  C   -0.097147
    50  H    0.153467
    51  C   -0.448371
    52  H    0.143488
    53  H    0.136878
    54  H    0.158984
    55  C   -0.444432
    56  H    0.136560
    57  H    0.142278
    58  H    0.150846
    59  N   -0.617805
    60  H    0.367463
    61  C   -0.022316
    62  H    0.175595
    63  C    0.589940
    64  C   -0.279740
    65  H    0.139816
    66  H    0.161244
    67  O   -0.632163
    68  C   -0.269986
    69  H    0.184461
    70  H    0.128074
    71  C   -0.176346
    72  H    0.217463
    73  H    0.158927
    74  N   -0.595710
    75  H    0.343519
    76  N   -0.765383
    77  H    0.336896
    78  H    0.459862
    79  N   -0.761604
    80  H    0.355637
    81  H    0.357057
    82  C    0.760230
    83  O   -0.569933
 Sum of Mulliken charges =   1.00000

 Dipole moment (field-independent basis, Debye):
    X=            -23.2391    Y=             12.4973    Z=              8.5764  Tot=             27.7452
 Quadrupole moment (field-independent basis, Debye-Ang):
   XX=            201.7770   YY=           -159.1101   ZZ=            -54.0020
   XY=             33.6869   XZ=           -266.1269   YZ=            -58.6219

 Normal termination of Gaussian 16 at Sun Jul 10 18:06:13 2022.
