 Gaussian 16, Revision C.01,
 Gaussian 16:  ES64L-G16RevC.01  3-Jul-2019

 ----------------------------------------------------------------------
 # B3LYP/6-31G* empiricaldispersion=gd3bj guess=read geom=check nosymm
 integral(ultrafinegrid)
 ----------------------------------------------------------------------

 ------------------------------------------------------
 Candidate Structure: Conf:112 Charge calc in gas phase
 ------------------------------------------------------
 Structure from the checkpoint file:  "conf-112.chk"
 Charge =  1 Multiplicity = 1

                          Input orientation:
 ---------------------------------------------------------------------
 Center     Atomic      Atomic             Coordinates (Angstroms)
 Number     Number       Type             X           Y           Z
 ---------------------------------------------------------------------
      1          7           0       -8.599775    3.542294    3.673255
      2          1           0       -8.727336    3.599625    4.687477
      3          1           0       -7.976279    4.344588    3.364699
      4          1           0       -9.519132    3.581171    3.226203
      5          6           0       -7.785028    2.337592    3.242583
      6          1           0       -7.834814    1.586170    4.034632
      7          6           0       -6.367683    2.952602    3.110708
      8          6           0       -8.343930    1.765195    1.917309
      9          1           0       -8.292521    2.571101    1.171289
     10          8           0       -6.293974    4.184126    2.971205
     11          6           0       -7.489978    0.588477    1.420192
     12          1           0       -7.449520   -0.215200    2.165673
     13          1           0       -6.467445    0.877182    1.171394
     14          1           0       -7.943395    0.171921    0.516849
     15          6           0       -9.805257    1.315512    2.080918
     16          1           0       -9.892933    0.531842    2.842141
     17          1           0      -10.500072    2.123996    2.346269
     18          1           0      -10.169887    0.904424    1.135829
     19          7           0       -5.339547    2.118590    3.153124
     20          1           0       -5.454768    1.102246    3.166019
     21          6           0       -3.964138    2.505476    2.847617
     22          1           0       -3.982723    3.225197    2.021873
     23          6           0       -3.301982    1.194363    2.373800
     24          6           0       -3.258436    3.127800    4.058535
     25          1           0       -2.234435    3.415755    3.802955
     26          1           0       -3.794354    4.025292    4.377787
     27          1           0       -3.220028    2.416700    4.889133
     28          8           0       -3.918782    0.125977    2.455099
     29          7           0       -2.057477    1.313085    1.899486
     30          1           0       -1.589964    2.210961    1.830897
     31          6           0       -1.302035    0.199990    1.354814
     32          1           0       -1.330151   -0.640385    2.058819
     33          6           0        0.127265    0.705209    1.155922
     34          6           0       -1.869677   -0.258251   -0.018614
     35          1           0       -1.391162   -1.206624   -0.304665
     36          1           0       -2.935394   -0.460783    0.119663
     37          8           0        0.404430    1.905034    1.321313
     38          8           0       -1.719407    0.731562   -1.001078
     39          1           0       -0.850102    0.602006   -1.446568
     40          7           0        1.017524   -0.200937    0.724703
     41          1           0        0.668703   -1.123915    0.497968
     42          6           0        2.226598    0.213873    0.008999
     43          1           0        2.785736    0.883737    0.665087
     44          6           0        1.787857    0.956180   -1.276136
     45          6           0        3.058362   -1.026994   -0.333786
     46          1           0        2.437334   -1.682292   -0.960012
     47          1           0        3.271798   -1.567417    0.598543
     48          8           0        0.857820    0.495907   -1.962356
     49          6           0        4.379240   -0.740170   -1.069576
     50          1           0        4.140601   -0.220358   -2.006961
     51          6           0        5.325070    0.151537   -0.253429
     52          1           0        5.517903   -0.285104    0.735089
     53          1           0        4.935674    1.164946   -0.109337
     54          1           0        6.288032    0.253623   -0.764094
     55          6           0        5.059359   -2.067863   -1.426618
     56          1           0        5.331738   -2.624826   -0.521187
     57          1           0        4.402329   -2.704991   -2.029463
     58          1           0        5.976614   -1.893575   -1.998386
     59          7           0        2.491703    2.053952   -1.517844
     60          1           0        3.190900    2.380232   -0.841556
     61          6           0        2.425682    3.053951   -2.584945
     62          1           0        3.100155    2.734407   -3.392505
     63          6           0        3.072906    4.327145   -1.930941
     64          6           0        1.056963    3.303661   -3.229135
     65          1           0        0.789755    2.426234   -3.825183
     66          1           0        1.223524    4.136599   -3.918423
     67          8           0        2.745178    5.440865   -2.417950
     68          6           0       -0.156538    3.629112   -2.342634
     69          1           0       -0.992730    3.849892   -3.016989
     70          1           0       -0.468239    2.745223   -1.776293
     71          6           0       -0.033304    4.811345   -1.375780
     72          1           0       -1.032544    5.148729   -1.071205
     73          1           0        0.488453    5.642246   -1.845322
     74          7           0        0.693782    4.394057   -0.171929
     75          1           0        0.514849    3.445045    0.146748
     76          7           0        2.083520    6.250795    0.076925
     77          1           0        2.832639    6.625594    0.646604
     78          1           0        2.331208    6.257466   -0.942739
     79          7           0        2.070917    4.528005    1.673261
     80          1           0        1.733780    3.591429    1.877617
     81          1           0        3.068165    4.633594    1.821078
     82          6           0        1.632928    5.055200    0.494116
     83          8           0        3.805655    4.113427   -0.928299
 ---------------------------------------------------------------------

 SCF Done:  E(RB3LYP) =  -1868.19622994     A.U. after    1 cycles

 Alpha  occ. eigenvalues --  -19.27672 -19.23695 -19.23336 -19.20900 -19.18439
 Alpha  occ. eigenvalues --  -19.13684 -19.13563 -14.60808 -14.50219 -14.46910
 Alpha  occ. eigenvalues --  -14.46457 -14.44620 -14.44155 -14.41817 -14.41762
 Alpha  occ. eigenvalues --  -10.44390 -10.41463 -10.40290 -10.40084 -10.40055
 Alpha  occ. eigenvalues --  -10.35842 -10.35528 -10.35406 -10.33424 -10.32084
 Alpha  occ. eigenvalues --  -10.32074 -10.31590 -10.31392 -10.30596 -10.29548
 Alpha  occ. eigenvalues --  -10.28788 -10.27205 -10.26251 -10.25356 -10.24352
 Alpha  occ. eigenvalues --  -10.23161 -10.23110 -10.22919  -1.20210  -1.15699
 Alpha  occ. eigenvalues --   -1.14994  -1.14589  -1.10085  -1.09232  -1.08767
 Alpha  occ. eigenvalues --   -1.07065  -1.06982  -1.03553  -1.03023  -0.99436
 Alpha  occ. eigenvalues --   -0.98687  -0.97417  -0.96430  -0.96242  -0.90630
 Alpha  occ. eigenvalues --   -0.88767  -0.86816  -0.85244  -0.85008  -0.82328
 Alpha  occ. eigenvalues --   -0.81989  -0.79601  -0.78298  -0.75870  -0.75160
 Alpha  occ. eigenvalues --   -0.74696  -0.74581  -0.73981  -0.72567  -0.71308
 Alpha  occ. eigenvalues --   -0.70974  -0.70173  -0.69923  -0.68286  -0.67460
 Alpha  occ. eigenvalues --   -0.66946  -0.65167  -0.64751  -0.63369  -0.62803
 Alpha  occ. eigenvalues --   -0.62123  -0.61106  -0.60855  -0.60259  -0.59895
 Alpha  occ. eigenvalues --   -0.59269  -0.58209  -0.58008  -0.57686  -0.57105
 Alpha  occ. eigenvalues --   -0.56623  -0.56346  -0.55866  -0.55507  -0.55262
 Alpha  occ. eigenvalues --   -0.54579  -0.53735  -0.53503  -0.53041  -0.52922
 Alpha  occ. eigenvalues --   -0.52623  -0.51774  -0.51562  -0.51137  -0.50440
 Alpha  occ. eigenvalues --   -0.50256  -0.50157  -0.49573  -0.49249  -0.49062
 Alpha  occ. eigenvalues --   -0.48947  -0.48637  -0.48304  -0.48034  -0.47960
 Alpha  occ. eigenvalues --   -0.47780  -0.47261  -0.46672  -0.45769  -0.45460
 Alpha  occ. eigenvalues --   -0.45267  -0.44172  -0.43958  -0.43541  -0.42609
 Alpha  occ. eigenvalues --   -0.42310  -0.42214  -0.40634  -0.40276  -0.40234
 Alpha  occ. eigenvalues --   -0.39536  -0.39324  -0.38975  -0.38734  -0.38648
 Alpha  occ. eigenvalues --   -0.37882  -0.37473  -0.37335  -0.36594  -0.35947
 Alpha  occ. eigenvalues --   -0.33736  -0.33508  -0.32420  -0.32029  -0.29483
 Alpha  occ. eigenvalues --   -0.28175  -0.27535
 Alpha virt. eigenvalues --   -0.13433  -0.11823  -0.09677  -0.08667  -0.07329
 Alpha virt. eigenvalues --   -0.06026  -0.05198  -0.04848  -0.02816  -0.02167
 Alpha virt. eigenvalues --   -0.01645  -0.01564  -0.00387  -0.00213   0.00743

 Mulliken charges:
               1
     1  N   -0.757927
     2  H    0.417205
     3  H    0.433389
     4  H    0.410662
     5  C   -0.104410
     6  H    0.206967
     7  C    0.646969
     8  C   -0.110762
     9  H    0.172398
    10  O   -0.543606
    11  C   -0.476434
    12  H    0.168615
    13  H    0.185686
    14  H    0.191263
    15  C   -0.474727
    16  H    0.178089
    17  H    0.140277
    18  H    0.205060
    19  N   -0.601124
    20  H    0.380955
    21  C   -0.066281
    22  H    0.202112
    23  C    0.642180
    24  C   -0.451028
    25  H    0.174650
    26  H    0.187648
    27  H    0.174028
    28  O   -0.550764
    29  N   -0.611407
    30  H    0.360844
    31  C   -0.060776
    32  H    0.188787
    33  C    0.633446
    34  C   -0.052312
    35  H    0.135136
    36  H    0.176411
    37  O   -0.580184
    38  O   -0.652902
    39  H    0.464460
    40  N   -0.588722
    41  H    0.348155
    42  C   -0.044088
    43  H    0.166261
    44  C    0.627953
    45  C   -0.293564
    46  H    0.152218
    47  H    0.150016
    48  O   -0.600973
    49  C   -0.085394
    50  H    0.151423
    51  C   -0.461015
    52  H    0.141469
    53  H    0.152321
    54  H    0.164018
    55  C   -0.445901
    56  H    0.144287
    57  H    0.148269
    58  H    0.158196
    59  N   -0.618032
    60  H    0.375045
    61  C   -0.044872
    62  H    0.174722
    63  C    0.604909
    64  C   -0.262569
    65  H    0.158624
    66  H    0.171753
    67  O   -0.597295
    68  C   -0.309986
    69  H    0.151456
    70  H    0.151570
    71  C   -0.138099
    72  H    0.147559
    73  H    0.211670
    74  N   -0.612274
    75  H    0.396699
    76  N   -0.728793
    77  H    0.342336
    78  H    0.405571
    79  N   -0.769485
    80  H    0.368293
    81  H    0.361835
    82  C    0.709679
    83  O   -0.617837
 Sum of Mulliken charges =   1.00000

 Dipole moment (field-independent basis, Debye):
    X=            -30.7676    Y=              9.1168    Z=             17.9505  Tot=             36.7693
 Quadrupole moment (field-independent basis, Debye-Ang):
   XX=             62.0368   YY=           -195.3919   ZZ=           -175.6618
   XY=           -100.1750   XZ=           -101.9579   YZ=             57.8141

 Normal termination of Gaussian 16 at Sun Jul 10 18:05:58 2022.
