 Gaussian 16, Revision C.01,
 Gaussian 16:  ES64L-G16RevC.01  3-Jul-2019

 ----------------------------------------------------------------------
 # B3LYP/6-31G* empiricaldispersion=gd3bj guess=read geom=check nosymm
 integral(ultrafinegrid)
 ----------------------------------------------------------------------

 ------------------------------------------------------
 Candidate Structure: Conf:961 Charge calc in gas phase
 ------------------------------------------------------
 Structure from the checkpoint file:  "conf-961.chk"
 Charge =  1 Multiplicity = 1

                          Input orientation:
 ---------------------------------------------------------------------
 Center     Atomic      Atomic             Coordinates (Angstroms)
 Number     Number       Type             X           Y           Z
 ---------------------------------------------------------------------
      1          7           0       -7.396386    0.274043    6.944889
      2          1           0       -7.308555   -0.502681    7.606677
      3          1           0       -6.668183    1.004204    7.187411
      4          1           0       -8.345749    0.650462    7.009804
      5          6           0       -7.008173   -0.104487    5.528291
      6          1           0       -7.103746   -1.188337    5.424135
      7          6           0       -5.529020    0.357859    5.475597
      8          6           0       -7.927415    0.619569    4.514957
      9          1           0       -7.808776    1.699004    4.685566
     10          8           0       -5.168332    1.206029    6.304691
     11          6           0       -7.504835    0.307830    3.071090
     12          1           0       -7.539482   -0.770668    2.872620
     13          1           0       -6.502958    0.671855    2.835367
     14          1           0       -8.202197    0.788513    2.379978
     15          6           0       -9.400150    0.229702    4.723230
     16          1           0       -9.545181   -0.848721    4.591961
     17          1           0       -9.806213    0.508839    5.704804
     18          1           0      -10.022777    0.742397    3.985243
     19          7           0       -4.750364   -0.183177    4.546509
     20          1           0       -5.104136   -0.824938    3.838150
     21          6           0       -3.374320    0.246349    4.304403
     22          1           0       -3.337469    1.339258    4.372355
     23          6           0       -3.062795   -0.187979    2.863560
     24          6           0       -2.396921   -0.361307    5.320537
     25          1           0       -1.378442   -0.011676    5.130798
     26          1           0       -2.680482   -0.053897    6.329896
     27          1           0       -2.406978   -1.453619    5.258904
     28          8           0       -3.871753   -0.906994    2.245513
     29          7           0       -1.900205    0.231234    2.369306
     30          1           0       -1.298635    0.903764    2.850340
     31          6           0       -1.393389   -0.121311    1.054128
     32          1           0       -1.233297   -1.205431    1.000362
     33          6           0       -0.031137    0.603474    0.934011
     34          6           0       -2.358436    0.263065   -0.091739
     35          1           0       -2.933989    1.149708    0.203041
     36          1           0       -1.784044    0.519368   -0.982566
     37          8           0        0.259197    1.493889    1.732432
     38          8           0       -3.211554   -0.817753   -0.456755
     39          1           0       -3.677038   -1.076680    0.368078
     40          7           0        0.720289    0.165544   -0.083070
     41          1           0        0.371555   -0.570506   -0.685114
     42          6           0        1.948204    0.772426   -0.595969
     43          1           0        1.948158    1.826265   -0.311740
     44          6           0        1.876609    0.626339   -2.127728
     45          6           0        3.210556    0.064571   -0.072819
     46          1           0        4.072875    0.510598   -0.585069
     47          1           0        3.160547   -0.983591   -0.395179
     48          8           0        1.373873   -0.437365   -2.598118
     49          6           0        3.427984    0.138846    1.447208
     50          1           0        2.527686   -0.255255    1.940890
     51          6           0        4.611965   -0.755487    1.837592
     52          1           0        5.537956   -0.402776    1.367154
     53          1           0        4.453331   -1.794240    1.524518
     54          1           0        4.767945   -0.748157    2.921987
     55          6           0        3.646435    1.578192    1.929434
     56          1           0        4.498644    2.036523    1.412455
     57          1           0        2.763465    2.201501    1.764817
     58          1           0        3.862977    1.594054    3.003518
     59          7           0        2.381436    1.636400   -2.794911
     60          1           0        2.633300    2.555871   -2.338143
     61          6           0        2.542184    1.931536   -4.221327
     62          1           0        3.502301    1.520244   -4.556197
     63          6           0        2.638118    3.527762   -4.249176
     64          6           0        1.438398    1.454402   -5.156857
     65          1           0        1.430377    0.359216   -5.213252
     66          1           0        1.720980    1.825182   -6.144407
     67          8           0        2.501624    4.043412   -5.364853
     68          6           0        0.056631    2.030618   -4.782609
     69          1           0        0.043808    2.327165   -3.726309
     70          1           0       -0.120861    2.941937   -5.358981
     71          6           0       -1.086865    1.042080   -5.010891
     72          1           0       -1.138835    0.722245   -6.057621
     73          1           0       -2.047315    1.503676   -4.753519
     74          7           0       -0.859877   -0.135514   -4.161320
     75          1           0        0.126148   -0.310645   -3.914462
     76          7           0       -3.041308   -0.483924   -3.356604
     77          1           0       -3.564230   -0.703981   -2.513775
     78          1           0       -3.405015    0.238905   -3.958141
     79          7           0       -1.244476   -1.662987   -2.489913
     80          1           0       -0.234454   -1.687096   -2.363494
     81          1           0       -1.849827   -1.961522   -1.734323
     82          6           0       -1.714730   -0.727661   -3.346061
     83          8           0        2.814912    4.036609   -3.103795
 ---------------------------------------------------------------------

 SCF Done:  E(RB3LYP) =  -1868.15278866     A.U. after    2 cycles

 Alpha  occ. eigenvalues --  -19.29197 -19.27074 -19.26617 -19.22171 -19.19256
 Alpha  occ. eigenvalues --  -19.08786 -19.07505 -14.62234 -14.52119 -14.49205
 Alpha  occ. eigenvalues --  -14.47466 -14.46462 -14.46108 -14.45623 -14.40295
 Alpha  occ. eigenvalues --  -10.46026 -10.43234 -10.43109 -10.42988 -10.39385
 Alpha  occ. eigenvalues --  -10.37831 -10.36911 -10.35596 -10.35381 -10.35374
 Alpha  occ. eigenvalues --  -10.33391 -10.32424 -10.31152 -10.30903 -10.30512
 Alpha  occ. eigenvalues --  -10.26482 -10.24752 -10.24545 -10.24401 -10.24286
 Alpha  occ. eigenvalues --  -10.22508 -10.22481 -10.21829  -1.21788  -1.18185
 Alpha  occ. eigenvalues --   -1.16222  -1.14295  -1.13898  -1.12109  -1.09679
 Alpha  occ. eigenvalues --   -1.08846  -1.05892  -1.02380  -1.02010  -1.01284
 Alpha  occ. eigenvalues --   -1.00180  -0.97788  -0.97097  -0.93165  -0.92387
 Alpha  occ. eigenvalues --   -0.89025  -0.87647  -0.86258  -0.85777  -0.83928
 Alpha  occ. eigenvalues --   -0.82124  -0.80173  -0.79259  -0.78060  -0.77162
 Alpha  occ. eigenvalues --   -0.76174  -0.74488  -0.73896  -0.73166  -0.72775
 Alpha  occ. eigenvalues --   -0.72516  -0.72166  -0.70926  -0.69443  -0.69050
 Alpha  occ. eigenvalues --   -0.68064  -0.67153  -0.66293  -0.64921  -0.64772
 Alpha  occ. eigenvalues --   -0.63764  -0.62464  -0.62168  -0.61433  -0.61015
 Alpha  occ. eigenvalues --   -0.60522  -0.60324  -0.59673  -0.59217  -0.58907
 Alpha  occ. eigenvalues --   -0.57892  -0.57038  -0.56934  -0.56265  -0.56003
 Alpha  occ. eigenvalues --   -0.55469  -0.55068  -0.54680  -0.54555  -0.54054
 Alpha  occ. eigenvalues --   -0.53355  -0.53111  -0.52886  -0.52201  -0.51626
 Alpha  occ. eigenvalues --   -0.51182  -0.50976  -0.50709  -0.50373  -0.49938
 Alpha  occ. eigenvalues --   -0.49846  -0.49539  -0.49302  -0.49010  -0.48874
 Alpha  occ. eigenvalues --   -0.47955  -0.47441  -0.46967  -0.45999  -0.45361
 Alpha  occ. eigenvalues --   -0.44429  -0.43834  -0.43681  -0.43249  -0.43011
 Alpha  occ. eigenvalues --   -0.41897  -0.41707  -0.40878  -0.40547  -0.40336
 Alpha  occ. eigenvalues --   -0.39414  -0.39113  -0.38871  -0.38626  -0.38466
 Alpha  occ. eigenvalues --   -0.38111  -0.37917  -0.37695  -0.36301  -0.36065
 Alpha  occ. eigenvalues --   -0.35584  -0.34947  -0.32932  -0.31274  -0.23874
 Alpha  occ. eigenvalues --   -0.23690  -0.21754
 Alpha virt. eigenvalues --   -0.15025  -0.13095  -0.11772  -0.08611  -0.08153
 Alpha virt. eigenvalues --   -0.07768  -0.06869  -0.04323  -0.04215  -0.03568
 Alpha virt. eigenvalues --   -0.03299  -0.02427  -0.02003  -0.01542  -0.00807

 Mulliken charges:
               1
     1  N   -0.756897
     2  H    0.420124
     3  H    0.435623
     4  H    0.413105
     5  C   -0.104845
     6  H    0.207768
     7  C    0.650533
     8  C   -0.110571
     9  H    0.175680
    10  O   -0.536707
    11  C   -0.476557
    12  H    0.166605
    13  H    0.177382
    14  H    0.193907
    15  C   -0.476138
    16  H    0.179238
    17  H    0.144822
    18  H    0.206928
    19  N   -0.604342
    20  H    0.378116
    21  C   -0.063696
    22  H    0.209117
    23  C    0.649531
    24  C   -0.452952
    25  H    0.187101
    26  H    0.192869
    27  H    0.173749
    28  O   -0.586559
    29  N   -0.626092
    30  H    0.378532
    31  C   -0.061332
    32  H    0.184778
    33  C    0.611141
    34  C   -0.056442
    35  H    0.165021
    36  H    0.176349
    37  O   -0.525028
    38  O   -0.665287
    39  H    0.439965
    40  N   -0.605253
    41  H    0.333808
    42  C   -0.067757
    43  H    0.198330
    44  C    0.614495
    45  C   -0.251881
    46  H    0.165831
    47  H    0.140433
    48  O   -0.645422
    49  C   -0.070132
    50  H    0.112554
    51  C   -0.443884
    52  H    0.153835
    53  H    0.138021
    54  H    0.145663
    55  C   -0.460490
    56  H    0.151533
    57  H    0.168922
    58  H    0.142263
    59  N   -0.598181
    60  H    0.379550
    61  C   -0.084136
    62  H    0.165975
    63  C    0.600683
    64  C   -0.288585
    65  H    0.127872
    66  H    0.193417
    67  O   -0.570422
    68  C   -0.283275
    69  H    0.147106
    70  H    0.198904
    71  C   -0.166520
    72  H    0.189272
    73  H    0.138495
    74  N   -0.613363
    75  H    0.422071
    76  N   -0.764960
    77  H    0.387405
    78  H    0.366368
    79  N   -0.786422
    80  H    0.395706
    81  H    0.366789
    82  C    0.752245
    83  O   -0.611400
 Sum of Mulliken charges =   1.00000

 Dipole moment (field-independent basis, Debye):
    X=            -40.6114    Y=            -10.4278    Z=             28.5204  Tot=             50.7093
 Quadrupole moment (field-independent basis, Debye-Ang):
   XX=             16.9681   YY=           -275.8698   ZZ=            -79.0748
   XY=            -33.1486   XZ=           -148.6961   YZ=             33.7966

 Normal termination of Gaussian 16 at Sun Jul 10 18:06:35 2022.
