 Gaussian 16, Revision C.01,
 Gaussian 16:  ES64L-G16RevC.01  3-Jul-2019

 ----------------------------------------------------------------------
 # B3LYP/6-31G* empiricaldispersion=gd3bj guess=read geom=check nosymm
 integral(ultrafinegrid)
 ----------------------------------------------------------------------

 ------------------------------------------------------
 Candidate Structure: Conf:914 Charge calc in gas phase
 ------------------------------------------------------
 Structure from the checkpoint file:  "conf-914.chk"
 Charge =  1 Multiplicity = 1

                          Input orientation:
 ---------------------------------------------------------------------
 Center     Atomic      Atomic             Coordinates (Angstroms)
 Number     Number       Type             X           Y           Z
 ---------------------------------------------------------------------
      1          7           0        0.872101    4.266543    3.435354
      2          1           0        1.231651    4.805137    4.223239
      3          1           0        0.280083    3.496170    3.793064
      4          1           0        1.756256    3.772601    2.905756
      5          6           0       -0.020734    5.086138    2.546041
      6          1           0       -0.251674    6.023564    3.067006
      7          6           0       -1.345944    4.290280    2.458207
      8          6           0        0.753799    5.421654    1.242641
      9          1           0        1.200421    4.482269    0.910737
     10          8           0       -1.497793    3.256871    3.105648
     11          6           0       -0.081759    5.956433    0.073689
     12          1           0       -0.628260    6.873612    0.336117
     13          1           0       -0.777300    5.211579   -0.318605
     14          1           0        0.602355    6.226764   -0.737178
     15          6           0        1.862742    6.427560    1.586334
     16          1           0        1.421471    7.374752    1.923784
     17          1           0        2.549534    6.052328    2.347011
     18          1           0        2.480221    6.624516    0.707637
     19          7           0       -2.330103    4.834781    1.702972
     20          1           0       -2.112966    5.640426    1.136125
     21          6           0       -3.514004    4.068876    1.313785
     22          1           0       -3.942918    3.638124    2.222223
     23          6           0       -3.045552    2.951960    0.357404
     24          6           0       -4.526422    4.983868    0.632626
     25          1           0       -5.429386    4.424235    0.373851
     26          1           0       -4.806512    5.804667    1.298655
     27          1           0       -4.107718    5.393885   -0.291936
     28          8           0       -2.567706    3.244251   -0.748276
     29          7           0       -3.208749    1.696771    0.824881
     30          1           0       -3.452668    1.654047    1.806893
     31          6           0       -2.487653    0.516015    0.357192
     32          1           0       -2.919775   -0.337847    0.887030
     33          6           0       -1.007164    0.641024    0.751782
     34          6           0       -2.626461    0.212180   -1.164026
     35          1           0       -3.657767   -0.091321   -1.360342
     36          1           0       -2.420661    1.105544   -1.754548
     37          8           0       -0.453556    1.733195    0.876940
     38          8           0       -1.792487   -0.871474   -1.530327
     39          1           0       -0.880244   -0.541967   -1.641229
     40          7           0       -0.371537   -0.543306    0.900509
     41          1           0       -0.847935   -1.362441    0.539915
     42          6           0        1.082947   -0.597844    0.981367
     43          1           0        1.380214   -0.300436    1.991112
     44          6           0        1.675592    0.385868   -0.046284
     45          6           0        1.550261   -2.029799    0.687973
     46          1           0        1.199535   -2.294073   -0.317943
     47          1           0        1.049765   -2.703759    1.396785
     48          8           0        1.264508    0.331636   -1.225238
     49          6           0        3.070455   -2.249889    0.768070
     50          1           0        3.550197   -1.572584    0.047981
     51          6           0        3.633858   -1.945395    2.162235
     52          1           0        3.133914   -2.553282    2.926863
     53          1           0        3.520409   -0.892149    2.440144
     54          1           0        4.703367   -2.176139    2.202625
     55          6           0        3.399164   -3.689124    0.352131
     56          1           0        2.948301   -4.409599    1.045875
     57          1           0        3.024533   -3.910881   -0.653481
     58          1           0        4.480932   -3.858140    0.354208
     59          7           0        2.617709    1.173157    0.472774
     60          1           0        2.586881    1.219099    1.491797
     61          6           0        3.372305    2.351462    0.024340
     62          1           0        4.404231    2.045752   -0.187670
     63          6           0        3.396350    3.336044    1.251715
     64          6           0        2.829871    3.144873   -1.171748
     65          1           0        3.405359    4.075415   -1.174123
     66          1           0        1.793205    3.415276   -0.954716
     67          8           0        3.994296    4.398672    1.117126
     68          6           0        2.942821    2.461538   -2.536432
     69          1           0        4.001859    2.284387   -2.762924
     70          1           0        2.477896    1.475945   -2.516512
     71          6           0        2.413469    3.286531   -3.712822
     72          1           0        2.405799    2.665230   -4.616182
     73          1           0        3.089411    4.127042   -3.898630
     74          7           0        1.080819    3.923405   -3.573780
     75          1           0        0.923778    4.653488   -4.256629
     76          7           0       -0.133171    2.515703   -2.113818
     77          1           0       -0.881369    2.527425   -1.420978
     78          1           0        0.588259    1.799626   -1.976380
     79          7           0       -1.099195    4.404601   -2.985728
     80          1           0       -0.958133    5.371665   -3.239663
     81          1           0       -1.877966    4.212476   -2.360257
     82          6           0       -0.017638    3.588793   -2.881161
     83          8           0        2.709641    2.932378    2.272107
 ---------------------------------------------------------------------

 SCF Done:  E(RB3LYP) =  -1868.21986907     A.U. after    3 cycles

 Alpha  occ. eigenvalues --  -19.25039 -19.24732 -19.24411 -19.22667 -19.22078
 Alpha  occ. eigenvalues --  -19.19257 -19.17270 -14.51372 -14.50152 -14.48886
 Alpha  occ. eigenvalues --  -14.48590 -14.48541 -14.47016 -14.46235 -14.44732
 Alpha  occ. eigenvalues --  -10.45352 -10.41766 -10.41616 -10.39291 -10.38692
 Alpha  occ. eigenvalues --  -10.36611 -10.35982 -10.35749 -10.34705 -10.34233
 Alpha  occ. eigenvalues --  -10.33802 -10.32633 -10.31282 -10.30924 -10.29732
 Alpha  occ. eigenvalues --  -10.29328 -10.28215 -10.27727 -10.27485 -10.26752
 Alpha  occ. eigenvalues --  -10.26491 -10.24597 -10.24132  -1.17162  -1.16249
 Alpha  occ. eigenvalues --   -1.14799  -1.13857  -1.12770  -1.11753  -1.11649
 Alpha  occ. eigenvalues --   -1.06981  -1.05432  -1.05008  -1.03629  -1.03436
 Alpha  occ. eigenvalues --   -1.03023  -1.01303  -1.01093  -0.92110  -0.90451
 Alpha  occ. eigenvalues --   -0.89685  -0.89198  -0.86755  -0.85017  -0.82592
 Alpha  occ. eigenvalues --   -0.82444  -0.79286  -0.78935  -0.77451  -0.75732
 Alpha  occ. eigenvalues --   -0.75245  -0.75040  -0.73492  -0.72155  -0.71190
 Alpha  occ. eigenvalues --   -0.70541  -0.70031  -0.69674  -0.68557  -0.68047
 Alpha  occ. eigenvalues --   -0.66314  -0.65688  -0.65193  -0.64468  -0.63919
 Alpha  occ. eigenvalues --   -0.63343  -0.62542  -0.62032  -0.61504  -0.61089
 Alpha  occ. eigenvalues --   -0.60850  -0.59764  -0.59230  -0.59118  -0.58380
 Alpha  occ. eigenvalues --   -0.58344  -0.57985  -0.57003  -0.56293  -0.55961
 Alpha  occ. eigenvalues --   -0.55518  -0.55075  -0.54539  -0.54051  -0.53714
 Alpha  occ. eigenvalues --   -0.53334  -0.52640  -0.52353  -0.51964  -0.51887
 Alpha  occ. eigenvalues --   -0.50871  -0.50490  -0.50461  -0.50339  -0.49968
 Alpha  occ. eigenvalues --   -0.49813  -0.49502  -0.49007  -0.48671  -0.48309
 Alpha  occ. eigenvalues --   -0.48223  -0.48051  -0.47910  -0.46711  -0.46319
 Alpha  occ. eigenvalues --   -0.45509  -0.45279  -0.45073  -0.44692  -0.44534
 Alpha  occ. eigenvalues --   -0.44181  -0.43805  -0.43500  -0.43361  -0.42625
 Alpha  occ. eigenvalues --   -0.40759  -0.40359  -0.40313  -0.40147  -0.40082
 Alpha  occ. eigenvalues --   -0.39474  -0.38792  -0.38398  -0.37795  -0.37286
 Alpha  occ. eigenvalues --   -0.36792  -0.35934  -0.35537  -0.34894  -0.34417
 Alpha  occ. eigenvalues --   -0.33579  -0.30926
 Alpha virt. eigenvalues --   -0.11995  -0.10438  -0.09645  -0.09000  -0.07175
 Alpha virt. eigenvalues --   -0.06133  -0.05060  -0.03823  -0.03301  -0.03142
 Alpha virt. eigenvalues --   -0.01711  -0.01438  -0.00408  -0.00221   0.00657

 Mulliken charges:
               1
     1  N   -0.798673
     2  H    0.384745
     3  H    0.405203
     4  H    0.475404
     5  C   -0.091894
     6  H    0.191545
     7  C    0.658115
     8  C   -0.099857
     9  H    0.185518
    10  O   -0.532586
    11  C   -0.516727
    12  H    0.152024
    13  H    0.159773
    14  H    0.165328
    15  C   -0.449330
    16  H    0.136125
    17  H    0.180303
    18  H    0.181273
    19  N   -0.596585
    20  H    0.349932
    21  C   -0.054560
    22  H    0.181319
    23  C    0.667132
    24  C   -0.480081
    25  H    0.188323
    26  H    0.185105
    27  H    0.164708
    28  O   -0.582478
    29  N   -0.568950
    30  H    0.363914
    31  C   -0.112490
    32  H    0.183945
    33  C    0.619000
    34  C   -0.050029
    35  H    0.178727
    36  H    0.165051
    37  O   -0.547069
    38  O   -0.627467
    39  H    0.416197
    40  N   -0.604052
    41  H    0.356415
    42  C   -0.013708
    43  H    0.171719
    44  C    0.652623
    45  C   -0.307155
    46  H    0.160755
    47  H    0.153218
    48  O   -0.610640
    49  C   -0.083931
    50  H    0.141037
    51  C   -0.453045
    52  H    0.149004
    53  H    0.138628
    54  H    0.162323
    55  C   -0.445983
    56  H    0.149119
    57  H    0.149781
    58  H    0.157639
    59  N   -0.607041
    60  H    0.377632
    61  C   -0.034379
    62  H    0.179696
    63  C    0.607295
    64  C   -0.303460
    65  H    0.185712
    66  H    0.148379
    67  O   -0.519398
    68  C   -0.340263
    69  H    0.170964
    70  H    0.203645
    71  C   -0.135912
    72  H    0.188303
    73  H    0.178888
    74  N   -0.619872
    75  H    0.354090
    76  N   -0.838847
    77  H    0.422431
    78  H    0.437185
    79  N   -0.783258
    80  H    0.352979
    81  H    0.404075
    82  C    0.787123
    83  O   -0.669648
 Sum of Mulliken charges =   1.00000

 Dipole moment (field-independent basis, Debye):
    X=             -4.7242    Y=             17.2070    Z=             -0.7154  Tot=             17.8581
 Quadrupole moment (field-independent basis, Debye-Ang):
   XX=           -202.9607   YY=           -121.5862   ZZ=           -176.2804
   XY=            -30.5097   XZ=            -18.3341   YZ=            -13.4612

 Normal termination of Gaussian 16 at Sun Jul 10 18:07:24 2022.
