 Gaussian 16, Revision C.01,
 Gaussian 16:  ES64L-G16RevC.01  3-Jul-2019

 ----------------------------------------------------------------------
 # B3LYP/6-31G* empiricaldispersion=gd3bj guess=read geom=check nosymm
 integral(ultrafinegrid)
 ----------------------------------------------------------------------

 ------------------------------------------------------
 Candidate Structure: Conf:586 Charge calc in gas phase
 ------------------------------------------------------
 Structure from the checkpoint file:  "conf-586.chk"
 Charge =  1 Multiplicity = 1

                          Input orientation:
 ---------------------------------------------------------------------
 Center     Atomic      Atomic             Coordinates (Angstroms)
 Number     Number       Type             X           Y           Z
 ---------------------------------------------------------------------
      1          7           0       -5.315259    3.382078    5.442797
      2          1           0       -5.114805    2.984962    6.365387
      3          1           0       -4.398227    3.615848    4.976785
      4          1           0       -5.889879    4.221359    5.557704
      5          6           0       -5.926044    2.376722    4.485441
      6          1           0       -6.428724    1.608097    5.077203
      7          6           0       -4.681373    1.817463    3.763964
      8          6           0       -6.942012    3.089845    3.555063
      9          1           0       -7.775450    3.379176    4.212106
     10          8           0       -3.665282    2.529858    3.740415
     11          6           0       -6.373142    4.350908    2.887565
     12          1           0       -5.507690    4.152868    2.247809
     13          1           0       -6.086271    5.129072    3.607304
     14          1           0       -7.148430    4.797135    2.258230
     15          6           0       -7.492753    2.112205    2.507644
     16          1           0       -6.734766    1.865438    1.757893
     17          1           0       -7.866143    1.185199    2.960851
     18          1           0       -8.334169    2.577978    1.988059
     19          7           0       -4.777908    0.612279    3.205085
     20          1           0       -5.669733    0.132586    3.218843
     21          6           0       -3.700174   -0.005104    2.411148
     22          1           0       -2.763600    0.392423    2.815756
     23          6           0       -3.775951    0.425539    0.925374
     24          6           0       -3.741350   -1.519356    2.557752
     25          1           0       -2.944205   -1.960357    1.957632
     26          1           0       -3.606994   -1.808204    3.603831
     27          1           0       -4.686488   -1.927832    2.184245
     28          8           0       -3.645435   -0.389519    0.024421
     29          7           0       -3.988549    1.756559    0.726890
     30          1           0       -3.811164    2.401855    1.491246
     31          6           0       -3.806044    2.371159   -0.591952
     32          1           0       -4.204047    1.687025   -1.344769
     33          6           0       -2.290788    2.587554   -0.771607
     34          6           0       -4.548723    3.709055   -0.598586
     35          1           0       -4.362644    4.226787   -1.548597
     36          1           0       -5.625047    3.535501   -0.504481
     37          8           0       -1.768573    3.661868   -0.431124
     38          8           0       -4.150041    4.499874    0.512772
     39          1           0       -3.180426    4.606308    0.382744
     40          7           0       -1.613176    1.514853   -1.192926
     41          1           0       -2.100031    0.671610   -1.487527
     42          6           0       -0.165667    1.385685   -1.151402
     43          1           0        0.272463    2.381853   -1.242006
     44          6           0        0.222678    0.486524   -2.336082
     45          6           0        0.283200    0.694055    0.156679
     46          1           0        1.370815    0.550439    0.115277
     47          1           0       -0.166693   -0.307519    0.154627
     48          8           0       -0.582797   -0.342878   -2.765946
     49          6           0       -0.085771    1.422484    1.459414
     50          1           0       -1.159065    1.655249    1.429473
     51          6           0        0.155646    0.496381    2.658946
     52          1           0        1.217263    0.236194    2.747642
     53          1           0       -0.403015   -0.443631    2.561247
     54          1           0       -0.144971    0.980271    3.596338
     55          6           0        0.671991    2.744717    1.621667
     56          1           0        1.755930    2.574515    1.616022
     57          1           0        0.420829    3.446337    0.822227
     58          1           0        0.415572    3.223593    2.574017
     59          7           0        1.478904    0.636930   -2.779364
     60          1           0        2.113382    1.344295   -2.414538
     61          6           0        2.104095   -0.211601   -3.780543
     62          1           0        1.841678   -1.255044   -3.590269
     63          6           0        3.628629   -0.027736   -3.645374
     64          6           0        1.629688    0.178742   -5.207676
     65          1           0        1.565408    1.274176   -5.249262
     66          1           0        0.610725   -0.199194   -5.330117
     67          8           0        4.312569   -0.998547   -4.125800
     68          6           0        2.539462   -0.329534   -6.342200
     69          1           0        2.967298   -1.296584   -6.067744
     70          1           0        1.952686   -0.466783   -7.259266
     71          6           0        3.681405    0.663424   -6.622884
     72          1           0        4.101659    1.067404   -5.701750
     73          1           0        3.296753    1.518843   -7.190815
     74          7           0        4.790903    0.097918   -7.397551
     75          1           0        4.598771   -0.173439   -8.352519
     76          7           0        6.235299   -0.342290   -5.619340
     77          1           0        7.199818   -0.457429   -5.336887
     78          1           0        5.433454   -0.567286   -4.856395
     79          7           0        6.943733   -0.581890   -7.841613
     80          1           0        6.958171   -0.063061   -8.708784
     81          1           0        7.843282   -0.903662   -7.515230
     82          6           0        5.989608   -0.272447   -6.909888
     83          8           0        4.048669    1.050101   -3.193466
 ---------------------------------------------------------------------

 SCF Done:  E(RB3LYP) =  -1868.17706070     A.U. after    1 cycles

 Alpha  occ. eigenvalues --  -19.27961 -19.21807 -19.21467 -19.19165 -19.15607
 Alpha  occ. eigenvalues --  -19.13336 -19.12622 -14.61253 -14.51489 -14.45317
 Alpha  occ. eigenvalues --  -14.45011 -14.44701 -14.42459 -14.41296 -14.39437
 Alpha  occ. eigenvalues --  -10.44727 -10.41601 -10.40121 -10.38519 -10.36051
 Alpha  occ. eigenvalues --  -10.34919 -10.34908 -10.32829 -10.31360 -10.31311
 Alpha  occ. eigenvalues --  -10.30636 -10.30622 -10.29655 -10.28651 -10.28187
 Alpha  occ. eigenvalues --  -10.28032 -10.25377 -10.24983 -10.24307 -10.23756
 Alpha  occ. eigenvalues --  -10.23203 -10.22733 -10.22247  -1.20513  -1.15210
 Alpha  occ. eigenvalues --   -1.13526  -1.11257  -1.08822  -1.08737  -1.07748
 Alpha  occ. eigenvalues --   -1.07593  -1.06388  -1.01663  -0.99090  -0.98527
 Alpha  occ. eigenvalues --   -0.98224  -0.95936  -0.95860  -0.95709  -0.89728
 Alpha  occ. eigenvalues --   -0.87116  -0.85970  -0.84423  -0.84115  -0.81565
 Alpha  occ. eigenvalues --   -0.81026  -0.78074  -0.76869  -0.75600  -0.74971
 Alpha  occ. eigenvalues --   -0.74083  -0.73914  -0.72975  -0.72704  -0.70422
 Alpha  occ. eigenvalues --   -0.70067  -0.69557  -0.68265  -0.66541  -0.66124
 Alpha  occ. eigenvalues --   -0.65388  -0.64244  -0.63610  -0.63232  -0.62881
 Alpha  occ. eigenvalues --   -0.62375  -0.61748  -0.61064  -0.60034  -0.59591
 Alpha  occ. eigenvalues --   -0.58782  -0.57902  -0.57358  -0.56954  -0.56191
 Alpha  occ. eigenvalues --   -0.54922  -0.54816  -0.54144  -0.53431  -0.53325
 Alpha  occ. eigenvalues --   -0.53116  -0.52460  -0.52236  -0.51558  -0.51165
 Alpha  occ. eigenvalues --   -0.50580  -0.50316  -0.50067  -0.49978  -0.49789
 Alpha  occ. eigenvalues --   -0.49093  -0.49034  -0.48522  -0.48276  -0.48036
 Alpha  occ. eigenvalues --   -0.47624  -0.47513  -0.47184  -0.47023  -0.46650
 Alpha  occ. eigenvalues --   -0.46046  -0.45843  -0.45250  -0.44375  -0.44241
 Alpha  occ. eigenvalues --   -0.44033  -0.43407  -0.42823  -0.42653  -0.42299
 Alpha  occ. eigenvalues --   -0.41667  -0.41565  -0.41419  -0.41010  -0.40220
 Alpha  occ. eigenvalues --   -0.38716  -0.38661  -0.38277  -0.38183  -0.37220
 Alpha  occ. eigenvalues --   -0.36916  -0.35621  -0.35036  -0.34549  -0.32820
 Alpha  occ. eigenvalues --   -0.32475  -0.31729  -0.30067  -0.29740  -0.28769
 Alpha  occ. eigenvalues --   -0.27480  -0.26699
 Alpha virt. eigenvalues --   -0.14029  -0.11914  -0.08761  -0.07303  -0.06174
 Alpha virt. eigenvalues --   -0.05164  -0.04794  -0.02955  -0.02096  -0.02026
 Alpha virt. eigenvalues --   -0.01669  -0.01469  -0.00498   0.00478   0.01518

 Mulliken charges:
               1
     1  N   -0.753090
     2  H    0.419635
     3  H    0.439565
     4  H    0.417335
     5  C   -0.114851
     6  H    0.206771
     7  C    0.651124
     8  C   -0.105952
     9  H    0.163555
    10  O   -0.545347
    11  C   -0.507507
    12  H    0.238509
    13  H    0.128628
    14  H    0.193747
    15  C   -0.486715
    16  H    0.188479
    17  H    0.151647
    18  H    0.196050
    19  N   -0.575248
    20  H    0.355815
    21  C   -0.108148
    22  H    0.228856
    23  C    0.632861
    24  C   -0.463252
    25  H    0.213510
    26  H    0.161803
    27  H    0.167056
    28  O   -0.495133
    29  N   -0.623059
    30  H    0.369285
    31  C   -0.098649
    32  H    0.188814
    33  C    0.639036
    34  C   -0.044109
    35  H    0.163887
    36  H    0.144120
    37  O   -0.565365
    38  O   -0.648409
    39  H    0.430197
    40  N   -0.584851
    41  H    0.374675
    42  C   -0.084923
    43  H    0.180174
    44  C    0.630941
    45  C   -0.255089
    46  H    0.155976
    47  H    0.148321
    48  O   -0.552394
    49  C   -0.080071
    50  H    0.109729
    51  C   -0.449133
    52  H    0.158823
    53  H    0.131283
    54  H    0.133497
    55  C   -0.457407
    56  H    0.145387
    57  H    0.180186
    58  H    0.132719
    59  N   -0.618725
    60  H    0.348287
    61  C   -0.005275
    62  H    0.169602
    63  C    0.579456
    64  C   -0.283625
    65  H    0.138513
    66  H    0.171123
    67  O   -0.635088
    68  C   -0.270512
    69  H    0.182939
    70  H    0.129070
    71  C   -0.176623
    72  H    0.217419
    73  H    0.159166
    74  N   -0.595523
    75  H    0.343478
    76  N   -0.766056
    77  H    0.335706
    78  H    0.460149
    79  N   -0.761577
    80  H    0.355379
    81  H    0.356386
    82  C    0.759704
    83  O   -0.566665
 Sum of Mulliken charges =   1.00000

 Dipole moment (field-independent basis, Debye):
    X=            -15.6663    Y=              9.9087    Z=              8.6447  Tot=             20.4535
 Quadrupole moment (field-independent basis, Debye-Ang):
   XX=              4.5492   YY=           -203.7271   ZZ=             11.4416
   XY=            -69.6495   XZ=           -212.2107   YZ=             51.1612

 Normal termination of Gaussian 16 at Sun Jul 10 18:06:30 2022.
