 Gaussian 16, Revision C.01,
 Gaussian 16:  ES64L-G16RevC.01  3-Jul-2019

 ----------------------------------------------------------------------
 # B3LYP/6-31G* empiricaldispersion=gd3bj guess=read geom=check nosymm
 integral(ultrafinegrid)
 ----------------------------------------------------------------------

 ------------------------------------------------------
 Candidate Structure: Conf:472 Charge calc in gas phase
 ------------------------------------------------------
 Structure from the checkpoint file:  "conf-472.chk"
 Charge =  1 Multiplicity = 1

                          Input orientation:
 ---------------------------------------------------------------------
 Center     Atomic      Atomic             Coordinates (Angstroms)
 Number     Number       Type             X           Y           Z
 ---------------------------------------------------------------------
      1          7           0       -8.280641    1.320435    5.008466
      2          1           0       -8.300329    0.943903    5.960186
      3          1           0       -7.714256    2.220860    5.010857
      4          1           0       -9.243046    1.474922    4.698533
      5          6           0       -7.479936    0.464191    4.046387
      6          1           0       -7.413489   -0.546402    4.457014
      7          6           0       -6.107334    1.187925    4.059189
      8          6           0       -8.163798    0.439729    2.658448
      9          1           0       -8.217678    1.480150    2.307108
     10          8           0       -6.093709    2.368986    4.445480
     11          6           0       -7.335522   -0.372109    1.650379
     12          1           0       -7.195286   -1.404630    1.992846
     13          1           0       -6.352200    0.060197    1.457926
     14          1           0       -7.869775   -0.414996    0.697501
     15          6           0       -9.585113   -0.140060    2.750047
     16          1           0       -9.567017   -1.167996    3.129935
     17          1           0      -10.270656    0.441827    3.381157
     18          1           0      -10.037329   -0.160766    1.754915
     19          7           0       -5.056172    0.492141    3.659096
     20          1           0       -5.132973   -0.445408    3.253853
     21          6           0       -3.721742    1.052297    3.456529
     22          1           0       -3.823027    2.030051    2.972347
     23          6           0       -3.049016    0.058091    2.482777
     24          6           0       -2.958704    1.207910    4.777568
     25          1           0       -1.967831    1.637797    4.605110
     26          1           0       -3.507435    1.877386    5.444883
     27          1           0       -2.832518    0.236707    5.265367
     28          8           0       -3.654080   -0.963210    2.134837
     29          7           0       -1.816303    0.381736    2.081751
     30          1           0       -1.321404    1.199387    2.433352
     31          6           0       -0.984277   -0.476217    1.258469
     32          1           0       -1.132691   -1.521501    1.544917
     33          6           0        0.455522   -0.027646    1.497161
     34          6           0       -1.329565   -0.326491   -0.253675
     35          1           0       -2.360932   -0.665435   -0.388694
     36          1           0       -1.273448    0.740063   -0.511953
     37          8           0        0.700583    1.068820    2.001702
     38          8           0       -0.491182   -1.110770   -1.067897
     39          1           0        0.298999   -0.562022   -1.280898
     40          7           0        1.400590   -0.893438    1.054250
     41          1           0        1.046352   -1.624201    0.443082
     42          6           0        2.728234   -0.389164    0.728064
     43          1           0        3.132018    0.091560    1.621493
     44          6           0        2.602121    0.653290   -0.396339
     45          6           0        3.619723   -1.565774    0.289593
     46          1           0        3.175718   -2.006212   -0.614094
     47          1           0        3.562875   -2.328181    1.077507
     48          8           0        1.703416    0.583018   -1.250882
     49          6           0        5.097100   -1.232017    0.014733
     50          1           0        5.149182   -0.458956   -0.761550
     51          6           0        5.818330   -0.700368    1.259927
     52          1           0        5.803005   -1.444932    2.065995
     53          1           0        5.370928    0.219637    1.653663
     54          1           0        6.862157   -0.469905    1.027450
     55          6           0        5.808740   -2.479350   -0.524468
     56          1           0        5.796264   -3.289460    0.215626
     57          1           0        5.328661   -2.850163   -1.437291
     58          1           0        6.854691   -2.257494   -0.759831
     59          7           0        3.537679    1.612607   -0.403563
     60          1           0        4.326208    1.560660    0.234600
     61          6           0        3.748489    2.510435   -1.525059
     62          1           0        3.331464    2.043320   -2.419190
     63          6           0        5.259608    2.654785   -1.724636
     64          6           0        3.093877    3.890221   -1.304500
     65          1           0        3.529756    4.608801   -2.005162
     66          1           0        3.351959    4.232009   -0.295820
     67          8           0        5.612025    3.243844   -2.858606
     68          6           0        1.574841    3.865193   -1.485234
     69          1           0        1.127987    3.111341   -0.827381
     70          1           0        1.163135    4.837712   -1.183005
     71          6           0        1.143790    3.563456   -2.926112
     72          1           0        0.050364    3.487754   -2.968369
     73          1           0        1.539964    2.603170   -3.258795
     74          7           0        1.554220    4.569279   -3.898765
     75          1           0        1.091719    5.466763   -3.865190
     76          7           0        3.549402    3.579716   -4.610253
     77          1           0        4.118199    3.523860   -5.454924
     78          1           0        4.799699    3.396365   -3.440391
     79          7           0        2.577548    5.427306   -5.761778
     80          1           0        1.676409    5.618178   -6.182237
     81          1           0        3.336174    5.395343   -6.429182
     82          6           0        2.610208    4.468760   -4.758482
     83          8           0        6.057023    2.277318   -0.887486
 ---------------------------------------------------------------------

 SCF Done:  E(RB3LYP) =  -1868.19024081     A.U. after    1 cycles

 Alpha  occ. eigenvalues --  -19.27148 -19.22326 -19.21694 -19.20140 -19.20051
 Alpha  occ. eigenvalues --  -19.19378 -19.17600 -14.60317 -14.49570 -14.45706
 Alpha  occ. eigenvalues --  -14.43032 -14.42625 -14.42270 -14.42165 -14.36457
 Alpha  occ. eigenvalues --  -10.43831 -10.40984 -10.39304 -10.36501 -10.36387
 Alpha  occ. eigenvalues --  -10.35863 -10.35829 -10.35105 -10.35034 -10.31763
 Alpha  occ. eigenvalues --  -10.31116 -10.30532 -10.30218 -10.30111 -10.28748
 Alpha  occ. eigenvalues --  -10.28714 -10.28116 -10.25207 -10.24678 -10.24449
 Alpha  occ. eigenvalues --  -10.24339 -10.22352 -10.22052  -1.19674  -1.14572
 Alpha  occ. eigenvalues --   -1.14005  -1.13379  -1.12096  -1.10544  -1.07860
 Alpha  occ. eigenvalues --   -1.06420  -1.05495  -1.05183  -1.02325  -1.00160
 Alpha  occ. eigenvalues --   -0.99383  -0.96042  -0.95821  -0.91605  -0.89819
 Alpha  occ. eigenvalues --   -0.87630  -0.86092  -0.85659  -0.83712  -0.81966
 Alpha  occ. eigenvalues --   -0.81130  -0.79153  -0.77616  -0.75420  -0.74285
 Alpha  occ. eigenvalues --   -0.74137  -0.73369  -0.73202  -0.71544  -0.70704
 Alpha  occ. eigenvalues --   -0.70258  -0.68477  -0.67471  -0.67082  -0.66223
 Alpha  occ. eigenvalues --   -0.65178  -0.64868  -0.64210  -0.64173  -0.62074
 Alpha  occ. eigenvalues --   -0.61883  -0.61025  -0.60265  -0.59735  -0.59254
 Alpha  occ. eigenvalues --   -0.59172  -0.58761  -0.57507  -0.56861  -0.56180
 Alpha  occ. eigenvalues --   -0.55564  -0.54982  -0.54583  -0.54321  -0.53643
 Alpha  occ. eigenvalues --   -0.53282  -0.53223  -0.52945  -0.52584  -0.52043
 Alpha  occ. eigenvalues --   -0.51413  -0.51229  -0.50710  -0.50400  -0.49955
 Alpha  occ. eigenvalues --   -0.49600  -0.49388  -0.49145  -0.48639  -0.48450
 Alpha  occ. eigenvalues --   -0.48413  -0.47914  -0.47656  -0.47572  -0.47320
 Alpha  occ. eigenvalues --   -0.46738  -0.46445  -0.46240  -0.45621  -0.45033
 Alpha  occ. eigenvalues --   -0.44446  -0.43539  -0.43329  -0.43095  -0.42315
 Alpha  occ. eigenvalues --   -0.41696  -0.41559  -0.41305  -0.40391  -0.39786
 Alpha  occ. eigenvalues --   -0.39731  -0.39407  -0.38400  -0.38020  -0.37896
 Alpha  occ. eigenvalues --   -0.37048  -0.36476  -0.35055  -0.34621  -0.34518
 Alpha  occ. eigenvalues --   -0.33984  -0.33008  -0.32753  -0.32576  -0.31902
 Alpha  occ. eigenvalues --   -0.31189  -0.29942
 Alpha virt. eigenvalues --   -0.12892  -0.11414  -0.07899  -0.06940  -0.06216
 Alpha virt. eigenvalues --   -0.04710  -0.04587  -0.02890  -0.02685  -0.02204
 Alpha virt. eigenvalues --   -0.01421  -0.00440  -0.00242   0.00345   0.01734

 Mulliken charges:
               1
     1  N   -0.758870
     2  H    0.416532
     3  H    0.432839
     4  H    0.409279
     5  C   -0.103311
     6  H    0.207061
     7  C    0.647140
     8  C   -0.110327
     9  H    0.169884
    10  O   -0.546874
    11  C   -0.475839
    12  H    0.170734
    13  H    0.185532
    14  H    0.188743
    15  C   -0.474341
    16  H    0.178213
    17  H    0.139463
    18  H    0.203400
    19  N   -0.602985
    20  H    0.382314
    21  C   -0.061839
    22  H    0.198502
    23  C    0.633086
    24  C   -0.456299
    25  H    0.182572
    26  H    0.185626
    27  H    0.173119
    28  O   -0.549629
    29  N   -0.623418
    30  H    0.364617
    31  C   -0.069468
    32  H    0.190925
    33  C    0.609462
    34  C   -0.033096
    35  H    0.166892
    36  H    0.139184
    37  O   -0.544393
    38  O   -0.649666
    39  H    0.442344
    40  N   -0.599943
    41  H    0.347987
    42  C   -0.068364
    43  H    0.184890
    44  C    0.652069
    45  C   -0.283529
    46  H    0.148563
    47  H    0.157114
    48  O   -0.584690
    49  C   -0.095843
    50  H    0.148554
    51  C   -0.448702
    52  H    0.143197
    53  H    0.133508
    54  H    0.172841
    55  C   -0.445632
    56  H    0.143230
    57  H    0.145781
    58  H    0.159444
    59  N   -0.592221
    60  H    0.368659
    61  C   -0.102309
    62  H    0.205470
    63  C    0.613092
    64  C   -0.262017
    65  H    0.160473
    66  H    0.155478
    67  O   -0.608416
    68  C   -0.267247
    69  H    0.163879
    70  H    0.129629
    71  C   -0.143446
    72  H    0.144691
    73  H    0.201334
    74  N   -0.592107
    75  H    0.330121
    76  N   -0.735878
    77  H    0.296749
    78  H    0.470643
    79  N   -0.757443
    80  H    0.336269
    81  H    0.340152
    82  C    0.661298
    83  O   -0.484436
 Sum of Mulliken charges =   1.00000

 Dipole moment (field-independent basis, Debye):
    X=            -30.8460    Y=              7.6434    Z=             11.8770  Tot=             33.9259
 Quadrupole moment (field-independent basis, Debye-Ang):
   XX=             18.6014   YY=           -192.0471   ZZ=            -98.1027
   XY=            -31.5324   XZ=           -146.9468   YZ=            -28.0932

 Normal termination of Gaussian 16 at Sun Jul 10 18:06:26 2022.
