 Gaussian 16, Revision C.01,
 Gaussian 16:  ES64L-G16RevC.01  3-Jul-2019

 ----------------------------------------------------------------------
 # B3LYP/6-31G* empiricaldispersion=gd3bj guess=read geom=check nosymm
 integral(ultrafinegrid)
 ----------------------------------------------------------------------

 ------------------------------------------------------
 Candidate Structure: Conf:549 Charge calc in gas phase
 ------------------------------------------------------
 Structure from the checkpoint file:  "conf-549.chk"
 Charge =  1 Multiplicity = 1

                          Input orientation:
 ---------------------------------------------------------------------
 Center     Atomic      Atomic             Coordinates (Angstroms)
 Number     Number       Type             X           Y           Z
 ---------------------------------------------------------------------
      1          7           0       -7.983076   -0.348703    3.549208
      2          1           0       -8.739080    0.335946    3.631614
      3          1           0       -7.479151   -0.194950    2.624712
      4          1           0       -8.383987   -1.287552    3.610259
      5          6           0       -6.861567   -0.126980    4.546716
      6          1           0       -7.241370    0.509661    5.350510
      7          6           0       -5.813389    0.609422    3.673834
      8          6           0       -6.378919   -1.482308    5.119359
      9          1           0       -6.002558   -2.075659    4.275391
     10          8           0       -5.947937    0.542822    2.446017
     11          6           0       -5.216609   -1.278216    6.102660
     12          1           0       -5.479866   -0.557380    6.888834
     13          1           0       -4.312075   -0.966433    5.577828
     14          1           0       -4.995573   -2.226735    6.599774
     15          6           0       -7.532729   -2.228284    5.809728
     16          1           0       -7.938859   -1.643523    6.643479
     17          1           0       -8.367359   -2.492009    5.145286
     18          1           0       -7.162947   -3.173757    6.215153
     19          7           0       -4.856583    1.308547    4.293865
     20          1           0       -4.754435    1.174175    5.292237
     21          6           0       -3.640687    1.672315    3.565688
     22          1           0       -3.946490    2.217084    2.668066
     23          6           0       -2.921873    0.364432    3.137039
     24          6           0       -2.753447    2.551903    4.448585
     25          1           0       -1.857127    2.858471    3.904397
     26          1           0       -3.289235    3.453100    4.760900
     27          1           0       -2.427125    2.004014    5.340305
     28          8           0       -3.273224   -0.731217    3.578634
     29          7           0       -1.907411    0.547986    2.282670
     30          1           0       -1.605778    1.471255    1.975500
     31          6           0       -1.019943   -0.510057    1.840084
     32          1           0       -0.803565   -1.186013    2.673250
     33          6           0        0.249805    0.182701    1.344358
     34          6           0       -1.655735   -1.346123    0.691245
     35          1           0       -2.572967   -1.793249    1.086076
     36          1           0       -1.923667   -0.661646   -0.125139
     37          8           0        0.269469    1.397861    1.144717
     38          8           0       -0.803345   -2.379004    0.255792
     39          1           0       -0.245696   -2.008284   -0.469934
     40          7           0        1.293360   -0.652169    1.118433
     41          1           0        1.047871   -1.638565    1.120541
     42          6           0        2.348416   -0.265180    0.197304
     43          1           0        2.551532    0.793635    0.370017
     44          6           0        1.848603   -0.427486   -1.254915
     45          6           0        3.616275   -1.099266    0.439472
     46          1           0        4.384217   -0.773788   -0.272834
     47          1           0        3.397458   -2.148290    0.194082
     48          8           0        0.816029   -1.061861   -1.535650
     49          6           0        4.176358   -1.010963    1.869037
     50          1           0        3.408126   -1.392366    2.555616
     51          6           0        5.416410   -1.904686    1.992900
     52          1           0        6.219237   -1.552298    1.333363
     53          1           0        5.191545   -2.942474    1.720541
     54          1           0        5.802007   -1.901050    3.018297
     55          6           0        4.497285    0.433046    2.273543
     56          1           0        5.205599    0.888615    1.569559
     57          1           0        3.600196    1.060634    2.306116
     58          1           0        4.954841    0.461989    3.268502
     59          7           0        2.628956    0.138502   -2.176568
     60          1           0        3.476655    0.656545   -1.943554
     61          6           0        2.462120    0.013426   -3.617853
     62          1           0        2.171222   -1.017856   -3.842836
     63          6           0        3.868618    0.306025   -4.225895
     64          6           0        1.354980    0.988277   -4.084643
     65          1           0        1.601975    1.974219   -3.674176
     66          1           0        0.428044    0.664045   -3.596752
     67          8           0        4.081512   -0.246236   -5.360197
     68          6           0        1.100203    1.162645   -5.591591
     69          1           0        0.248189    1.846199   -5.693604
     70          1           0        1.953918    1.661841   -6.065478
     71          6           0        0.780866   -0.112917   -6.400086
     72          1           0        0.183362    0.142733   -7.279582
     73          1           0        0.198596   -0.823437   -5.804489
     74          7           0        2.018631   -0.776708   -6.835736
     75          1           0        2.759086   -0.795473   -6.079130
     76          7           0        1.881920   -0.385470   -9.140924
     77          1           0        2.333758   -0.148018  -10.011090
     78          1           0        0.974351   -0.822026   -9.197712
     79          7           0        3.935573   -0.370112   -8.035391
     80          1           0        4.411382   -0.239642   -7.128146
     81          1           0        4.463184   -0.458292   -8.890647
     82          6           0        2.607788   -0.515650   -8.004940
     83          8           0        4.632640    1.019593   -3.567432
 ---------------------------------------------------------------------

 SCF Done:  E(RB3LYP) =  -1868.18331766     A.U. after    2 cycles

 Alpha  occ. eigenvalues --  -19.26879 -19.20724 -19.18953 -19.18805 -19.17530
 Alpha  occ. eigenvalues --  -19.13924 -19.12590 -14.59633 -14.49570 -14.46316
 Alpha  occ. eigenvalues --  -14.44333 -14.44251 -14.42332 -14.41830 -14.40302
 Alpha  occ. eigenvalues --  -10.43484 -10.40982 -10.40412 -10.37856 -10.35383
 Alpha  occ. eigenvalues --  -10.34408 -10.34005 -10.33923 -10.31130 -10.30978
 Alpha  occ. eigenvalues --  -10.29947 -10.29621 -10.29363 -10.28959 -10.28887
 Alpha  occ. eigenvalues --  -10.28627 -10.26476 -10.24901 -10.24036 -10.23672
 Alpha  occ. eigenvalues --  -10.23658 -10.21691 -10.21564  -1.19495  -1.13810
 Alpha  occ. eigenvalues --   -1.12567  -1.10712  -1.09726  -1.08785  -1.06678
 Alpha  occ. eigenvalues --   -1.06426  -1.06227  -1.00953  -0.99431  -0.98963
 Alpha  occ. eigenvalues --   -0.98066  -0.97755  -0.96662  -0.94949  -0.89191
 Alpha  occ. eigenvalues --   -0.86516  -0.85449  -0.84987  -0.82823  -0.81048
 Alpha  occ. eigenvalues --   -0.80555  -0.78135  -0.76000  -0.74553  -0.73879
 Alpha  occ. eigenvalues --   -0.73856  -0.72703  -0.72613  -0.71576  -0.71300
 Alpha  occ. eigenvalues --   -0.69782  -0.69596  -0.67165  -0.66669  -0.65884
 Alpha  occ. eigenvalues --   -0.65407  -0.64245  -0.63524  -0.63431  -0.62638
 Alpha  occ. eigenvalues --   -0.62060  -0.60980  -0.59683  -0.59279  -0.58526
 Alpha  occ. eigenvalues --   -0.58370  -0.57856  -0.57766  -0.56701  -0.55548
 Alpha  occ. eigenvalues --   -0.55037  -0.54602  -0.54360  -0.53617  -0.53128
 Alpha  occ. eigenvalues --   -0.52807  -0.52010  -0.51759  -0.51496  -0.51088
 Alpha  occ. eigenvalues --   -0.50713  -0.50448  -0.50172  -0.49655  -0.49522
 Alpha  occ. eigenvalues --   -0.49362  -0.48985  -0.48362  -0.48147  -0.47959
 Alpha  occ. eigenvalues --   -0.47902  -0.47390  -0.46671  -0.46308  -0.46062
 Alpha  occ. eigenvalues --   -0.45852  -0.45652  -0.45051  -0.44592  -0.43986
 Alpha  occ. eigenvalues --   -0.43614  -0.42991  -0.42740  -0.42639  -0.42017
 Alpha  occ. eigenvalues --   -0.41398  -0.40932  -0.40181  -0.39886  -0.39716
 Alpha  occ. eigenvalues --   -0.38968  -0.38461  -0.37397  -0.37197  -0.37143
 Alpha  occ. eigenvalues --   -0.36876  -0.35687  -0.34696  -0.33517  -0.33183
 Alpha  occ. eigenvalues --   -0.32648  -0.31632  -0.31074  -0.30466  -0.28814
 Alpha  occ. eigenvalues --   -0.28097  -0.26870
 Alpha virt. eigenvalues --   -0.12508  -0.10866  -0.06718  -0.06548  -0.06339
 Alpha virt. eigenvalues --   -0.05016  -0.04626  -0.02960  -0.02463  -0.01757
 Alpha virt. eigenvalues --   -0.00986  -0.00485   0.00764   0.00939   0.01774

 Mulliken charges:
               1
     1  N   -0.760208
     2  H    0.414393
     3  H    0.434916
     4  H    0.409790
     5  C   -0.117996
     6  H    0.202494
     7  C    0.673306
     8  C   -0.097600
     9  H    0.187593
    10  O   -0.536153
    11  C   -0.501452
    12  H    0.143632
    13  H    0.216767
    14  H    0.187102
    15  C   -0.475890
    16  H    0.172803
    17  H    0.136288
    18  H    0.203556
    19  N   -0.576935
    20  H    0.352334
    21  C   -0.078713
    22  H    0.203142
    23  C    0.647397
    24  C   -0.481728
    25  H    0.197262
    26  H    0.181171
    27  H    0.169288
    28  O   -0.544227
    29  N   -0.615893
    30  H    0.361755
    31  C   -0.069398
    32  H    0.185183
    33  C    0.605277
    34  C   -0.032166
    35  H    0.160994
    36  H    0.141765
    37  O   -0.542726
    38  O   -0.654027
    39  H    0.445095
    40  N   -0.589463
    41  H    0.343792
    42  C   -0.091534
    43  H    0.195546
    44  C    0.649186
    45  C   -0.282829
    46  H    0.161646
    47  H    0.142253
    48  O   -0.589030
    49  C   -0.062386
    50  H    0.129074
    51  C   -0.445402
    52  H    0.150128
    53  H    0.143297
    54  H    0.147545
    55  C   -0.459007
    56  H    0.148724
    57  H    0.152452
    58  H    0.148612
    59  N   -0.603728
    60  H    0.361130
    61  C   -0.063771
    62  H    0.155682
    63  C    0.611285
    64  C   -0.266082
    65  H    0.157220
    66  H    0.160614
    67  O   -0.646951
    68  C   -0.285011
    69  H    0.149408
    70  H    0.163662
    71  C   -0.168795
    72  H    0.146598
    73  H    0.177984
    74  N   -0.601002
    75  H    0.411620
    76  N   -0.748369
    77  H    0.361841
    78  H    0.368937
    79  N   -0.766733
    80  H    0.423691
    81  H    0.350469
    82  C    0.751315
    83  O   -0.541808
 Sum of Mulliken charges =   1.00000

 Dipole moment (field-independent basis, Debye):
    X=            -27.5105    Y=             -0.6720    Z=              3.7776  Tot=             27.7768
 Quadrupole moment (field-independent basis, Debye-Ang):
   XX=            -10.3813   YY=           -225.4351   ZZ=             30.6301
   XY=             -4.3465   XZ=           -144.6324   YZ=             10.0885

 Normal termination of Gaussian 16 at Sun Jul 10 18:06:48 2022.
