 Gaussian 16, Revision C.01,
 Gaussian 16:  ES64L-G16RevC.01  3-Jul-2019

 ----------------------------------------------------------------------
 # B3LYP/6-31G* empiricaldispersion=gd3bj guess=read geom=check nosymm
 integral(ultrafinegrid)
 ----------------------------------------------------------------------

 ------------------------------------------------------
 Candidate Structure: Conf:126 Charge calc in gas phase
 ------------------------------------------------------
 Structure from the checkpoint file:  "conf-126.chk"
 Charge =  1 Multiplicity = 1

                          Input orientation:
 ---------------------------------------------------------------------
 Center     Atomic      Atomic             Coordinates (Angstroms)
 Number     Number       Type             X           Y           Z
 ---------------------------------------------------------------------
      1          7           0       -3.744844    2.926509    2.371241
      2          1           0       -3.470502    3.874564    2.113011
      3          1           0       -4.051899    2.861277    3.358624
      4          1           0       -2.936423    2.263228    2.290526
      5          6           0       -4.901544    2.399743    1.554278
      6          1           0       -5.650588    3.199825    1.535247
      7          6           0       -5.418998    1.248454    2.460540
      8          6           0       -4.468239    2.040503    0.117459
      9          1           0       -3.998286    1.050890    0.147602
     10          8           0       -5.181538    1.330190    3.670805
     11          6           0       -5.686506    2.022421   -0.822135
     12          1           0       -6.077993    3.037799   -0.954898
     13          1           0       -6.522064    1.407823   -0.471425
     14          1           0       -5.391621    1.646149   -1.805401
     15          6           0       -3.425429    3.024842   -0.433181
     16          1           0       -3.816818    4.051151   -0.450057
     17          1           0       -2.486284    3.001605    0.124184
     18          1           0       -3.170324    2.746742   -1.458622
     19          7           0       -6.044253    0.205467    1.895479
     20          1           0       -6.099185    0.161099    0.886986
     21          6           0       -6.179631   -1.087210    2.600192
     22          1           0       -6.146512   -0.853557    3.666591
     23          6           0       -4.935782   -1.927921    2.196377
     24          6           0       -7.479059   -1.783208    2.230944
     25          1           0       -7.544081   -2.740512    2.752847
     26          1           0       -8.334795   -1.163748    2.511935
     27          1           0       -7.518845   -1.998098    1.158964
     28          8           0       -5.041041   -2.964913    1.561482
     29          7           0       -3.754635   -1.334105    2.534221
     30          1           0       -3.788300   -0.486373    3.089052
     31          6           0       -2.474227   -1.572928    1.892668
     32          1           0       -1.940280   -2.413194    2.353561
     33          6           0       -1.648964   -0.298744    2.052466
     34          6           0       -2.612945   -1.885536    0.358849
     35          1           0       -3.084255   -2.861684    0.260631
     36          1           0       -3.284804   -1.134683   -0.081292
     37          8           0       -2.172791    0.778325    2.396566
     38          8           0       -1.368121   -1.918278   -0.298518
     39          1           0       -1.166169   -0.998182   -0.577587
     40          7           0       -0.346359   -0.413914    1.759361
     41          1           0       -0.094539   -1.283283    1.294303
     42          6           0        0.442536    0.754508    1.404112
     43          1           0        0.410531    1.460275    2.238243
     44          6           0       -0.161847    1.435334    0.159305
     45          6           0        1.894883    0.338707    1.108520
     46          1           0        2.445181    1.217737    0.752127
     47          1           0        1.879925   -0.369691    0.268132
     48          8           0       -0.947701    0.850193   -0.597548
     49          6           0        2.640565   -0.285265    2.301317
     50          1           0        2.085743   -1.175389    2.630488
     51          6           0        4.035053   -0.734534    1.847530
     52          1           0        4.630833    0.124021    1.514472
     53          1           0        3.975763   -1.444502    1.014946
     54          1           0        4.574675   -1.220155    2.667308
     55          6           0        2.735685    0.681546    3.487571
     56          1           0        3.231383    1.614509    3.190392
     57          1           0        1.751393    0.933740    3.898536
     58          1           0        3.320946    0.238077    4.299725
     59          7           0        0.263618    2.704793   -0.031641
     60          1           0        1.080321    2.985068    0.517305
     61          6           0        0.410167    3.277492   -1.378424
     62          1           0       -0.106749    2.627515   -2.085970
     63          6           0        1.943364    3.291400   -1.655841
     64          6           0       -0.191181    4.702961   -1.405166
     65          1           0        0.450223    5.357627   -0.799623
     66          1           0       -1.149367    4.646474   -0.878879
     67          8           0        2.302013    3.211284   -2.875331
     68          6           0       -0.442538    5.334090   -2.796400
     69          1           0       -0.536585    4.549881   -3.558255
     70          1           0       -1.407195    5.853789   -2.781084
     71          6           0        0.590809    6.366229   -3.273072
     72          1           0        0.740533    7.130358   -2.500626
     73          1           0        0.211850    6.867620   -4.172415
     74          7           0        1.864173    5.711179   -3.564503
     75          1           0        1.833002    4.674792   -3.603406
     76          7           0        3.271595    7.483497   -2.998110
     77          1           0        4.202454    7.813843   -2.788252
     78          1           0        2.665476    8.146907   -3.458668
     79          7           0        4.057081    5.276112   -3.068937
     80          1           0        3.762039    4.288201   -2.932302
     81          1           0        4.989679    5.569088   -2.819732
     82          6           0        3.070012    6.160364   -3.211827
     83          8           0        2.678632    3.439924   -0.661138
 ---------------------------------------------------------------------

 SCF Done:  E(RB3LYP) =  -1868.20434120     A.U. after    1 cycles

 Alpha  occ. eigenvalues --  -19.25294 -19.24422 -19.22263 -19.22164 -19.20812
 Alpha  occ. eigenvalues --  -19.17233 -19.16753 -14.56680 -14.49009 -14.48609
 Alpha  occ. eigenvalues --  -14.46398 -14.45903 -14.45842 -14.44894 -14.44394
 Alpha  occ. eigenvalues --  -10.43410 -10.42571 -10.40333 -10.38993 -10.38481
 Alpha  occ. eigenvalues --  -10.37960 -10.34746 -10.33462 -10.33074 -10.33023
 Alpha  occ. eigenvalues --  -10.32974 -10.32877 -10.31962 -10.30304 -10.29997
 Alpha  occ. eigenvalues --  -10.29725 -10.28986 -10.28241 -10.27051 -10.26606
 Alpha  occ. eigenvalues --  -10.26455 -10.24412 -10.23719  -1.17937  -1.15824
 Alpha  occ. eigenvalues --   -1.13385  -1.12790  -1.12356  -1.11488  -1.10315
 Alpha  occ. eigenvalues --   -1.09878  -1.05485  -1.03606  -1.02573  -1.01571
 Alpha  occ. eigenvalues --   -1.01537  -1.00483  -1.00133  -0.94050  -0.89965
 Alpha  occ. eigenvalues --   -0.88858  -0.88039  -0.85592  -0.84149  -0.83672
 Alpha  occ. eigenvalues --   -0.81690  -0.80898  -0.76665  -0.75508  -0.75247
 Alpha  occ. eigenvalues --   -0.74372  -0.73992  -0.73012  -0.72533  -0.72255
 Alpha  occ. eigenvalues --   -0.71492  -0.69990  -0.69451  -0.68335  -0.67769
 Alpha  occ. eigenvalues --   -0.66945  -0.66370  -0.66014  -0.65159  -0.64218
 Alpha  occ. eigenvalues --   -0.62910  -0.62606  -0.61247  -0.60970  -0.60753
 Alpha  occ. eigenvalues --   -0.60098  -0.59147  -0.58792  -0.58478  -0.57849
 Alpha  occ. eigenvalues --   -0.56872  -0.56571  -0.56268  -0.55940  -0.55259
 Alpha  occ. eigenvalues --   -0.54840  -0.54257  -0.54211  -0.53223  -0.53118
 Alpha  occ. eigenvalues --   -0.52656  -0.52356  -0.52134  -0.51564  -0.51401
 Alpha  occ. eigenvalues --   -0.50917  -0.50323  -0.50077  -0.49910  -0.49642
 Alpha  occ. eigenvalues --   -0.49198  -0.48821  -0.48534  -0.47995  -0.47505
 Alpha  occ. eigenvalues --   -0.47182  -0.46946  -0.46889  -0.46344  -0.46284
 Alpha  occ. eigenvalues --   -0.46000  -0.45913  -0.45194  -0.44997  -0.44955
 Alpha  occ. eigenvalues --   -0.44682  -0.43667  -0.43573  -0.42464  -0.41598
 Alpha  occ. eigenvalues --   -0.40262  -0.40102  -0.39936  -0.39696  -0.39255
 Alpha  occ. eigenvalues --   -0.39165  -0.38532  -0.38114  -0.36801  -0.36525
 Alpha  occ. eigenvalues --   -0.36092  -0.34777  -0.33829  -0.33451  -0.32538
 Alpha  occ. eigenvalues --   -0.31169  -0.31030
 Alpha virt. eigenvalues --   -0.12524  -0.09928  -0.08143  -0.08052  -0.07552
 Alpha virt. eigenvalues --   -0.06146  -0.04481  -0.04073  -0.03458  -0.02496
 Alpha virt. eigenvalues --   -0.01167  -0.00704  -0.00455   0.00037   0.00173

 Mulliken charges:
               1
     1  N   -0.770424
     2  H    0.397346
     3  H    0.420812
     4  H    0.455869
     5  C   -0.102896
     6  H    0.212432
     7  C    0.641141
     8  C   -0.129922
     9  H    0.183636
    10  O   -0.537932
    11  C   -0.478565
    12  H    0.169344
    13  H    0.159422
    14  H    0.191612
    15  C   -0.484792
    16  H    0.141451
    17  H    0.169962
    18  H    0.198256
    19  N   -0.584299
    20  H    0.354706
    21  C   -0.098778
    22  H    0.213207
    23  C    0.614001
    24  C   -0.445867
    25  H    0.193041
    26  H    0.165855
    27  H    0.167687
    28  O   -0.491770
    29  N   -0.643380
    30  H    0.364795
    31  C   -0.035449
    32  H    0.194437
    33  C    0.619834
    34  C   -0.058212
    35  H    0.215911
    36  H    0.127519
    37  O   -0.616685
    38  O   -0.646728
    39  H    0.438504
    40  N   -0.575617
    41  H    0.365150
    42  C   -0.077467
    43  H    0.175493
    44  C    0.629898
    45  C   -0.317888
    46  H    0.191451
    47  H    0.155338
    48  O   -0.566672
    49  C   -0.071494
    50  H    0.131987
    51  C   -0.447014
    52  H    0.155238
    53  H    0.150804
    54  H    0.155793
    55  C   -0.456641
    56  H    0.150965
    57  H    0.138828
    58  H    0.161827
    59  N   -0.597037
    60  H    0.353327
    61  C   -0.075503
    62  H    0.179064
    63  C    0.605410
    64  C   -0.277883
    65  H    0.151699
    66  H    0.143498
    67  O   -0.626363
    68  C   -0.306816
    69  H    0.174889
    70  H    0.155001
    71  C   -0.146064
    72  H    0.163779
    73  H    0.171179
    74  N   -0.605897
    75  H    0.403587
    76  N   -0.754039
    77  H    0.366197
    78  H    0.371037
    79  N   -0.759562
    80  H    0.417726
    81  H    0.353013
    82  C    0.767815
    83  O   -0.563119
 Sum of Mulliken charges =   1.00000

 Dipole moment (field-independent basis, Debye):
    X=             -7.8427    Y=             23.3572    Z=              0.4581  Tot=             24.6430
 Quadrupole moment (field-independent basis, Debye-Ang):
   XX=           -123.6852   YY=            -83.6435   ZZ=           -198.3078
   XY=              7.0683   XZ=            -29.7563   YZ=            -42.8815

 Normal termination of Gaussian 16 at Sun Jul 10 18:06:02 2022.
