 Gaussian 16, Revision C.01,
 Gaussian 16:  ES64L-G16RevC.01  3-Jul-2019

 ----------------------------------------------------------------------
 # B3LYP/6-31G* empiricaldispersion=gd3bj guess=read geom=check nosymm
 integral(ultrafinegrid)
 ----------------------------------------------------------------------

 ------------------------------------------------------
 Candidate Structure: Conf:315 Charge calc in gas phase
 ------------------------------------------------------
 Structure from the checkpoint file:  "conf-315.chk"
 Charge =  1 Multiplicity = 1

                          Input orientation:
 ---------------------------------------------------------------------
 Center     Atomic      Atomic             Coordinates (Angstroms)
 Number     Number       Type             X           Y           Z
 ---------------------------------------------------------------------
      1          7           0       -5.150882    3.191555    4.924873
      2          1           0       -4.820569    3.485509    5.848387
      3          1           0       -4.365157    3.324033    4.229195
      4          1           0       -5.970730    3.751109    4.675888
      5          6           0       -5.418805    1.701571    4.830891
      6          1           0       -5.598080    1.321524    5.840323
      7          6           0       -4.091006    1.180917    4.228649
      8          6           0       -6.650620    1.446715    3.922708
      9          1           0       -6.419989    1.841746    2.923621
     10          8           0       -3.380738    2.004489    3.630198
     11          6           0       -6.917293   -0.058924    3.771858
     12          1           0       -7.031655   -0.550278    4.747364
     13          1           0       -6.135516   -0.560800    3.198662
     14          1           0       -7.854819   -0.201397    3.227987
     15          6           0       -7.900097    2.142799    4.486682
     16          1           0       -8.143242    1.777859    5.491623
     17          1           0       -7.827105    3.238242    4.532686
     18          1           0       -8.754301    1.931995    3.838004
     19          7           0       -3.812916   -0.118251    4.331699
     20          1           0       -4.481045   -0.727190    4.787951
     21          6           0       -2.703876   -0.766202    3.607410
     22          1           0       -1.894112   -0.030847    3.565095
     23          6           0       -3.067823   -1.097743    2.135919
     24          6           0       -2.246119   -2.012693    4.355273
     25          1           0       -1.462764   -2.503495    3.776731
     26          1           0       -1.859087   -1.751551    5.343813
     27          1           0       -3.067506   -2.730047    4.468058
     28          8           0       -2.485475   -1.993159    1.542761
     29          7           0       -4.047721   -0.330190    1.586062
     30          1           0       -4.272851    0.562125    2.006574
     31          6           0       -4.342863   -0.313409    0.152912
     32          1           0       -4.322962   -1.339138   -0.222629
     33          6           0       -3.266176    0.562578   -0.518073
     34          6           0       -5.727041    0.327747   -0.003652
     35          1           0       -5.958083    0.459712   -1.067506
     36          1           0       -6.489130   -0.315892    0.443414
     37          8           0       -3.472185    1.776543   -0.691277
     38          8           0       -5.763716    1.575266    0.689872
     39          1           0       -5.061969    2.096344    0.234469
     40          7           0       -2.109025   -0.053971   -0.770702
     41          1           0       -2.011058   -1.056898   -0.629713
     42          6           0       -0.872467    0.625360   -1.123102
     43          1           0       -1.124245    1.554257   -1.638971
     44          6           0       -0.094126   -0.335277   -2.036501
     45          6           0       -0.018322    0.898581    0.137270
     46          1           0        0.927503    1.356866   -0.180267
     47          1           0        0.234419   -0.079923    0.566132
     48          8           0       -0.282779   -1.551011   -1.949833
     49          6           0       -0.677068    1.774696    1.214808
     50          1           0       -1.666369    1.356970    1.439915
     51          6           0        0.148530    1.722641    2.506702
     52          1           0        1.144981    2.155617    2.357031
     53          1           0        0.291172    0.690162    2.851292
     54          1           0       -0.344976    2.286946    3.306675
     55          6           0       -0.878976    3.221177    0.750854
     56          1           0        0.080477    3.683785    0.487306
     57          1           0       -1.544943    3.272329   -0.114255
     58          1           0       -1.328888    3.820981    1.551153
     59          7           0        0.804306    0.247570   -2.844545
     60          1           0        0.985657    1.250970   -2.835688
     61          6           0        1.810602   -0.478117   -3.605288
     62          1           0        2.276631   -1.234960   -2.965309
     63          6           0        2.876620    0.559078   -4.035510
     64          6           0        1.198171   -1.200954   -4.825079
     65          1           0        0.429942   -1.878021   -4.443131
     66          1           0        1.980150   -1.833879   -5.261168
     67          8           0        3.897221    0.073751   -4.633303
     68          6           0        0.596752   -0.251862   -5.891576
     69          1           0       -0.441199   -0.532313   -6.104754
     70          1           0        0.571263    0.775336   -5.508971
     71          6           0        1.348633   -0.257997   -7.232178
     72          1           0        0.837863    0.389009   -7.950351
     73          1           0        1.362504   -1.266956   -7.657790
     74          7           0        2.742093    0.180158   -7.082969
     75          1           0        3.236860   -0.252450   -6.285405
     76          7           0        2.575766    2.228153   -8.205809
     77          1           0        2.988336    3.126361   -8.410584
     78          1           0        2.081384    1.794084   -8.971325
     79          7           0        4.225525    1.856394   -6.585759
     80          1           0        4.372270    1.352959   -5.673263
     81          1           0        4.552692    2.805378   -6.692117
     82          6           0        3.178330    1.430092   -7.287949
     83          8           0        2.624639    1.764515   -3.847292
 ---------------------------------------------------------------------

 SCF Done:  E(RB3LYP) =  -1868.18818383     A.U. after    2 cycles

 Alpha  occ. eigenvalues --  -19.28268 -19.23184 -19.21661 -19.19912 -19.16276
 Alpha  occ. eigenvalues --  -19.13656 -19.13421 -14.60822 -14.51628 -14.45871
 Alpha  occ. eigenvalues --  -14.45758 -14.43135 -14.43071 -14.42648 -14.39755
 Alpha  occ. eigenvalues --  -10.44965 -10.41628 -10.40460 -10.38938 -10.36770
 Alpha  occ. eigenvalues --  -10.35184 -10.34491 -10.33390 -10.32266 -10.32158
 Alpha  occ. eigenvalues --  -10.31676 -10.31242 -10.30570 -10.29625 -10.29199
 Alpha  occ. eigenvalues --  -10.28287 -10.26074 -10.25210 -10.24719 -10.24387
 Alpha  occ. eigenvalues --  -10.23925 -10.23227 -10.22801  -1.20812  -1.14997
 Alpha  occ. eigenvalues --   -1.13848  -1.12065  -1.09790  -1.09360  -1.08211
 Alpha  occ. eigenvalues --   -1.07964  -1.06784  -1.02319  -0.99746  -0.99102
 Alpha  occ. eigenvalues --   -0.98092  -0.96973  -0.96234  -0.95929  -0.89977
 Alpha  occ. eigenvalues --   -0.87517  -0.86249  -0.84937  -0.84679  -0.82189
 Alpha  occ. eigenvalues --   -0.81580  -0.78651  -0.76580  -0.75586  -0.75161
 Alpha  occ. eigenvalues --   -0.74319  -0.74123  -0.73407  -0.73075  -0.71258
 Alpha  occ. eigenvalues --   -0.70850  -0.70513  -0.68943  -0.66912  -0.66520
 Alpha  occ. eigenvalues --   -0.65894  -0.65362  -0.64642  -0.63462  -0.62901
 Alpha  occ. eigenvalues --   -0.62641  -0.61295  -0.61116  -0.60252  -0.59193
 Alpha  occ. eigenvalues --   -0.58685  -0.58134  -0.57728  -0.57441  -0.56648
 Alpha  occ. eigenvalues --   -0.55948  -0.55010  -0.54249  -0.54219  -0.53944
 Alpha  occ. eigenvalues --   -0.53475  -0.53095  -0.52577  -0.52049  -0.51835
 Alpha  occ. eigenvalues --   -0.51605  -0.51135  -0.50939  -0.50646  -0.50318
 Alpha  occ. eigenvalues --   -0.49751  -0.49242  -0.49013  -0.48945  -0.48692
 Alpha  occ. eigenvalues --   -0.48467  -0.48157  -0.47884  -0.47575  -0.47178
 Alpha  occ. eigenvalues --   -0.46694  -0.46062  -0.45970  -0.45361  -0.44995
 Alpha  occ. eigenvalues --   -0.44540  -0.44089  -0.43834  -0.42851  -0.42714
 Alpha  occ. eigenvalues --   -0.42631  -0.42057  -0.41815  -0.41737  -0.40516
 Alpha  occ. eigenvalues --   -0.39477  -0.39196  -0.38666  -0.38631  -0.37986
 Alpha  occ. eigenvalues --   -0.37555  -0.36306  -0.36250  -0.34824  -0.33164
 Alpha  occ. eigenvalues --   -0.32976  -0.32413  -0.30441  -0.30191  -0.29054
 Alpha  occ. eigenvalues --   -0.28196  -0.27576
 Alpha virt. eigenvalues --   -0.14122  -0.11682  -0.08695  -0.07093  -0.06255
 Alpha virt. eigenvalues --   -0.05529  -0.05438  -0.03290  -0.02419  -0.02196
 Alpha virt. eigenvalues --   -0.02093  -0.01790  -0.00058   0.00446   0.00532

 Mulliken charges:
               1
     1  N   -0.755915
     2  H    0.417594
     3  H    0.437107
     4  H    0.413747
     5  C   -0.105457
     6  H    0.202140
     7  C    0.625815
     8  C   -0.130806
     9  H    0.218181
    10  O   -0.534634
    11  C   -0.491010
    12  H    0.152162
    13  H    0.183811
    14  H    0.194374
    15  C   -0.477645
    16  H    0.172606
    17  H    0.141127
    18  H    0.207008
    19  N   -0.577493
    20  H    0.356690
    21  C   -0.093580
    22  H    0.235181
    23  C    0.630946
    24  C   -0.470851
    25  H    0.220882
    26  H    0.168362
    27  H    0.160304
    28  O   -0.496368
    29  N   -0.623028
    30  H    0.364155
    31  C   -0.098369
    32  H    0.191758
    33  C    0.641907
    34  C   -0.048364
    35  H    0.167637
    36  H    0.153198
    37  O   -0.569679
    38  O   -0.657640
    39  H    0.429309
    40  N   -0.582279
    41  H    0.376000
    42  C   -0.085752
    43  H    0.179645
    44  C    0.629514
    45  C   -0.258583
    46  H    0.156022
    47  H    0.151962
    48  O   -0.549526
    49  C   -0.077407
    50  H    0.116250
    51  C   -0.449739
    52  H    0.156308
    53  H    0.135147
    54  H    0.133403
    55  C   -0.457491
    56  H    0.145069
    57  H    0.177290
    58  H    0.125032
    59  N   -0.615180
    60  H    0.353000
    61  C   -0.040069
    62  H    0.172484
    63  C    0.592836
    64  C   -0.294977
    65  H    0.181334
    66  H    0.152128
    67  O   -0.640314
    68  C   -0.271448
    69  H    0.149101
    70  H    0.165232
    71  C   -0.169911
    72  H    0.144803
    73  H    0.176195
    74  N   -0.601271
    75  H    0.399218
    76  N   -0.751648
    77  H    0.359886
    78  H    0.365187
    79  N   -0.751690
    80  H    0.418598
    81  H    0.343324
    82  C    0.760000
    83  O   -0.572846
 Sum of Mulliken charges =   1.00000

 Dipole moment (field-independent basis, Debye):
    X=            -21.6907    Y=             11.5825    Z=              9.7165  Tot=             26.4396
 Quadrupole moment (field-independent basis, Debye-Ang):
   XX=            -89.3183   YY=           -191.2883   ZZ=             15.3237
   XY=            -28.2937   XZ=           -142.5715   YZ=             12.1538

 Normal termination of Gaussian 16 at Sun Jul 10 18:07:00 2022.
