 Gaussian 16, Revision C.01,
 Gaussian 16:  ES64L-G16RevC.01  3-Jul-2019

 ----------------------------------------------------------------------
 # B3LYP/6-31G* empiricaldispersion=gd3bj guess=read geom=check nosymm
 integral(ultrafinegrid)
 ----------------------------------------------------------------------

 ------------------------------------------------------
 Candidate Structure: Conf:231 Charge calc in gas phase
 ------------------------------------------------------
 Structure from the checkpoint file:  "conf-231.chk"
 Charge =  1 Multiplicity = 1

                          Input orientation:
 ---------------------------------------------------------------------
 Center     Atomic      Atomic             Coordinates (Angstroms)
 Number     Number       Type             X           Y           Z
 ---------------------------------------------------------------------
      1          7           0       -3.368224    3.123544    2.186745
      2          1           0       -2.821907    3.982460    2.271614
      3          1           0       -3.164808    2.476846    2.964930
      4          1           0       -3.092940    2.619834    1.297944
      5          6           0       -4.859939    3.345058    2.203298
      6          1           0       -5.068344    3.942506    3.098149
      7          6           0       -5.374770    1.904166    2.461224
      8          6           0       -5.353198    4.093523    0.952286
      9          1           0       -5.409318    3.375309    0.124449
     10          8           0       -4.701917    1.188703    3.201929
     11          6           0       -6.744375    4.693158    1.223395
     12          1           0       -6.670328    5.507439    1.953281
     13          1           0       -7.465847    3.972901    1.623767
     14          1           0       -7.161964    5.108790    0.302265
     15          6           0       -4.383311    5.207740    0.528064
     16          1           0       -4.196591    5.911876    1.349262
     17          1           0       -3.426477    4.814311    0.170713
     18          1           0       -4.818710    5.781192   -0.294980
     19          7           0       -6.469908    1.465681    1.809445
     20          1           0       -6.974874    2.081431    1.188230
     21          6           0       -6.805432    0.035476    1.802970
     22          1           0       -6.837837   -0.315009    2.837001
     23          6           0       -5.699382   -0.798986    1.126552
     24          6           0       -8.153552   -0.192455    1.121080
     25          1           0       -8.370146   -1.262781    1.111235
     26          1           0       -8.955297    0.321683    1.659735
     27          1           0       -8.135277    0.157450    0.082251
     28          8           0       -5.599360   -2.000409    1.355658
     29          7           0       -4.892714   -0.130694    0.269218
     30          1           0       -4.970338    0.872199    0.181859
     31          6           0       -3.608504   -0.657312   -0.137563
     32          1           0       -3.250842   -1.318510    0.663329
     33          6           0       -2.649648    0.532958   -0.259313
     34          6           0       -3.708456   -1.494608   -1.433683
     35          1           0       -3.898524   -0.829664   -2.285386
     36          1           0       -2.738128   -1.988370   -1.609981
     37          8           0       -3.069106    1.705340   -0.071963
     38          8           0       -4.764613   -2.417297   -1.374820
     39          1           0       -4.906308   -2.683499   -0.446263
     40          7           0       -1.399053    0.248144   -0.585168
     41          1           0       -1.118641   -0.702059   -0.839670
     42          6           0       -0.348372    1.209746   -0.896432
     43          1           0       -0.805707    2.111964   -1.309256
     44          6           0        0.549319    0.517308   -1.941779
     45          6           0        0.548785    1.541216    0.318252
     46          1           0        1.448241    2.047685   -0.056032
     47          1           0        0.878011    0.587223    0.748601
     48          8           0        0.519677   -0.712366   -2.053826
     49          6           0       -0.078886    2.412747    1.415085
     50          1           0       -0.994184    1.911873    1.769003
     51          6           0        0.888348    2.517608    2.601344
     52          1           0        1.827466    2.988669    2.290100
     53          1           0        1.127243    1.528955    3.007493
     54          1           0        0.463571    3.122342    3.411744
     55          6           0       -0.428696    3.808744    0.879655
     56          1           0        0.455500    4.273807    0.429468
     57          1           0       -1.211588    3.773924    0.113645
     58          1           0       -0.757617    4.478815    1.688101
     59          7           0        1.374459    1.362108   -2.581948
     60          1           0        1.447493    2.319377   -2.187766
     61          6           0        2.757227    1.007430   -2.900324
     62          1           0        3.024431    0.097093   -2.349940
     63          6           0        3.630928    2.222759   -2.354005
     64          6           0        2.989559    0.751157   -4.394330
     65          1           0        2.937044    1.726967   -4.909869
     66          1           0        2.176886    0.116560   -4.774315
     67          8           0        4.837706    2.199096   -2.647950
     68          6           0        4.358966    0.110246   -4.643540
     69          1           0        5.092241    0.716802   -4.098470
     70          1           0        4.379279   -0.897976   -4.207695
     71          6           0        4.777941    0.040707   -6.105694
     72          1           0        5.794396   -0.350802   -6.201287
     73          1           0        4.771972    1.029519   -6.574650
     74          7           0        3.928475   -0.845279   -6.939869
     75          1           0        4.098014   -1.840057   -6.859568
     76          7           0        2.379370    0.757218   -7.594987
     77          1           0        1.772049    1.120954   -8.314223
     78          1           0        2.513277    1.304763   -6.753846
     79          7           0        2.375270   -1.330179   -8.591078
     80          1           0        2.863635   -2.175049   -8.849957
     81          1           0        1.428464   -1.219182   -8.923489
     82          6           0        2.896978   -0.474440   -7.688804
     83          8           0        2.971360    3.075936   -1.692692
 ---------------------------------------------------------------------

 SCF Done:  E(RB3LYP) =  -1868.14527549     A.U. after    3 cycles

 Alpha  occ. eigenvalues --  -19.24898 -19.24097 -19.21009 -19.20567 -19.18663
 Alpha  occ. eigenvalues --  -19.10958 -19.10050 -14.55883 -14.51798 -14.51454
 Alpha  occ. eigenvalues --  -14.51237 -14.49191 -14.46556 -14.45144 -14.39671
 Alpha  occ. eigenvalues --  -10.47812 -10.42277 -10.40538 -10.38536 -10.38187
 Alpha  occ. eigenvalues --  -10.35007 -10.33908 -10.33425 -10.33146 -10.33088
 Alpha  occ. eigenvalues --  -10.31656 -10.31343 -10.29862 -10.29800 -10.28900
 Alpha  occ. eigenvalues --  -10.28190 -10.27528 -10.26191 -10.26168 -10.25899
 Alpha  occ. eigenvalues --  -10.25735 -10.25504 -10.24524  -1.17632  -1.16299
 Alpha  occ. eigenvalues --   -1.15207  -1.13062  -1.10939  -1.10141  -1.08508
 Alpha  occ. eigenvalues --   -1.05620  -1.05330  -1.04495  -1.04075  -1.03025
 Alpha  occ. eigenvalues --   -1.01814  -0.97759  -0.95042  -0.94019  -0.89682
 Alpha  occ. eigenvalues --   -0.88447  -0.88320  -0.85990  -0.83975  -0.83108
 Alpha  occ. eigenvalues --   -0.81518  -0.80814  -0.78434  -0.76570  -0.75855
 Alpha  occ. eigenvalues --   -0.74503  -0.74026  -0.73830  -0.72779  -0.72253
 Alpha  occ. eigenvalues --   -0.71912  -0.71363  -0.70332  -0.68760  -0.68401
 Alpha  occ. eigenvalues --   -0.67340  -0.66798  -0.65783  -0.65327  -0.64794
 Alpha  occ. eigenvalues --   -0.64289  -0.62903  -0.62327  -0.61720  -0.59944
 Alpha  occ. eigenvalues --   -0.59684  -0.58610  -0.58488  -0.57909  -0.57108
 Alpha  occ. eigenvalues --   -0.56835  -0.56480  -0.56117  -0.55774  -0.54644
 Alpha  occ. eigenvalues --   -0.54208  -0.53910  -0.53033  -0.52709  -0.52326
 Alpha  occ. eigenvalues --   -0.52005  -0.51735  -0.51429  -0.51098  -0.50839
 Alpha  occ. eigenvalues --   -0.50680  -0.50454  -0.50239  -0.49889  -0.48881
 Alpha  occ. eigenvalues --   -0.48440  -0.48111  -0.47451  -0.47357  -0.46789
 Alpha  occ. eigenvalues --   -0.46645  -0.46613  -0.46445  -0.46165  -0.46107
 Alpha  occ. eigenvalues --   -0.45298  -0.44799  -0.44208  -0.43310  -0.42912
 Alpha  occ. eigenvalues --   -0.42695  -0.41833  -0.41524  -0.41057  -0.41017
 Alpha  occ. eigenvalues --   -0.40765  -0.40633  -0.40140  -0.39700  -0.39275
 Alpha  occ. eigenvalues --   -0.38856  -0.38054  -0.38028  -0.36617  -0.34822
 Alpha  occ. eigenvalues --   -0.34264  -0.33404  -0.32680  -0.31684  -0.26167
 Alpha  occ. eigenvalues --   -0.25777  -0.23989
 Alpha virt. eigenvalues --   -0.12063  -0.12007  -0.09580  -0.07852  -0.07159
 Alpha virt. eigenvalues --   -0.06622  -0.04595  -0.04453  -0.03670  -0.03347
 Alpha virt. eigenvalues --   -0.02517  -0.02058  -0.01031  -0.00591   0.00455

 Mulliken charges:
               1
     1  N   -0.805485
     2  H    0.404643
     3  H    0.418213
     4  H    0.475629
     5  C   -0.091659
     6  H    0.214429
     7  C    0.630070
     8  C   -0.115492
     9  H    0.165302
    10  O   -0.513678
    11  C   -0.476699
    12  H    0.176079
    13  H    0.156605
    14  H    0.187021
    15  C   -0.493428
    16  H    0.160067
    17  H    0.174309
    18  H    0.191330
    19  N   -0.637483
    20  H    0.356025
    21  C   -0.026691
    22  H    0.217372
    23  C    0.629819
    24  C   -0.487798
    25  H    0.212713
    26  H    0.177350
    27  H    0.161962
    28  O   -0.527001
    29  N   -0.588394
    30  H    0.343048
    31  C   -0.129399
    32  H    0.203205
    33  C    0.637826
    34  C    0.025098
    35  H    0.141784
    36  H    0.136882
    37  O   -0.631279
    38  O   -0.628523
    39  H    0.422349
    40  N   -0.585302
    41  H    0.375677
    42  C   -0.086812
    43  H    0.176401
    44  C    0.587217
    45  C   -0.283014
    46  H    0.212078
    47  H    0.150804
    48  O   -0.548886
    49  C   -0.078276
    50  H    0.083187
    51  C   -0.446782
    52  H    0.181707
    53  H    0.157148
    54  H    0.129106
    55  C   -0.498176
    56  H    0.205222
    57  H    0.151609
    58  H    0.117288
    59  N   -0.602208
    60  H    0.353949
    61  C   -0.085899
    62  H    0.159646
    63  C    0.588921
    64  C   -0.283954
    65  H    0.128986
    66  H    0.126913
    67  O   -0.561129
    68  C   -0.273269
    69  H    0.244236
    70  H    0.139658
    71  C   -0.200594
    72  H    0.194564
    73  H    0.186049
    74  N   -0.575837
    75  H    0.363210
    76  N   -0.755987
    77  H    0.377553
    78  H    0.400167
    79  N   -0.763520
    80  H    0.380768
    81  H    0.380056
    82  C    0.812337
    83  O   -0.600934
 Sum of Mulliken charges =   1.00000

 Dipole moment (field-independent basis, Debye):
    X=            -13.0886    Y=              6.0398    Z=            -18.3892  Tot=             23.3657
 Quadrupole moment (field-independent basis, Debye-Ang):
   XX=           -140.7509   YY=           -193.8468   ZZ=              6.4113
   XY=           -103.1177   XZ=            -85.1964   YZ=             53.6258

 Normal termination of Gaussian 16 at Sun Jul 10 18:06:52 2022.
