 Gaussian 16, Revision C.01,
 Gaussian 16:  ES64L-G16RevC.01  3-Jul-2019

 ----------------------------------------------------------------------
 # B3LYP/6-31G* empiricaldispersion=gd3bj guess=read geom=check nosymm
 integral(ultrafinegrid)
 ----------------------------------------------------------------------

 ------------------------------------------------------
 Candidate Structure: Conf:879 Charge calc in gas phase
 ------------------------------------------------------
 Structure from the checkpoint file:  "conf-879.chk"
 Charge =  1 Multiplicity = 1

                          Input orientation:
 ---------------------------------------------------------------------
 Center     Atomic      Atomic             Coordinates (Angstroms)
 Number     Number       Type             X           Y           Z
 ---------------------------------------------------------------------
      1          7           0       -5.821809   -3.325972    2.715073
      2          1           0       -5.104570   -4.025526    2.505711
      3          1           0       -5.862735   -3.182620    3.769000
      4          1           0       -6.715431   -3.652812    2.340218
      5          6           0       -5.451209   -1.936131    2.234486
      6          1           0       -4.662361   -2.031240    1.484415
      7          6           0       -4.908961   -1.293607    3.539642
      8          6           0       -6.687797   -1.228544    1.633216
      9          1           0       -7.453356   -1.185219    2.421279
     10          8           0       -5.212976   -1.838606    4.614130
     11          6           0       -6.349065    0.208215    1.205880
     12          1           0       -5.527365    0.223179    0.479224
     13          1           0       -6.076893    0.850007    2.045598
     14          1           0       -7.220710    0.654418    0.719733
     15          6           0       -7.239420   -2.012012    0.430476
     16          1           0       -6.487679   -2.092483   -0.363087
     17          1           0       -7.583754   -3.026557    0.672941
     18          1           0       -8.106100   -1.489130    0.017375
     19          7           0       -4.145560   -0.223264    3.397457
     20          1           0       -4.015498    0.229428    2.490928
     21          6           0       -3.573280    0.564004    4.489232
     22          1           0       -4.378438    0.857386    5.173962
     23          6           0       -3.028230    1.820935    3.771087
     24          6           0       -2.500191   -0.217698    5.256596
     25          1           0       -2.166556    0.340016    6.136714
     26          1           0       -2.916764   -1.163359    5.609972
     27          1           0       -1.632089   -0.416287    4.621160
     28          8           0       -3.344609    2.038206    2.596264
     29          7           0       -2.194577    2.600028    4.476073
     30          1           0       -1.825960    2.290446    5.371287
     31          6           0       -1.319365    3.583957    3.831508
     32          1           0       -1.921486    4.270181    3.230688
     33          6           0       -0.312336    2.800029    2.967078
     34          6           0       -0.580615    4.320413    4.962102
     35          1           0        0.196614    4.963978    4.528404
     36          1           0       -1.282838    4.950768    5.514787
     37          8           0        0.619505    2.185924    3.510174
     38          8           0       -0.047667    3.383319    5.882228
     39          1           0        0.551779    2.823687    5.343058
     40          7           0       -0.559626    2.786107    1.652595
     41          1           0       -1.324779    3.324463    1.259361
     42          6           0        0.180627    2.007638    0.675316
     43          1           0        1.180595    1.821265    1.072546
     44          6           0        0.224681    2.855857   -0.607089
     45          6           0       -0.543136    0.682372    0.341282
     46          1           0        0.037437    0.162453   -0.432132
     47          1           0       -1.504730    0.953699   -0.113751
     48          8           0       -0.686810    3.655135   -0.842276
     49          6           0       -0.790287   -0.265346    1.524558
     50          1           0       -1.300265    0.309873    2.305496
     51          6           0       -1.734359   -1.395771    1.089926
     52          1           0       -1.272441   -2.020356    0.315984
     53          1           0       -2.666760   -0.991031    0.670798
     54          1           0       -1.982999   -2.045712    1.939194
     55          6           0        0.507595   -0.828371    2.113035
     56          1           0        1.081823   -1.367616    1.349290
     57          1           0        1.129595   -0.030459    2.525759
     58          1           0        0.293985   -1.533617    2.925807
     59          7           0        1.250536    2.598342   -1.428460
     60          1           0        1.988515    1.932028   -1.206385
     61          6           0        1.397014    3.155581   -2.766702
     62          1           0        0.421844    3.163367   -3.262084
     63          6           0        2.370353    2.203215   -3.510273
     64          6           0        1.924995    4.612514   -2.656374
     65          1           0        2.955814    4.574282   -2.279567
     66          1           0        1.320929    5.079740   -1.873668
     67          8           0        3.170639    1.556533   -2.813026
     68          6           0        1.838750    5.502368   -3.917969
     69          1           0        1.079500    5.113785   -4.608442
     70          1           0        1.496170    6.501846   -3.627566
     71          6           0        3.153470    5.700072   -4.686216
     72          1           0        3.934275    6.050802   -4.000385
     73          1           0        3.018053    6.463809   -5.462172
     74          7           0        3.565611    4.437020   -5.295971
     75          1           0        2.830316    3.697970   -5.314373
     76          7           0        5.873526    4.696700   -5.047121
     77          1           0        6.794477    4.292011   -5.132276
     78          1           0        5.807798    5.678386   -5.273081
     79          7           0        4.913102    2.589674   -5.421710
     80          1           0        4.047169    2.042731   -5.228574
     81          1           0        5.811286    2.147130   -5.295496
     82          6           0        4.787276    3.910553   -5.254004
     83          8           0        2.302773    2.208009   -4.788303
 ---------------------------------------------------------------------

 SCF Done:  E(RB3LYP) =  -1868.18840714     A.U. after    1 cycles

 Alpha  occ. eigenvalues --  -19.26767 -19.22609 -19.21195 -19.19551 -19.16957
 Alpha  occ. eigenvalues --  -19.14216 -19.13687 -14.59772 -14.49244 -14.46314
 Alpha  occ. eigenvalues --  -14.45845 -14.43483 -14.43317 -14.43167 -14.40606
 Alpha  occ. eigenvalues --  -10.43387 -10.40906 -10.40315 -10.39431 -10.36617
 Alpha  occ. eigenvalues --  -10.35045 -10.34543 -10.34107 -10.31803 -10.31749
 Alpha  occ. eigenvalues --  -10.31266 -10.31072 -10.30124 -10.29856 -10.29801
 Alpha  occ. eigenvalues --  -10.28420 -10.26881 -10.26617 -10.26581 -10.25769
 Alpha  occ. eigenvalues --  -10.25484 -10.24237 -10.23695  -1.19248  -1.14736
 Alpha  occ. eigenvalues --   -1.13662  -1.11608  -1.09870  -1.09024  -1.08524
 Alpha  occ. eigenvalues --   -1.07250  -1.06161  -1.02318  -1.00039  -0.99672
 Alpha  occ. eigenvalues --   -0.98462  -0.97603  -0.96934  -0.95332  -0.89639
 Alpha  occ. eigenvalues --   -0.88697  -0.85849  -0.85618  -0.84116  -0.82030
 Alpha  occ. eigenvalues --   -0.81514  -0.79321  -0.77652  -0.76055  -0.74973
 Alpha  occ. eigenvalues --   -0.74124  -0.73723  -0.73409  -0.72184  -0.71352
 Alpha  occ. eigenvalues --   -0.70305  -0.70049  -0.68651  -0.67207  -0.66300
 Alpha  occ. eigenvalues --   -0.66083  -0.65616  -0.64052  -0.63770  -0.63324
 Alpha  occ. eigenvalues --   -0.63046  -0.61834  -0.60389  -0.59782  -0.58537
 Alpha  occ. eigenvalues --   -0.58227  -0.58111  -0.57458  -0.57220  -0.56905
 Alpha  occ. eigenvalues --   -0.55675  -0.55411  -0.54707  -0.54511  -0.54274
 Alpha  occ. eigenvalues --   -0.53880  -0.53243  -0.53127  -0.52355  -0.52150
 Alpha  occ. eigenvalues --   -0.51830  -0.51032  -0.50991  -0.50579  -0.50046
 Alpha  occ. eigenvalues --   -0.49889  -0.49544  -0.49353  -0.49184  -0.48927
 Alpha  occ. eigenvalues --   -0.48504  -0.48179  -0.47610  -0.47392  -0.47102
 Alpha  occ. eigenvalues --   -0.47010  -0.46551  -0.46347  -0.46129  -0.45871
 Alpha  occ. eigenvalues --   -0.45337  -0.45088  -0.44766  -0.44064  -0.43082
 Alpha  occ. eigenvalues --   -0.41953  -0.41327  -0.41194  -0.40941  -0.40397
 Alpha  occ. eigenvalues --   -0.40152  -0.39914  -0.39752  -0.39193  -0.38942
 Alpha  occ. eigenvalues --   -0.37266  -0.36854  -0.36518  -0.34666  -0.33550
 Alpha  occ. eigenvalues --   -0.33390  -0.32158  -0.31193  -0.31000  -0.29553
 Alpha  occ. eigenvalues --   -0.28429  -0.27927
 Alpha virt. eigenvalues --   -0.12503  -0.11027  -0.08723  -0.06585  -0.05686
 Alpha virt. eigenvalues --   -0.05642  -0.04937  -0.03032  -0.02341  -0.01853
 Alpha virt. eigenvalues --   -0.01562  -0.00752   0.00025   0.00291   0.01411

 Mulliken charges:
               1
     1  N   -0.761093
     2  H    0.416509
     3  H    0.432844
     4  H    0.408992
     5  C   -0.109758
     6  H    0.213243
     7  C    0.653655
     8  C   -0.109990
     9  H    0.169039
    10  O   -0.548208
    11  C   -0.481179
    12  H    0.171669
    13  H    0.188008
    14  H    0.189276
    15  C   -0.472645
    16  H    0.178275
    17  H    0.137681
    18  H    0.202237
    19  N   -0.614639
    20  H    0.393791
    21  C   -0.046134
    22  H    0.207168
    23  C    0.631959
    24  C   -0.488261
    25  H    0.180864
    26  H    0.192490
    27  H    0.190791
    28  O   -0.548340
    29  N   -0.600139
    30  H    0.362670
    31  C   -0.086161
    32  H    0.178149
    33  C    0.632641
    34  C   -0.056861
    35  H    0.160316
    36  H    0.168141
    37  O   -0.565025
    38  O   -0.636005
    39  H    0.426349
    40  N   -0.570886
    41  H    0.362164
    42  C   -0.083150
    43  H    0.182988
    44  C    0.631842
    45  C   -0.252817
    46  H    0.155913
    47  H    0.144784
    48  O   -0.560688
    49  C   -0.078963
    50  H    0.127396
    51  C   -0.459677
    52  H    0.163691
    53  H    0.118927
    54  H    0.118089
    55  C   -0.467112
    56  H    0.146471
    57  H    0.193129
    58  H    0.133842
    59  N   -0.614990
    60  H    0.353127
    61  C   -0.031384
    62  H    0.164730
    63  C    0.585766
    64  C   -0.274760
    65  H    0.141409
    66  H    0.174639
    67  O   -0.562715
    68  C   -0.303558
    69  H    0.170814
    70  H    0.159272
    71  C   -0.149992
    72  H    0.158782
    73  H    0.166330
    74  N   -0.603085
    75  H    0.406281
    76  N   -0.753585
    77  H    0.361755
    78  H    0.368202
    79  N   -0.758603
    80  H    0.413290
    81  H    0.346792
    82  C    0.758069
    83  O   -0.644849
 Sum of Mulliken charges =   1.00000

 Dipole moment (field-independent basis, Debye):
    X=            -12.9545    Y=             -0.7928    Z=              2.8558  Tot=             13.2892
 Quadrupole moment (field-independent basis, Debye-Ang):
   XX=            -29.0690   YY=           -131.0955   ZZ=           -173.5589
   XY=            109.2043   XZ=           -103.9315   YZ=            -60.2836

 Normal termination of Gaussian 16 at Sun Jul 10 18:06:18 2022.
