 Gaussian 16, Revision C.01,
 Gaussian 16:  ES64L-G16RevC.01  3-Jul-2019

 ----------------------------------------------------------------------
 # B3LYP/6-31G* empiricaldispersion=gd3bj guess=read geom=check nosymm
 integral(ultrafinegrid)
 ----------------------------------------------------------------------

 ------------------------------------------------------
 Candidate Structure: Conf:771 Charge calc in gas phase
 ------------------------------------------------------
 Structure from the checkpoint file:  "conf-771.chk"
 Charge =  1 Multiplicity = 1

                          Input orientation:
 ---------------------------------------------------------------------
 Center     Atomic      Atomic             Coordinates (Angstroms)
 Number     Number       Type             X           Y           Z
 ---------------------------------------------------------------------
      1          7           0       -1.977752    3.039825    2.327749
      2          1           0       -1.704833    4.019716    2.402772
      3          1           0       -1.699287    2.532167    3.176251
      4          1           0       -1.419275    2.579190    1.572045
      5          6           0       -3.434342    2.821508    2.052649
      6          1           0       -3.984698    3.336052    2.849250
      7          6           0       -3.580359    1.290903    2.256584
      8          6           0       -3.856344    3.384746    0.674125
      9          1           0       -3.645501    2.621077   -0.082350
     10          8           0       -2.790743    0.720049    3.005777
     11          6           0       -5.357994    3.718564    0.691908
     12          1           0       -5.548129    4.587319    1.333345
     13          1           0       -5.990572    2.906509    1.069436
     14          1           0       -5.702139    3.965901   -0.316319
     15          6           0       -3.052700    4.632386    0.272011
     16          1           0       -3.081270    5.405800    1.052080
     17          1           0       -2.016617    4.394641    0.011355
     18          1           0       -3.500209    5.071164   -0.624914
     19          7           0       -4.551816    0.640049    1.578733
     20          1           0       -5.133032    1.152727    0.931209
     21          6           0       -4.527677   -0.826893    1.474708
     22          1           0       -4.417436   -1.238059    2.478979
     23          6           0       -3.257281   -1.256738    0.709172
     24          6           0       -5.811317   -1.327771    0.816719
     25          1           0       -5.782438   -2.417393    0.735639
     26          1           0       -6.685014   -1.048889    1.413660
     27          1           0       -5.929419   -0.921376   -0.194710
     28          8           0       -2.483642   -2.095646    1.146486
     29          7           0       -3.053910   -0.609944   -0.481991
     30          1           0       -3.611794    0.211452   -0.685445
     31          6           0       -1.698851   -0.483103   -1.009511
     32          1           0       -1.272250   -1.479554   -1.150247
     33          6           0       -0.919747    0.307404    0.042910
     34          6           0       -1.771934    0.243226   -2.368308
     35          1           0       -0.760422    0.380154   -2.756628
     36          1           0       -2.347033   -0.398324   -3.044183
     37          8           0       -1.288671    1.464641    0.313263
     38          8           0       -2.459645    1.482562   -2.286200
     39          1           0       -1.815620    2.160794   -1.987937
     40          7           0        0.092528   -0.290833    0.692305
     41          1           0        0.194387   -1.290260    0.570366
     42          6           0        0.660240    0.302636    1.912377
     43          1           0       -0.122561    0.338297    2.675267
     44          6           0        1.031848    1.771915    1.656076
     45          6           0        1.838378   -0.531521    2.425796
     46          1           0        2.202077   -0.036859    3.334942
     47          1           0        2.659021   -0.495544    1.697772
     48          8           0        0.673684    2.650647    2.444508
     49          6           0        1.497628   -1.999349    2.756423
     50          1           0        1.278128   -2.531286    1.816455
     51          6           0        2.727195   -2.676589    3.374797
     52          1           0        2.977226   -2.216955    4.338807
     53          1           0        3.604733   -2.590490    2.723719
     54          1           0        2.539351   -3.740724    3.550454
     55          6           0        0.270970   -2.127600    3.669363
     56          1           0        0.407819   -1.542108    4.587496
     57          1           0       -0.652042   -1.795995    3.182676
     58          1           0        0.124440   -3.172499    3.961595
     59          7           0        1.730958    2.018851    0.516587
     60          1           0        1.814450    1.226270   -0.117843
     61          6           0        1.435193    3.233259   -0.250231
     62          1           0        0.901916    3.921230    0.406020
     63          6           0        0.528051    2.796920   -1.418158
     64          6           0        2.701795    3.916108   -0.797746
     65          1           0        3.360027    3.147932   -1.222725
     66          1           0        3.243672    4.367743    0.038541
     67          8           0       -0.443169    3.574062   -1.725816
     68          6           0        2.369395    4.978434   -1.869417
     69          1           0        1.391314    5.422848   -1.657194
     70          1           0        3.107321    5.788148   -1.841097
     71          6           0        2.345895    4.369004   -3.282547
     72          1           0        1.850814    3.397998   -3.296631
     73          1           0        3.370225    4.200905   -3.632633
     74          7           0        1.682975    5.217480   -4.281634
     75          1           0        2.154641    6.068802   -4.557581
     76          7           0       -0.386005    4.135914   -4.327381
     77          1           0       -1.178774    3.856374   -4.888350
     78          1           0       -0.392748    3.835218   -3.309927
     79          7           0        0.166868    5.716150   -5.942851
     80          1           0        0.894449    6.028758   -6.569410
     81          1           0       -0.771645    5.689726   -6.312762
     82          6           0        0.479621    5.001822   -4.832156
     83          8           0        0.852338    1.747987   -2.009098
 ---------------------------------------------------------------------

 SCF Done:  E(RB3LYP) =  -1868.22781959     A.U. after    2 cycles

 Alpha  occ. eigenvalues --  -19.23163 -19.22647 -19.21441 -19.20503 -19.20181
 Alpha  occ. eigenvalues --  -19.19028 -19.17973 -14.53355 -14.49756 -14.49598
 Alpha  occ. eigenvalues --  -14.47447 -14.47214 -14.46224 -14.44351 -14.43042
 Alpha  occ. eigenvalues --  -10.45419 -10.40558 -10.39052 -10.37302 -10.37123
 Alpha  occ. eigenvalues --  -10.36399 -10.35881 -10.32862 -10.32592 -10.31940
 Alpha  occ. eigenvalues --  -10.31635 -10.30842 -10.30694 -10.29949 -10.28416
 Alpha  occ. eigenvalues --  -10.27898 -10.27827 -10.27576 -10.27158 -10.26841
 Alpha  occ. eigenvalues --  -10.26421 -10.23669 -10.23303  -1.15844  -1.14672
 Alpha  occ. eigenvalues --   -1.13856  -1.12350  -1.11998  -1.11473  -1.08761
 Alpha  occ. eigenvalues --   -1.08575  -1.04010  -1.03441  -1.03196  -1.02699
 Alpha  occ. eigenvalues --   -1.01268  -1.00811  -0.99777  -0.91910  -0.89329
 Alpha  occ. eigenvalues --   -0.88749  -0.87434  -0.84658  -0.83275  -0.82252
 Alpha  occ. eigenvalues --   -0.81607  -0.79014  -0.77058  -0.74827  -0.74685
 Alpha  occ. eigenvalues --   -0.74628  -0.73801  -0.71878  -0.71099  -0.70724
 Alpha  occ. eigenvalues --   -0.70002  -0.69356  -0.68961  -0.68604  -0.67916
 Alpha  occ. eigenvalues --   -0.66811  -0.66051  -0.65313  -0.63554  -0.63221
 Alpha  occ. eigenvalues --   -0.62810  -0.62546  -0.61714  -0.61311  -0.59921
 Alpha  occ. eigenvalues --   -0.59509  -0.58589  -0.58420  -0.58006  -0.56747
 Alpha  occ. eigenvalues --   -0.56133  -0.55616  -0.54886  -0.54676  -0.54367
 Alpha  occ. eigenvalues --   -0.53734  -0.53514  -0.53425  -0.52518  -0.52231
 Alpha  occ. eigenvalues --   -0.52048  -0.51560  -0.51141  -0.51005  -0.50346
 Alpha  occ. eigenvalues --   -0.50204  -0.49589  -0.49403  -0.49149  -0.48949
 Alpha  occ. eigenvalues --   -0.48522  -0.48233  -0.48019  -0.47738  -0.47333
 Alpha  occ. eigenvalues --   -0.46732  -0.46544  -0.45820  -0.45511  -0.45472
 Alpha  occ. eigenvalues --   -0.45196  -0.45021  -0.44860  -0.44441  -0.44401
 Alpha  occ. eigenvalues --   -0.43939  -0.43339  -0.43003  -0.42004  -0.40782
 Alpha  occ. eigenvalues --   -0.40361  -0.39899  -0.39644  -0.39481  -0.38323
 Alpha  occ. eigenvalues --   -0.37892  -0.37378  -0.37079  -0.36727  -0.36272
 Alpha  occ. eigenvalues --   -0.35262  -0.34336  -0.33854  -0.33339  -0.32870
 Alpha  occ. eigenvalues --   -0.32131  -0.31418
 Alpha virt. eigenvalues --   -0.10156  -0.09976  -0.08797  -0.07387  -0.06830
 Alpha virt. eigenvalues --   -0.06223  -0.04568  -0.03850  -0.03006  -0.02111
 Alpha virt. eigenvalues --   -0.01262  -0.00649   0.00110   0.00820   0.01483

 Mulliken charges:
               1
     1  N   -0.771288
     2  H    0.397804
     3  H    0.417348
     4  H    0.473466
     5  C   -0.096909
     6  H    0.203817
     7  C    0.660297
     8  C   -0.118788
     9  H    0.183974
    10  O   -0.524598
    11  C   -0.478368
    12  H    0.168225
    13  H    0.149773
    14  H    0.179074
    15  C   -0.505937
    16  H    0.139138
    17  H    0.202104
    18  H    0.173769
    19  N   -0.628449
    20  H    0.346076
    21  C   -0.046366
    22  H    0.211114
    23  C    0.615978
    24  C   -0.484723
    25  H    0.198862
    26  H    0.180217
    27  H    0.157631
    28  O   -0.507605
    29  N   -0.585502
    30  H    0.343300
    31  C   -0.064827
    32  H    0.172470
    33  C    0.671600
    34  C   -0.084158
    35  H    0.193057
    36  H    0.155575
    37  O   -0.606139
    38  O   -0.673430
    39  H    0.442824
    40  N   -0.614704
    41  H    0.365695
    42  C   -0.048965
    43  H    0.195237
    44  C    0.603025
    45  C   -0.294877
    46  H    0.168205
    47  H    0.149907
    48  O   -0.572947
    49  C   -0.092451
    50  H    0.121586
    51  C   -0.444445
    52  H    0.151692
    53  H    0.146800
    54  H    0.158338
    55  C   -0.467314
    56  H    0.144702
    57  H    0.179728
    58  H    0.158501
    59  N   -0.569743
    60  H    0.347193
    61  C   -0.032773
    62  H    0.157091
    63  C    0.618658
    64  C   -0.280550
    65  H    0.156275
    66  H    0.168106
    67  O   -0.645470
    68  C   -0.284487
    69  H    0.169404
    70  H    0.149426
    71  C   -0.189828
    72  H    0.223546
    73  H    0.177880
    74  N   -0.594861
    75  H    0.353095
    76  N   -0.776546
    77  H    0.356413
    78  H    0.445343
    79  N   -0.763468
    80  H    0.370040
    81  H    0.369580
    82  C    0.782703
    83  O   -0.575145
 Sum of Mulliken charges =   1.00000

 Dipole moment (field-independent basis, Debye):
    X=             -6.0038    Y=             18.3595    Z=             -9.6332  Tot=             21.5851
 Quadrupole moment (field-independent basis, Debye-Ang):
   XX=           -162.2132   YY=           -121.0678   ZZ=           -134.8333
   XY=             -8.2880   XZ=            -19.8873   YZ=            -67.6206

 Normal termination of Gaussian 16 at Sun Jul 10 18:06:55 2022.
