 Gaussian 16, Revision C.01,
 Gaussian 16:  ES64L-G16RevC.01  3-Jul-2019

 ----------------------------------------------------------------------
 # B3LYP/6-31G* empiricaldispersion=gd3bj guess=read geom=check nosymm
 integral(ultrafinegrid)
 ----------------------------------------------------------------------

 -----------------------------------------------------
 Candidate Structure: Conf:34 Charge calc in gas phase
 -----------------------------------------------------
 Structure from the checkpoint file:  "conf-34.chk"
 Charge =  1 Multiplicity = 1

                          Input orientation:
 ---------------------------------------------------------------------
 Center     Atomic      Atomic             Coordinates (Angstroms)
 Number     Number       Type             X           Y           Z
 ---------------------------------------------------------------------
      1          7           0       -7.574518    1.036747    4.853209
      2          1           0       -8.097689    0.364676    5.421246
      3          1           0       -6.594876    1.120685    5.247629
      4          1           0       -8.067794    1.932558    4.866930
      5          6           0       -7.304817    0.547495    3.443757
      6          1           0       -8.038938   -0.226029    3.201830
      7          6           0       -5.873589   -0.020688    3.577369
      8          6           0       -7.409016    1.732225    2.446411
      9          1           0       -6.657711    2.474938    2.745913
     10          8           0       -5.206314    0.334810    4.559317
     11          6           0       -7.089464    1.285586    1.009995
     12          1           0       -7.710001    0.431463    0.706363
     13          1           0       -6.037015    1.039189    0.856202
     14          1           0       -7.322512    2.104602    0.324104
     15          6           0       -8.815123    2.354300    2.490822
     16          1           0       -9.584133    1.623415    2.214161
     17          1           0       -9.093267    2.782432    3.464195
     18          1           0       -8.869038    3.180750    1.777266
     19          7           0       -5.430614   -0.836328    2.616276
     20          1           0       -6.018553   -0.987336    1.804772
     21          6           0       -3.977261   -1.028686    2.396109
     22          1           0       -3.522889   -1.131694    3.383422
     23          6           0       -3.522667    0.273983    1.702380
     24          6           0       -3.724957   -2.255956    1.537669
     25          1           0       -2.648218   -2.407228    1.424667
     26          1           0       -4.157249   -3.148081    1.999159
     27          1           0       -4.141026   -2.111665    0.536595
     28          8           0       -3.605921    0.397019    0.481312
     29          7           0       -3.186880    1.279927    2.537264
     30          1           0       -3.222081    1.125831    3.536705
     31          6           0       -3.018371    2.650527    2.052504
     32          1           0       -3.683973    2.765438    1.190920
     33          6           0       -1.554491    2.892435    1.615415
     34          6           0       -3.386507    3.644952    3.139920
     35          1           0       -2.688609    3.544457    3.979149
     36          1           0       -3.269816    4.655843    2.734226
     37          8           0       -0.789569    3.542558    2.325725
     38          8           0       -4.740072    3.405829    3.563022
     39          1           0       -4.948252    4.104773    4.201480
     40          7           0       -1.223664    2.328044    0.440729
     41          1           0       -1.883463    1.758684   -0.086383
     42          6           0        0.134856    2.374656   -0.079616
     43          1           0        0.531854    3.375757    0.104862
     44          6           0        0.037558    2.092656   -1.580668
     45          6           0        1.026058    1.323257    0.622549
     46          1           0        0.603375    0.334483    0.399454
     47          1           0        0.919213    1.489202    1.701798
     48          8           0       -0.874568    1.390510   -2.032023
     49          6           0        2.522020    1.344356    0.261427
     50          1           0        2.633920    1.201952   -0.820439
     51          6           0        3.190203    2.675354    0.630156
     52          1           0        3.082721    2.880776    1.702759
     53          1           0        2.765933    3.525981    0.086322
     54          1           0        4.257253    2.648134    0.388901
     55          6           0        3.230964    0.177680    0.961233
     56          1           0        3.162800    0.275557    2.052482
     57          1           0        2.787110   -0.785642    0.682240
     58          1           0        4.292998    0.149923    0.694742
     59          7           0        1.016466    2.626500   -2.329603
     60          1           0        1.844282    3.050185   -1.909165
     61          6           0        1.272594    2.207569   -3.694820
     62          1           0        1.125470    1.120068   -3.745980
     63          6           0        2.791418    2.465849   -3.957021
     64          6           0        0.299343    2.875367   -4.710290
     65          1           0        0.857315    3.508067   -5.411870
     66          1           0       -0.349352    3.544055   -4.139406
     67          8           0        3.198458    2.168587   -5.139689
     68          6           0       -0.590008    1.875695   -5.475790
     69          1           0       -0.867288    1.067149   -4.790483
     70          1           0       -1.522769    2.364870   -5.781143
     71          6           0        0.048847    1.304200   -6.753562
     72          1           0        0.043712    2.063418   -7.544683
     73          1           0       -0.539985    0.455201   -7.119789
     74          7           0        1.433170    0.911320   -6.527015
     75          1           0        2.082822    1.610228   -6.018546
     76          7           0        1.438158   -1.300449   -7.340049
     77          1           0        1.685312   -2.244233   -7.079829
     78          1           0        0.527345   -1.178334   -7.755245
     79          7           0        3.182869   -0.481539   -6.036612
     80          1           0        3.578440    0.349978   -5.576243
     81          1           0        3.829861   -1.130278   -6.463065
     82          6           0        1.989509   -0.274469   -6.641118
     83          8           0        3.473063    2.890351   -3.018942
 ---------------------------------------------------------------------

 SCF Done:  E(RB3LYP) =  -1868.16713218     A.U. after    3 cycles

 Alpha  occ. eigenvalues --  -19.28257 -19.25732 -19.21874 -19.17499 -19.15969
 Alpha  occ. eigenvalues --  -19.13793 -19.12778 -14.60779 -14.51240 -14.46361
 Alpha  occ. eigenvalues --  -14.45723 -14.43132 -14.42744 -14.41224 -14.39098
 Alpha  occ. eigenvalues --  -10.44842 -10.41487 -10.40497 -10.38970 -10.35339
 Alpha  occ. eigenvalues --  -10.34936 -10.34452 -10.32742 -10.32707 -10.31886
 Alpha  occ. eigenvalues --  -10.31803 -10.31137 -10.30301 -10.29889 -10.28356
 Alpha  occ. eigenvalues --  -10.27715 -10.26105 -10.24409 -10.23377 -10.22951
 Alpha  occ. eigenvalues --  -10.22641 -10.21157 -10.20570  -1.20748  -1.14981
 Alpha  occ. eigenvalues --   -1.13957  -1.12384  -1.09501  -1.09313  -1.07713
 Alpha  occ. eigenvalues --   -1.07649  -1.06409  -1.02474  -0.99281  -0.97937
 Alpha  occ. eigenvalues --   -0.97804  -0.97138  -0.95837  -0.95820  -0.90010
 Alpha  occ. eigenvalues --   -0.86561  -0.85768  -0.85040  -0.84607  -0.82049
 Alpha  occ. eigenvalues --   -0.80288  -0.78186  -0.76783  -0.75635  -0.75052
 Alpha  occ. eigenvalues --   -0.73924  -0.73200  -0.72536  -0.71780  -0.70846
 Alpha  occ. eigenvalues --   -0.70740  -0.69770  -0.68622  -0.66334  -0.66075
 Alpha  occ. eigenvalues --   -0.65859  -0.64570  -0.63960  -0.63165  -0.62093
 Alpha  occ. eigenvalues --   -0.61891  -0.61736  -0.60672  -0.60410  -0.59192
 Alpha  occ. eigenvalues --   -0.58617  -0.58442  -0.58132  -0.57647  -0.56799
 Alpha  occ. eigenvalues --   -0.55970  -0.55549  -0.55238  -0.53862  -0.53456
 Alpha  occ. eigenvalues --   -0.52959  -0.52811  -0.52384  -0.52059  -0.51554
 Alpha  occ. eigenvalues --   -0.51464  -0.51106  -0.50119  -0.50054  -0.49516
 Alpha  occ. eigenvalues --   -0.49267  -0.48979  -0.48626  -0.48482  -0.48033
 Alpha  occ. eigenvalues --   -0.48008  -0.47399  -0.47204  -0.47056  -0.46646
 Alpha  occ. eigenvalues --   -0.46164  -0.45910  -0.45263  -0.44677  -0.44017
 Alpha  occ. eigenvalues --   -0.43654  -0.43591  -0.42706  -0.42536  -0.41756
 Alpha  occ. eigenvalues --   -0.41539  -0.41348  -0.40557  -0.40163  -0.39829
 Alpha  occ. eigenvalues --   -0.39700  -0.38163  -0.37795  -0.37231  -0.36571
 Alpha  occ. eigenvalues --   -0.36445  -0.36370  -0.36236  -0.35349  -0.33119
 Alpha  occ. eigenvalues --   -0.31347  -0.30785  -0.29928  -0.29717  -0.29072
 Alpha  occ. eigenvalues --   -0.28035  -0.26873
 Alpha virt. eigenvalues --   -0.14244  -0.11848  -0.08541  -0.07195  -0.05722
 Alpha virt. eigenvalues --   -0.05469  -0.04757  -0.03427  -0.02442  -0.02368
 Alpha virt. eigenvalues --   -0.01805  -0.01648  -0.00858   0.00312   0.00728

 Mulliken charges:
               1
     1  N   -0.756786
     2  H    0.416810
     3  H    0.436272
     4  H    0.409631
     5  C   -0.111242
     6  H    0.204234
     7  C    0.665724
     8  C   -0.128565
     9  H    0.213548
    10  O   -0.544518
    11  C   -0.505729
    12  H    0.151643
    13  H    0.204408
    14  H    0.192574
    15  C   -0.477282
    16  H    0.174346
    17  H    0.135814
    18  H    0.203755
    19  N   -0.579613
    20  H    0.359652
    21  C   -0.074829
    22  H    0.194412
    23  C    0.628818
    24  C   -0.468948
    25  H    0.194183
    26  H    0.169193
    27  H    0.186283
    28  O   -0.528099
    29  N   -0.583888
    30  H    0.360722
    31  C   -0.081348
    32  H    0.182248
    33  C    0.643254
    34  C   -0.069455
    35  H    0.171789
    36  H    0.173219
    37  O   -0.536192
    38  O   -0.643761
    39  H    0.404272
    40  N   -0.630648
    41  H    0.376330
    42  C   -0.051457
    43  H    0.178914
    44  C    0.603547
    45  C   -0.255249
    46  H    0.129708
    47  H    0.152590
    48  O   -0.560979
    49  C   -0.092156
    50  H    0.146261
    51  C   -0.445191
    52  H    0.141553
    53  H    0.144946
    54  H    0.162465
    55  C   -0.443852
    56  H    0.137059
    57  H    0.132004
    58  H    0.152789
    59  N   -0.623983
    60  H    0.374631
    61  C   -0.051489
    62  H    0.152147
    63  C    0.604552
    64  C   -0.291851
    65  H    0.160505
    66  H    0.166488
    67  O   -0.641483
    68  C   -0.274651
    69  H    0.174892
    70  H    0.144881
    71  C   -0.157334
    72  H    0.178113
    73  H    0.133198
    74  N   -0.609990
    75  H    0.436032
    76  N   -0.755621
    77  H    0.361725
    78  H    0.363479
    79  N   -0.778379
    80  H    0.406499
    81  H    0.349056
    82  C    0.747178
    83  O   -0.533780
 Sum of Mulliken charges =   1.00000

 Dipole moment (field-independent basis, Debye):
    X=            -34.0267    Y=             -2.7780    Z=              7.8944  Tot=             35.0408
 Quadrupole moment (field-independent basis, Debye-Ang):
   XX=             12.4940   YY=           -209.8993   ZZ=            -64.1482
   XY=            -58.1971   XZ=           -134.5138   YZ=             48.1929

 Normal termination of Gaussian 16 at Sun Jul 10 18:06:44 2022.
