 Gaussian 16, Revision C.01,
 Gaussian 16:  ES64L-G16RevC.01  3-Jul-2019

 ----------------------------------------------------------------------
 # B3LYP/6-31G* empiricaldispersion=gd3bj guess=read geom=check nosymm
 integral(ultrafinegrid)
 ----------------------------------------------------------------------

 ------------------------------------------------------
 Candidate Structure: Conf:746 Charge calc in gas phase
 ------------------------------------------------------
 Structure from the checkpoint file:  "conf-746.chk"
 Charge =  1 Multiplicity = 1

                          Input orientation:
 ---------------------------------------------------------------------
 Center     Atomic      Atomic             Coordinates (Angstroms)
 Number     Number       Type             X           Y           Z
 ---------------------------------------------------------------------
      1          7           0       -8.947031    3.011548    4.662520
      2          1           0       -9.241814    2.534875    5.517572
      3          1           0       -8.187233    3.730584    4.884733
      4          1           0       -9.761630    3.471215    4.247439
      5          6           0       -8.224753    2.107734    3.684528
      6          1           0       -8.215621    1.101502    4.110505
      7          6           0       -6.792075    2.703331    3.675552
      8          6           0       -8.905306    2.096036    2.301321
      9          1           0       -8.276118    1.442549    1.684217
     10          8           0       -6.596458    3.744104    4.325528
     11          6           0      -10.303493    1.468068    2.373640
     12          1           0      -11.006257    2.083446    2.951762
     13          1           0      -10.278090    0.469071    2.821747
     14          1           0      -10.724534    1.374336    1.368922
     15          6           0       -8.925535    3.485833    1.649716
     16          1           0       -9.562751    4.196093    2.194141
     17          1           0       -7.924374    3.920604    1.574437
     18          1           0       -9.337611    3.412832    0.639841
     19          7           0       -5.891135    2.052164    2.959864
     20          1           0       -6.111131    1.228701    2.391776
     21          6           0       -4.499002    2.462454    2.789810
     22          1           0       -4.475453    3.511476    2.472561
     23          6           0       -3.985494    1.558818    1.646135
     24          6           0       -3.686546    2.292931    4.080543
     25          1           0       -2.651741    2.614632    3.932685
     26          1           0       -4.121001    2.903092    4.875764
     27          1           0       -3.679200    1.244299    4.392831
     28          8           0       -4.719245    0.683832    1.175386
     29          7           0       -2.727459    1.788193    1.248362
     30          1           0       -2.125473    2.463169    1.715529
     31          6           0       -2.000588    0.919740    0.337755
     32          1           0       -2.409146   -0.092570    0.393348
     33          6           0       -0.535235    0.994834    0.772830
     34          6           0       -2.114981    1.432782   -1.122038
     35          1           0       -3.176137    1.462090   -1.385234
     36          1           0       -1.720667    2.461487   -1.146738
     37          8           0       -0.116124    2.017069    1.317847
     38          8           0       -1.472587    0.592580   -2.055240
     39          1           0       -0.498230    0.597042   -1.874410
     40          7           0        0.230109   -0.071142    0.457630
     41          1           0       -0.197682   -0.808311   -0.089906
     42          6           0        1.678733    0.047601    0.365377
     43          1           0        2.014501    0.643219    1.215698
     44          6           0        2.064690    0.779600   -0.926842
     45          6           0        2.348318   -1.337623    0.376940
     46          1           0        3.418014   -1.199020    0.175619
     47          1           0        1.948280   -1.917295   -0.468469
     48          8           0        1.236672    0.853215   -1.878572
     49          6           0        2.166711   -2.126321    1.684211
     50          1           0        1.089210   -2.248410    1.871783
     51          6           0        2.787201   -3.520061    1.525100
     52          1           0        3.864659   -3.444073    1.337302
     53          1           0        2.339290   -4.065074    0.685883
     54          1           0        2.644909   -4.118669    2.431557
     55          6           0        2.782924   -1.389998    2.880540
     56          1           0        3.843373   -1.177894    2.698424
     57          1           0        2.278665   -0.439217    3.087894
     58          1           0        2.712686   -2.000426    3.787530
     59          7           0        3.303822    1.232301   -0.965445
     60          1           0        3.969894    0.885273   -0.223550
     61          6           0        4.161506    1.272263   -2.157405
     62          1           0        3.696158    0.677968   -2.951931
     63          6           0        5.493883    0.519201   -1.683459
     64          6           0        4.513467    2.657283   -2.695364
     65          1           0        5.403600    2.498465   -3.311406
     66          1           0        4.813982    3.311607   -1.865875
     67          8           0        6.374218    0.431948   -2.541884
     68          6           0        3.430111    3.330241   -3.548030
     69          1           0        3.873174    4.132636   -4.153406
     70          1           0        3.020353    2.595779   -4.254115
     71          6           0        2.287292    3.926365   -2.722213
     72          1           0        2.636985    4.772918   -2.125075
     73          1           0        1.866244    3.200605   -2.026250
     74          7           0        1.186432    4.430654   -3.568246
     75          1           0        1.341697    5.316212   -4.032327
     76          7           0        0.106068    2.379613   -3.758782
     77          1           0       -0.793175    1.905495   -3.738870
     78          1           0        0.817353    1.899097   -3.182967
     79          7           0       -0.816049    4.259667   -4.739891
     80          1           0       -0.759838    5.241099   -4.970256
     81          1           0       -1.338175    3.683986   -5.385510
     82          6           0        0.180318    3.677814   -4.022101
     83          8           0        5.451869    0.128634   -0.475967
 ---------------------------------------------------------------------

 SCF Done:  E(RB3LYP) =  -1868.15308102     A.U. after    1 cycles

 Alpha  occ. eigenvalues --  -19.28093 -19.23398 -19.22555 -19.20678 -19.20291
 Alpha  occ. eigenvalues --  -19.09229 -19.07842 -14.60756 -14.50440 -14.49151
 Alpha  occ. eigenvalues --  -14.49023 -14.46804 -14.46407 -14.44499 -14.39682
 Alpha  occ. eigenvalues --  -10.44686 -10.44636 -10.41567 -10.40378 -10.37519
 Alpha  occ. eigenvalues --  -10.36050 -10.35732 -10.35217 -10.32588 -10.32536
 Alpha  occ. eigenvalues --  -10.32041 -10.32020 -10.31296 -10.29744 -10.29386
 Alpha  occ. eigenvalues --  -10.26780 -10.25421 -10.24464 -10.23858 -10.23816
 Alpha  occ. eigenvalues --  -10.22409 -10.21584 -10.21335  -1.20498  -1.15513
 Alpha  occ. eigenvalues --   -1.14689  -1.13355  -1.12816  -1.10639  -1.09701
 Alpha  occ. eigenvalues --   -1.07312  -1.03429  -1.02826  -1.02284  -1.01150
 Alpha  occ. eigenvalues --   -1.00832  -0.97212  -0.96682  -0.93388  -0.90695
 Alpha  occ. eigenvalues --   -0.87402  -0.86694  -0.86236  -0.84476  -0.83227
 Alpha  occ. eigenvalues --   -0.81339  -0.79507  -0.78530  -0.75677  -0.75366
 Alpha  occ. eigenvalues --   -0.74970  -0.74771  -0.72850  -0.72695  -0.72428
 Alpha  occ. eigenvalues --   -0.71653  -0.70620  -0.70249  -0.69152  -0.68123
 Alpha  occ. eigenvalues --   -0.67394  -0.66644  -0.65379  -0.63716  -0.62871
 Alpha  occ. eigenvalues --   -0.62691  -0.61596  -0.61477  -0.60971  -0.60469
 Alpha  occ. eigenvalues --   -0.60044  -0.59916  -0.58884  -0.58282  -0.57153
 Alpha  occ. eigenvalues --   -0.56943  -0.56575  -0.56242  -0.55456  -0.55027
 Alpha  occ. eigenvalues --   -0.54556  -0.54089  -0.53488  -0.53334  -0.52505
 Alpha  occ. eigenvalues --   -0.52283  -0.51874  -0.51363  -0.50900  -0.50670
 Alpha  occ. eigenvalues --   -0.50376  -0.50078  -0.49643  -0.49473  -0.48926
 Alpha  occ. eigenvalues --   -0.48829  -0.48635  -0.48281  -0.47919  -0.47444
 Alpha  occ. eigenvalues --   -0.47061  -0.46525  -0.45805  -0.45321  -0.44251
 Alpha  occ. eigenvalues --   -0.43688  -0.42897  -0.42537  -0.42386  -0.41908
 Alpha  occ. eigenvalues --   -0.41093  -0.40857  -0.40481  -0.40046  -0.39598
 Alpha  occ. eigenvalues --   -0.39028  -0.38162  -0.38030  -0.37819  -0.37511
 Alpha  occ. eigenvalues --   -0.37279  -0.37158  -0.36648  -0.36308  -0.35393
 Alpha  occ. eigenvalues --   -0.35135  -0.34221  -0.33224  -0.31831  -0.24168
 Alpha  occ. eigenvalues --   -0.24066  -0.21893
 Alpha virt. eigenvalues --   -0.13443  -0.12270  -0.09323  -0.08925  -0.07839
 Alpha virt. eigenvalues --   -0.06843  -0.05460  -0.05150  -0.05023  -0.03479
 Alpha virt. eigenvalues --   -0.01828  -0.01561  -0.01103  -0.00720   0.00007

 Mulliken charges:
               1
     1  N   -0.763365
     2  H    0.417753
     3  H    0.436977
     4  H    0.409977
     5  C   -0.099505
     6  H    0.217691
     7  C    0.656418
     8  C   -0.127635
     9  H    0.191293
    10  O   -0.549457
    11  C   -0.462745
    12  H    0.140295
    13  H    0.175072
    14  H    0.200903
    15  C   -0.476857
    16  H    0.143733
    17  H    0.184913
    18  H    0.199588
    19  N   -0.616196
    20  H    0.380120
    21  C   -0.052329
    22  H    0.196085
    23  C    0.626304
    24  C   -0.462436
    25  H    0.184019
    26  H    0.193024
    27  H    0.174133
    28  O   -0.543608
    29  N   -0.617458
    30  H    0.365120
    31  C   -0.074418
    32  H    0.189268
    33  C    0.602080
    34  C   -0.031017
    35  H    0.164644
    36  H    0.127174
    37  O   -0.540417
    38  O   -0.672451
    39  H    0.445299
    40  N   -0.586100
    41  H    0.341901
    42  C   -0.084285
    43  H    0.202498
    44  C    0.632681
    45  C   -0.313051
    46  H    0.214559
    47  H    0.132689
    48  O   -0.634082
    49  C   -0.065799
    50  H    0.112051
    51  C   -0.446766
    52  H    0.169215
    53  H    0.139132
    54  H    0.144739
    55  C   -0.460636
    56  H    0.174068
    57  H    0.138492
    58  H    0.147026
    59  N   -0.576076
    60  H    0.375496
    61  C   -0.101512
    62  H    0.146840
    63  C    0.600353
    64  C   -0.266811
    65  H    0.197360
    66  H    0.138979
    67  O   -0.552178
    68  C   -0.271042
    69  H    0.139734
    70  H    0.148045
    71  C   -0.187639
    72  H    0.180515
    73  H    0.203491
    74  N   -0.585415
    75  H    0.349877
    76  N   -0.792202
    77  H    0.373992
    78  H    0.438560
    79  N   -0.761018
    80  H    0.363653
    81  H    0.373837
    82  C    0.782533
    83  O   -0.609693
 Sum of Mulliken charges =   1.00000

 Dipole moment (field-independent basis, Debye):
    X=            -46.1626    Y=             20.5235    Z=              7.9814  Tot=             51.1459
 Quadrupole moment (field-independent basis, Debye-Ang):
   XX=              2.4038   YY=           -140.5431   ZZ=           -109.2648
   XY=            -84.5137   XZ=           -115.8389   YZ=            -21.3149

 Normal termination of Gaussian 16 at Sun Jul 10 18:06:27 2022.
