 Gaussian 16, Revision C.01,
 Gaussian 16:  ES64L-G16RevC.01  3-Jul-2019

 ----------------------------------------------------------------------
 # B3LYP/6-31G* empiricaldispersion=gd3bj guess=read geom=check nosymm
 integral(ultrafinegrid)
 ----------------------------------------------------------------------

 ------------------------------------------------------
 Candidate Structure: Conf:684 Charge calc in gas phase
 ------------------------------------------------------
 Structure from the checkpoint file:  "conf-684.chk"
 Charge =  1 Multiplicity = 1

                          Input orientation:
 ---------------------------------------------------------------------
 Center     Atomic      Atomic             Coordinates (Angstroms)
 Number     Number       Type             X           Y           Z
 ---------------------------------------------------------------------
      1          7           0       -8.555071    0.827869    5.871376
      2          1           0       -8.496151    0.531315    6.849250
      3          1           0       -8.068439    1.769646    5.770238
      4          1           0       -9.540818    0.875444    5.603081
      5          6           0       -7.728912   -0.034605    4.936809
      6          1           0       -7.548306   -0.996443    5.423169
      7          6           0       -6.430292    0.805712    4.811006
      8          6           0       -8.477615   -0.238128    3.597801
      9          1           0       -8.645078    0.759589    3.167235
     10          8           0       -6.506562    2.011706    5.103214
     11          6           0       -7.631949   -1.058335    2.611152
     12          1           0       -7.379949   -2.041451    3.027058
     13          1           0       -6.703528   -0.561294    2.325543
     14          1           0       -8.209147   -1.229191    1.698503
     15          6           0       -9.832873   -0.929917    3.820084
     16          1           0       -9.700163   -1.915901    4.280045
     17          1           0      -10.535629   -0.358495    4.441845
     18          1           0      -10.332028   -1.075621    2.858405
     19          7           0       -5.343138    0.174116    4.403140
     20          1           0       -5.356158   -0.796305    4.073255
     21          6           0       -4.083439    0.829487    4.057547
     22          1           0       -4.308543    1.758398    3.522099
     23          6           0       -3.401736   -0.172835    3.097327
     24          6           0       -3.238635    1.140495    5.298545
     25          1           0       -2.304388    1.634346    5.016316
     26          1           0       -3.790114    1.809599    5.964244
     27          1           0       -2.992473    0.219980    5.836342
     28          8           0       -3.932748   -1.270715    2.884294
     29          7           0       -2.249771    0.230879    2.558842
     30          1           0       -1.812253    1.120992    2.792827
     31          6           0       -1.423432   -0.594384    1.696938
     32          1           0       -1.393116   -1.618732    2.080557
     33          6           0       -0.035225    0.045935    1.705379
     34          6           0       -1.977911   -0.632893    0.241064
     35          1           0       -2.971570   -1.088879    0.283135
     36          1           0       -2.079343    0.401934   -0.113045
     37          8           0        0.130124    1.189837    2.131239
     38          8           0       -1.165976   -1.402810   -0.611833
     39          1           0       -0.494573   -0.788432   -0.995701
     40          7           0        0.941328   -0.725690    1.169399
     41          1           0        0.594797   -1.531270    0.654648
     42          6           0        2.133506   -0.099546    0.612794
     43          1           0        2.550961    0.556996    1.378927
     44          6           0        1.733011    0.743219   -0.615940
     45          6           0        3.139439   -1.203673    0.232779
     46          1           0        2.683569   -1.818828   -0.555876
     47          1           0        3.254041   -1.850598    1.112591
     48          8           0        0.712456    0.490555   -1.278739
     49          6           0        4.531565   -0.740770   -0.232717
     50          1           0        4.417451   -0.097976   -1.113199
     51          6           0        5.272748    0.060133    0.845477
     52          1           0        5.410812   -0.542705    1.752357
     53          1           0        4.745564    0.976509    1.133379
     54          1           0        6.259776    0.364040    0.483866
     55          6           0        5.357348   -1.962925   -0.654457
     56          1           0        5.514446   -2.642960    0.192571
     57          1           0        4.857866   -2.526959   -1.450430
     58          1           0        6.341366   -1.657320   -1.025169
     59          7           0        2.582963    1.723629   -0.931261
     60          1           0        3.443162    1.877428   -0.408695
     61          6           0        2.573686    2.471406   -2.182197
     62          1           0        2.092554    1.870781   -2.956946
     63          6           0        4.058409    2.738678   -2.525181
     64          6           0        1.805889    3.796785   -1.971401
     65          1           0        2.369740    4.390022   -1.239747
     66          1           0        0.853918    3.536668   -1.495174
     67          8           0        4.319604    2.891685   -3.765704
     68          6           0        1.480495    4.646403   -3.210371
     69          1           0        0.919333    4.044351   -3.935789
     70          1           0        0.796149    5.446092   -2.891213
     71          6           0        2.652473    5.276042   -3.976520
     72          1           0        2.262414    5.956683   -4.743412
     73          1           0        3.233852    4.493969   -4.456226
     74          7           0        3.544579    6.038750   -3.090027
     75          1           0        3.098803    6.638496   -2.408472
     76          7           0        5.597939    5.112514   -3.711728
     77          1           0        6.604086    5.188442   -3.643352
     78          1           0        5.192963    4.104237   -3.825142
     79          7           0        5.493936    6.977127   -2.307445
     80          1           0        5.054114    7.877240   -2.185096
     81          1           0        6.492877    6.943024   -2.172026
     82          6           0        4.887267    6.014710   -3.055111
     83          8           0        4.842347    2.862607   -1.566101
 ---------------------------------------------------------------------

 SCF Done:  E(RB3LYP) =  -1868.18423478     A.U. after    1 cycles

 Alpha  occ. eigenvalues --  -19.26636 -19.21529 -19.18834 -19.18797 -19.17268
 Alpha  occ. eigenvalues --  -19.13594 -19.12996 -14.59817 -14.48969 -14.45761
 Alpha  occ. eigenvalues --  -14.45439 -14.44826 -14.41998 -14.41669 -14.40246
 Alpha  occ. eigenvalues --  -10.43290 -10.40949 -10.40480 -10.38496 -10.35318
 Alpha  occ. eigenvalues --  -10.34535 -10.34434 -10.33806 -10.31314 -10.31035
 Alpha  occ. eigenvalues --  -10.30036 -10.29649 -10.29301 -10.28649 -10.28394
 Alpha  occ. eigenvalues --  -10.28137 -10.26147 -10.25051 -10.23982 -10.23889
 Alpha  occ. eigenvalues --  -10.23266 -10.21468 -10.21223  -1.19154  -1.13933
 Alpha  occ. eigenvalues --   -1.13313  -1.10755  -1.09541  -1.08623  -1.06819
 Alpha  occ. eigenvalues --   -1.06468  -1.05825  -1.01429  -0.99248  -0.98848
 Alpha  occ. eigenvalues --   -0.98653  -0.96777  -0.96476  -0.95307  -0.89184
 Alpha  occ. eigenvalues --   -0.86392  -0.85480  -0.85124  -0.82749  -0.81449
 Alpha  occ. eigenvalues --   -0.80421  -0.78400  -0.76984  -0.74935  -0.73786
 Alpha  occ. eigenvalues --   -0.73725  -0.72426  -0.72321  -0.70922  -0.70487
 Alpha  occ. eigenvalues --   -0.70160  -0.69247  -0.67349  -0.66741  -0.66257
 Alpha  occ. eigenvalues --   -0.65366  -0.64333  -0.63661  -0.63235  -0.62606
 Alpha  occ. eigenvalues --   -0.61090  -0.60819  -0.59639  -0.59011  -0.58492
 Alpha  occ. eigenvalues --   -0.58095  -0.57831  -0.57003  -0.56814  -0.55213
 Alpha  occ. eigenvalues --   -0.55017  -0.54592  -0.54349  -0.53583  -0.53157
 Alpha  occ. eigenvalues --   -0.52717  -0.52555  -0.52254  -0.52040  -0.51195
 Alpha  occ. eigenvalues --   -0.50897  -0.50627  -0.50191  -0.49741  -0.49106
 Alpha  occ. eigenvalues --   -0.48803  -0.48543  -0.48176  -0.48032  -0.47939
 Alpha  occ. eigenvalues --   -0.47469  -0.47280  -0.47157  -0.47067  -0.46652
 Alpha  occ. eigenvalues --   -0.45954  -0.45757  -0.45313  -0.44666  -0.44335
 Alpha  occ. eigenvalues --   -0.43135  -0.42548  -0.42271  -0.42035  -0.41855
 Alpha  occ. eigenvalues --   -0.41203  -0.41011  -0.40550  -0.39472  -0.39084
 Alpha  occ. eigenvalues --   -0.38194  -0.38158  -0.37389  -0.36972  -0.36874
 Alpha  occ. eigenvalues --   -0.36199  -0.36072  -0.35627  -0.33578  -0.33225
 Alpha  occ. eigenvalues --   -0.32633  -0.31658  -0.31148  -0.30384  -0.28970
 Alpha  occ. eigenvalues --   -0.27765  -0.27153
 Alpha virt. eigenvalues --   -0.12353  -0.10977  -0.07121  -0.06479  -0.05598
 Alpha virt. eigenvalues --   -0.04803  -0.04130  -0.02863  -0.02785  -0.01687
 Alpha virt. eigenvalues --   -0.00914   0.00445   0.00462   0.00901   0.01528

 Mulliken charges:
               1
     1  N   -0.759348
     2  H    0.415533
     3  H    0.432432
     4  H    0.408556
     5  C   -0.103110
     6  H    0.206563
     7  C    0.646321
     8  C   -0.110389
     9  H    0.169508
    10  O   -0.548354
    11  C   -0.475810
    12  H    0.170449
    13  H    0.187361
    14  H    0.188374
    15  C   -0.473924
    16  H    0.177631
    17  H    0.138269
    18  H    0.203076
    19  N   -0.601583
    20  H    0.382647
    21  C   -0.063288
    22  H    0.197923
    23  C    0.635376
    24  C   -0.454587
    25  H    0.182634
    26  H    0.182806
    27  H    0.172545
    28  O   -0.552483
    29  N   -0.623995
    30  H    0.364063
    31  C   -0.070243
    32  H    0.188890
    33  C    0.610393
    34  C   -0.032054
    35  H    0.163577
    36  H    0.142309
    37  O   -0.546176
    38  O   -0.651140
    39  H    0.444494
    40  N   -0.599281
    41  H    0.346331
    42  C   -0.076745
    43  H    0.182862
    44  C    0.645755
    45  C   -0.277373
    46  H    0.146147
    47  H    0.152613
    48  O   -0.585330
    49  C   -0.094558
    50  H    0.155011
    51  C   -0.447840
    52  H    0.138470
    53  H    0.138942
    54  H    0.164254
    55  C   -0.444760
    56  H    0.139989
    57  H    0.146301
    58  H    0.154147
    59  N   -0.599986
    60  H    0.369238
    61  C   -0.037296
    62  H    0.169929
    63  C    0.593775
    64  C   -0.258656
    65  H    0.133633
    66  H    0.160161
    67  O   -0.624932
    68  C   -0.294263
    69  H    0.166725
    70  H    0.132630
    71  C   -0.155790
    72  H    0.159100
    73  H    0.234084
    74  N   -0.602094
    75  H    0.339702
    76  N   -0.755889
    77  H    0.340335
    78  H    0.437659
    79  N   -0.768926
    80  H    0.356854
    81  H    0.363937
    82  C    0.787044
    83  O   -0.577157
 Sum of Mulliken charges =   1.00000

 Dipole moment (field-independent basis, Debye):
    X=            -24.2226    Y=             13.5582    Z=             18.1182  Tot=             33.1486
 Quadrupole moment (field-independent basis, Debye-Ang):
   XX=             92.8547   YY=           -121.7978   ZZ=           -106.3194
   XY=             52.8292   XZ=           -185.1878   YZ=            -32.5727

 Normal termination of Gaussian 16 at Sun Jul 10 18:06:26 2022.
