 Gaussian 16, Revision C.01,
 Gaussian 16:  ES64L-G16RevC.01  3-Jul-2019

 ----------------------------------------------------------------------
 # B3LYP/6-31G* empiricaldispersion=gd3bj guess=read geom=check nosymm
 integral(ultrafinegrid)
 ----------------------------------------------------------------------

 ------------------------------------------------------
 Candidate Structure: Conf:796 Charge calc in gas phase
 ------------------------------------------------------
 Structure from the checkpoint file:  "conf-796.chk"
 Charge =  1 Multiplicity = 1

                          Input orientation:
 ---------------------------------------------------------------------
 Center     Atomic      Atomic             Coordinates (Angstroms)
 Number     Number       Type             X           Y           Z
 ---------------------------------------------------------------------
      1          7           0       -4.095900   -0.661666    6.249333
      2          1           0       -3.489201   -0.339496    7.007563
      3          1           0       -4.949634   -0.026818    6.192923
      4          1           0       -4.365333   -1.632742    6.426986
      5          6           0       -3.491566   -0.464084    4.871479
      6          1           0       -2.410456   -0.354626    4.980516
      7          6           0       -4.177287    0.841597    4.408054
      8          6           0       -3.831737   -1.688318    3.982994
      9          1           0       -3.489869   -2.561449    4.561547
     10          8           0       -5.223457    1.161647    4.994848
     11          6           0       -5.337587   -1.813612    3.708361
     12          1           0       -5.678867   -0.995218    3.067452
     13          1           0       -5.950233   -1.818705    4.618507
     14          1           0       -5.530942   -2.753220    3.183385
     15          6           0       -3.040050   -1.662512    2.670071
     16          1           0       -3.446229   -0.921300    1.979757
     17          1           0       -1.978417   -1.455200    2.830237
     18          1           0       -3.118902   -2.641711    2.188147
     19          7           0       -3.613751    1.513072    3.408517
     20          1           0       -2.793570    1.137908    2.927653
     21          6           0       -4.381907    2.481575    2.602473
     22          1           0       -5.389106    2.508955    3.021307
     23          6           0       -4.452520    1.770418    1.233350
     24          6           0       -3.742295    3.865255    2.645758
     25          1           0       -4.274035    4.557462    1.984850
     26          1           0       -3.791617    4.264500    3.662339
     27          1           0       -2.688330    3.827534    2.349806
     28          8           0       -5.004135    0.677034    1.152907
     29          7           0       -3.773877    2.342711    0.204483
     30          1           0       -3.233015    3.175248    0.407844
     31          6           0       -3.098891    1.473359   -0.740366
     32          1           0       -3.786716    0.675536   -1.034486
     33          6           0       -1.867570    0.869616   -0.003180
     34          6           0       -2.658744    2.314028   -1.952321
     35          1           0       -2.292232    1.673048   -2.764851
     36          1           0       -3.538640    2.843893   -2.330914
     37          8           0       -1.701943    1.002964    1.215042
     38          8           0       -1.694037    3.266750   -1.556872
     39          1           0       -0.813097    2.875586   -1.744564
     40          7           0       -0.982162    0.223622   -0.793455
     41          1           0       -1.121968    0.325449   -1.791664
     42          6           0        0.427775    0.102003   -0.439037
     43          1           0        0.526504    0.470366    0.585047
     44          6           0        1.204062    1.060990   -1.373405
     45          6           0        0.909278   -1.354797   -0.526338
     46          1           0        1.995577   -1.392124   -0.379028
     47          1           0        0.726276   -1.718031   -1.546062
     48          8           0        0.598834    1.773179   -2.194989
     49          6           0        0.237888   -2.294139    0.488751
     50          1           0       -0.850012   -2.187787    0.374178
     51          6           0        0.613867   -3.749359    0.185515
     52          1           0        1.696189   -3.902221    0.278875
     53          1           0        0.323061   -4.033076   -0.831984
     54          1           0        0.119958   -4.437203    0.880952
     55          6           0        0.610009   -1.924965    1.931153
     56          1           0        1.698048   -1.950852    2.072012
     57          1           0        0.254032   -0.924720    2.201462
     58          1           0        0.171527   -2.639115    2.637787
     59          7           0        2.529339    1.063646   -1.238703
     60          1           0        3.027184    0.446250   -0.597372
     61          6           0        3.455316    1.784619   -2.104682
     62          1           0        3.190509    1.605609   -3.150377
     63          6           0        4.877796    1.242467   -1.816450
     64          6           0        3.457219    3.307829   -1.850164
     65          1           0        2.476252    3.711505   -2.114483
     66          1           0        4.188234    3.728102   -2.547550
     67          8           0        5.775676    1.650486   -2.576740
     68          6           0        3.818466    3.669574   -0.391152
     69          1           0        2.953127    4.103961    0.122662
     70          1           0        4.057294    2.754285    0.158131
     71          6           0        4.954753    4.692868   -0.221815
     72          1           0        5.118650    4.898831    0.843958
     73          1           0        4.668505    5.643535   -0.678474
     74          7           0        6.242127    4.339695   -0.846837
     75          1           0        6.619745    4.979524   -1.532896
     76          7           0        6.683671    2.358343    0.337672
     77          1           0        6.408661    1.399936    0.019664
     78          1           0        6.029846    2.697728    1.032018
     79          7           0        7.943740    2.933529   -1.533736
     80          1           0        7.671062    2.974633   -2.511804
     81          1           0        8.400890    2.051522   -1.330090
     82          6           0        6.918192    3.199949   -0.686113
     83          8           0        5.006194    0.546959   -0.755651
 ---------------------------------------------------------------------

 SCF Done:  E(RB3LYP) =  -1868.18264116     A.U. after    2 cycles

 Alpha  occ. eigenvalues --  -19.25800 -19.22221 -19.20908 -19.20869 -19.20035
 Alpha  occ. eigenvalues --  -19.15510 -19.14320 -14.59077 -14.48385 -14.47858
 Alpha  occ. eigenvalues --  -14.45045 -14.44703 -14.44508 -14.44455 -14.42845
 Alpha  occ. eigenvalues --  -10.42461 -10.42160 -10.39483 -10.38592 -10.38016
 Alpha  occ. eigenvalues --  -10.36803 -10.33539 -10.33056 -10.32760 -10.32756
 Alpha  occ. eigenvalues --  -10.31890 -10.31685 -10.31469 -10.28318 -10.28157
 Alpha  occ. eigenvalues --  -10.27937 -10.27671 -10.27143 -10.26704 -10.26626
 Alpha  occ. eigenvalues --  -10.25405 -10.25267 -10.24310  -1.18407  -1.14066
 Alpha  occ. eigenvalues --   -1.13019  -1.12498  -1.11479  -1.11128  -1.08710
 Alpha  occ. eigenvalues --   -1.08221  -1.05114  -1.01951  -1.01478  -1.00847
 Alpha  occ. eigenvalues --   -1.00340  -0.98988  -0.98016  -0.93894  -0.89428
 Alpha  occ. eigenvalues --   -0.88301  -0.87502  -0.85038  -0.83977  -0.82598
 Alpha  occ. eigenvalues --   -0.80765  -0.79456  -0.76145  -0.75982  -0.75665
 Alpha  occ. eigenvalues --   -0.74387  -0.73883  -0.72927  -0.72392  -0.71527
 Alpha  occ. eigenvalues --   -0.70876  -0.68993  -0.68053  -0.67745  -0.67392
 Alpha  occ. eigenvalues --   -0.66776  -0.65380  -0.64634  -0.64426  -0.62936
 Alpha  occ. eigenvalues --   -0.62572  -0.61520  -0.60599  -0.60201  -0.59294
 Alpha  occ. eigenvalues --   -0.58922  -0.58442  -0.57635  -0.56880  -0.56340
 Alpha  occ. eigenvalues --   -0.56179  -0.55784  -0.55246  -0.55041  -0.54669
 Alpha  occ. eigenvalues --   -0.53995  -0.53733  -0.53140  -0.52982  -0.52132
 Alpha  occ. eigenvalues --   -0.51812  -0.51491  -0.51332  -0.51064  -0.50138
 Alpha  occ. eigenvalues --   -0.49907  -0.49455  -0.48875  -0.48813  -0.48615
 Alpha  occ. eigenvalues --   -0.48339  -0.48187  -0.48067  -0.47516  -0.47204
 Alpha  occ. eigenvalues --   -0.46805  -0.46405  -0.46213  -0.45910  -0.45475
 Alpha  occ. eigenvalues --   -0.45174  -0.44873  -0.44597  -0.44556  -0.43865
 Alpha  occ. eigenvalues --   -0.43644  -0.42682  -0.41965  -0.41220  -0.40794
 Alpha  occ. eigenvalues --   -0.40431  -0.40232  -0.40133  -0.39889  -0.38716
 Alpha  occ. eigenvalues --   -0.37930  -0.36403  -0.36389  -0.36065  -0.35140
 Alpha  occ. eigenvalues --   -0.34327  -0.33863  -0.33372  -0.33275  -0.30661
 Alpha  occ. eigenvalues --   -0.30036  -0.28478
 Alpha virt. eigenvalues --   -0.12009  -0.10360  -0.09224  -0.08198  -0.07292
 Alpha virt. eigenvalues --   -0.06023  -0.05913  -0.03338  -0.02723  -0.00951
 Alpha virt. eigenvalues --   -0.00608  -0.00560  -0.00025   0.00301   0.00798

 Mulliken charges:
               1
     1  N   -0.758197
     2  H    0.412411
     3  H    0.435375
     4  H    0.410467
     5  C   -0.115922
     6  H    0.203548
     7  C    0.663867
     8  C   -0.107095
     9  H    0.145975
    10  O   -0.546358
    11  C   -0.482240
    12  H    0.220146
    13  H    0.130040
    14  H    0.183849
    15  C   -0.498893
    16  H    0.212379
    17  H    0.164305
    18  H    0.174528
    19  N   -0.600446
    20  H    0.401146
    21  C   -0.061318
    22  H    0.215745
    23  C    0.588810
    24  C   -0.487642
    25  H    0.183936
    26  H    0.180271
    27  H    0.170919
    28  O   -0.510786
    29  N   -0.565494
    30  H    0.355359
    31  C   -0.089628
    32  H    0.205132
    33  C    0.621912
    34  C   -0.079710
    35  H    0.149919
    36  H    0.177143
    37  O   -0.565850
    38  O   -0.655194
    39  H    0.442822
    40  N   -0.569007
    41  H    0.347507
    42  C   -0.100473
    43  H    0.193351
    44  C    0.627718
    45  C   -0.265054
    46  H    0.156826
    47  H    0.149271
    48  O   -0.576937
    49  C   -0.073563
    50  H    0.137546
    51  C   -0.446807
    52  H    0.153231
    53  H    0.152484
    54  H    0.143711
    55  C   -0.465325
    56  H    0.150220
    57  H    0.148710
    58  H    0.138317
    59  N   -0.607641
    60  H    0.363538
    61  C   -0.046355
    62  H    0.176519
    63  C    0.590133
    64  C   -0.274113
    65  H    0.170565
    66  H    0.157535
    67  O   -0.597435
    68  C   -0.289087
    69  H    0.156336
    70  H    0.152289
    71  C   -0.168184
    72  H    0.171004
    73  H    0.180761
    74  N   -0.557769
    75  H    0.361961
    76  N   -0.729209
    77  H    0.401092
    78  H    0.344030
    79  N   -0.700452
    80  H    0.378166
    81  H    0.366314
    82  C    0.699084
    83  O   -0.626042
 Sum of Mulliken charges =   1.00000

 Dipole moment (field-independent basis, Debye):
    X=             -2.9084    Y=              4.6820    Z=             18.3281  Tot=             19.1389
 Quadrupole moment (field-independent basis, Debye-Ang):
   XX=           -135.6143   YY=           -175.5176   ZZ=           -107.1007
   XY=             56.5464   XZ=            -65.4738   YZ=            -19.0921

 Normal termination of Gaussian 16 at Sun Jul 10 18:06:39 2022.
