 Gaussian 16, Revision C.01,
 Gaussian 16:  ES64L-G16RevC.01  3-Jul-2019

 ----------------------------------------------------------------------
 # B3LYP/6-31G* empiricaldispersion=gd3bj guess=read geom=check nosymm
 integral(ultrafinegrid)
 ----------------------------------------------------------------------

 ------------------------------------------------------
 Candidate Structure: Conf:123 Charge calc in gas phase
 ------------------------------------------------------
 Structure from the checkpoint file:  "conf-123.chk"
 Charge =  1 Multiplicity = 1

                          Input orientation:
 ---------------------------------------------------------------------
 Center     Atomic      Atomic             Coordinates (Angstroms)
 Number     Number       Type             X           Y           Z
 ---------------------------------------------------------------------
      1          7           0       -1.464268   -2.067381    4.598743
      2          1           0       -0.702935   -1.852316    3.938400
      3          1           0       -1.539926   -1.270374    5.264905
      4          1           0       -1.251010   -2.941396    5.087102
      5          6           0       -2.806229   -2.099633    3.897784
      6          1           0       -2.650278   -2.560780    2.920634
      7          6           0       -3.153486   -0.597466    3.796925
      8          6           0       -3.828406   -2.901952    4.727333
      9          1           0       -3.898319   -2.418885    5.711666
     10          8           0       -2.820768    0.121198    4.743699
     11          6           0       -5.207759   -2.832944    4.055550
     12          1           0       -5.175581   -3.249881    3.041453
     13          1           0       -5.587712   -1.809668    3.997345
     14          1           0       -5.926511   -3.422241    4.630900
     15          6           0       -3.388141   -4.363172    4.903188
     16          1           0       -3.266020   -4.859872    3.933883
     17          1           0       -2.453240   -4.481828    5.467655
     18          1           0       -4.148497   -4.911833    5.465622
     19          7           0       -3.757750   -0.221068    2.667108
     20          1           0       -3.980429   -0.909464    1.948616
     21          6           0       -4.093461    1.140336    2.244440
     22          1           0       -5.015338    1.462669    2.746644
     23          6           0       -4.371402    0.985838    0.727461
     24          6           0       -2.969923    2.145741    2.533110
     25          1           0       -3.300927    3.166467    2.318182
     26          1           0       -2.697928    2.107130    3.587486
     27          1           0       -2.083106    1.925578    1.929870
     28          8           0       -4.511920   -0.134855    0.237807
     29          7           0       -4.390374    2.122234   -0.017782
     30          1           0       -4.055884    2.967394    0.430845
     31          6           0       -4.096304    2.051821   -1.467605
     32          1           0       -4.638819    1.193080   -1.865053
     33          6           0       -2.574861    1.853442   -1.533232
     34          6           0       -4.581072    3.319970   -2.167792
     35          1           0       -4.105375    4.201183   -1.711431
     36          1           0       -4.262262    3.287328   -3.213180
     37          8           0       -1.815236    2.836419   -1.505616
     38          8           0       -5.988266    3.401668   -2.179387
     39          1           0       -6.298017    3.478532   -1.263372
     40          7           0       -2.166651    0.578750   -1.454609
     41          1           0       -2.887064   -0.131878   -1.483341
     42          6           0       -0.858190    0.159075   -0.952012
     43          1           0       -0.530408    0.914576   -0.230256
     44          6           0        0.196105    0.016229   -2.065446
     45          6           0       -1.062704   -1.212704   -0.264425
     46          1           0       -1.206221   -1.955279   -1.059696
     47          1           0       -2.008400   -1.163044    0.294722
     48          8           0       -0.145673   -0.339649   -3.199769
     49          6           0        0.043465   -1.684214    0.691842
     50          1           0        1.018045   -1.655961    0.197707
     51          6           0        0.178786   -0.756905    1.906070
     52          1           0       -0.802512   -0.528928    2.352677
     53          1           0        0.652276    0.192108    1.643942
     54          1           0        0.847819   -1.204359    2.654630
     55          6           0       -0.230143   -3.132243    1.112600
     56          1           0       -1.207921   -3.238916    1.609887
     57          1           0       -0.245004   -3.803088    0.247690
     58          1           0        0.547630   -3.494684    1.794046
     59          7           0        1.452796    0.262717   -1.656439
     60          1           0        1.620723    0.385445   -0.635491
     61          6           0        2.629971   -0.513012   -2.092298
     62          1           0        2.274433   -1.443309   -2.549989
     63          6           0        3.409262   -0.858738   -0.752162
     64          6           0        3.566502    0.182400   -3.081513
     65          1           0        4.388664   -0.517702   -3.244089
     66          1           0        4.023107    1.051110   -2.587162
     67          8           0        4.449227   -1.503940   -0.895959
     68          6           0        2.897167    0.587293   -4.413222
     69          1           0        3.431872    0.156239   -5.267568
     70          1           0        1.884664    0.171613   -4.450201
     71          6           0        2.857110    2.104747   -4.644765
     72          1           0        2.212919    2.370407   -5.488284
     73          1           0        3.858201    2.482772   -4.868430
     74          7           0        2.401042    2.877588   -3.478075
     75          1           0        3.098384    3.075157   -2.773694
     76          7           0        0.130442    2.483597   -3.825283
     77          1           0       -0.794250    2.653704   -3.444738
     78          1           0        0.249471    1.526613   -4.153650
     79          7           0        0.819282    3.783850   -2.042793
     80          1           0        1.533979    4.298552   -1.550634
     81          1           0       -0.080018    3.624003   -1.593771
     82          6           0        1.131838    3.017658   -3.099041
     83          8           0        2.853055   -0.410941    0.306666
 ---------------------------------------------------------------------

 SCF Done:  E(RB3LYP) =  -1868.14448994     A.U. after    3 cycles

 Alpha  occ. eigenvalues --  -19.27385 -19.26565 -19.24808 -19.24362 -19.19580
 Alpha  occ. eigenvalues --  -19.11825 -19.10218 -14.60771 -14.51076 -14.50190
 Alpha  occ. eigenvalues --  -14.48246 -14.48042 -14.47587 -14.46545 -14.41251
 Alpha  occ. eigenvalues --  -10.44585 -10.43915 -10.43324 -10.41418 -10.40910
 Alpha  occ. eigenvalues --  -10.38035 -10.36354 -10.35282 -10.34984 -10.34047
 Alpha  occ. eigenvalues --  -10.33606 -10.31772 -10.31731 -10.31215 -10.30792
 Alpha  occ. eigenvalues --  -10.29257 -10.29230 -10.28285 -10.28140 -10.27751
 Alpha  occ. eigenvalues --  -10.26376 -10.25576 -10.24055  -1.20013  -1.18568
 Alpha  occ. eigenvalues --   -1.16163  -1.14884  -1.12780  -1.12121  -1.10985
 Alpha  occ. eigenvalues --   -1.07778  -1.06357  -1.04602  -1.04497  -1.02325
 Alpha  occ. eigenvalues --   -1.00409  -0.98601  -0.96227  -0.95597  -0.92172
 Alpha  occ. eigenvalues --   -0.91466  -0.88078  -0.86753  -0.86158  -0.84779
 Alpha  occ. eigenvalues --   -0.82300  -0.80820  -0.80306  -0.79107  -0.76807
 Alpha  occ. eigenvalues --   -0.76049  -0.75472  -0.74783  -0.74683  -0.73772
 Alpha  occ. eigenvalues --   -0.72335  -0.71095  -0.70661  -0.70513  -0.70041
 Alpha  occ. eigenvalues --   -0.68341  -0.67775  -0.66319  -0.65463  -0.64872
 Alpha  occ. eigenvalues --   -0.64065  -0.63152  -0.62753  -0.61987  -0.61769
 Alpha  occ. eigenvalues --   -0.61165  -0.60860  -0.60252  -0.59485  -0.58982
 Alpha  occ. eigenvalues --   -0.58584  -0.58157  -0.57356  -0.56857  -0.56335
 Alpha  occ. eigenvalues --   -0.55461  -0.55225  -0.54917  -0.54548  -0.53739
 Alpha  occ. eigenvalues --   -0.53584  -0.53402  -0.53000  -0.52525  -0.52095
 Alpha  occ. eigenvalues --   -0.52008  -0.51743  -0.51550  -0.51169  -0.51101
 Alpha  occ. eigenvalues --   -0.50723  -0.50420  -0.50089  -0.50064  -0.49699
 Alpha  occ. eigenvalues --   -0.48704  -0.48511  -0.48399  -0.48179  -0.47746
 Alpha  occ. eigenvalues --   -0.46501  -0.46320  -0.45339  -0.44594  -0.43584
 Alpha  occ. eigenvalues --   -0.43321  -0.43160  -0.42670  -0.42132  -0.41587
 Alpha  occ. eigenvalues --   -0.41381  -0.41181  -0.40795  -0.40365  -0.40112
 Alpha  occ. eigenvalues --   -0.39706  -0.39238  -0.38600  -0.38389  -0.37917
 Alpha  occ. eigenvalues --   -0.36835  -0.36180  -0.33658  -0.32645  -0.26801
 Alpha  occ. eigenvalues --   -0.26659  -0.24227
 Alpha virt. eigenvalues --   -0.14168  -0.13172  -0.10671  -0.10058  -0.09001
 Alpha virt. eigenvalues --   -0.07534  -0.06070  -0.05836  -0.05182  -0.03899
 Alpha virt. eigenvalues --   -0.03370  -0.02646  -0.02291  -0.01529  -0.01103

 Mulliken charges:
               1
     1  N   -0.761008
     2  H    0.423672
     3  H    0.425056
     4  H    0.412223
     5  C   -0.117153
     6  H    0.211223
     7  C    0.657063
     8  C   -0.103547
     9  H    0.174777
    10  O   -0.534504
    11  C   -0.470636
    12  H    0.165578
    13  H    0.175231
    14  H    0.192601
    15  C   -0.478467
    16  H    0.179123
    17  H    0.143550
    18  H    0.203230
    19  N   -0.631142
    20  H    0.382614
    21  C   -0.029641
    22  H    0.212278
    23  C    0.625353
    24  C   -0.503928
    25  H    0.167459
    26  H    0.227636
    27  H    0.175536
    28  O   -0.528162
    29  N   -0.609656
    30  H    0.348735
    31  C   -0.097572
    32  H    0.208659
    33  C    0.609421
    34  C   -0.038840
    35  H    0.147150
    36  H    0.178659
    37  O   -0.583173
    38  O   -0.593472
    39  H    0.400190
    40  N   -0.561685
    41  H    0.368913
    42  C   -0.051915
    43  H    0.154864
    44  C    0.595605
    45  C   -0.316769
    46  H    0.177747
    47  H    0.118117
    48  O   -0.560477
    49  C   -0.082303
    50  H    0.213898
    51  C   -0.483859
    52  H    0.086433
    53  H    0.199398
    54  H    0.159157
    55  C   -0.479159
    56  H    0.096781
    57  H    0.183557
    58  H    0.161515
    59  N   -0.609681
    60  H    0.352434
    61  C   -0.088289
    62  H    0.159385
    63  C    0.587754
    64  C   -0.264921
    65  H    0.196037
    66  H    0.109347
    67  O   -0.549134
    68  C   -0.298073
    69  H    0.165378
    70  H    0.176982
    71  C   -0.179437
    72  H    0.187125
    73  H    0.183426
    74  N   -0.574259
    75  H    0.356944
    76  N   -0.757573
    77  H    0.370231
    78  H    0.400463
    79  N   -0.780181
    80  H    0.360507
    81  H    0.408651
    82  C    0.773981
    83  O   -0.633029
 Sum of Mulliken charges =   1.00000

 Dipole moment (field-independent basis, Debye):
    X=            -16.1962    Y=              2.8455    Z=             10.9900  Tot=             19.7786
 Quadrupole moment (field-independent basis, Debye-Ang):
   XX=           -208.2719   YY=           -168.5092   ZZ=           -138.3874
   XY=             36.2853   XZ=            -58.7958   YZ=            -58.0515

 Normal termination of Gaussian 16 at Sun Jul 10 18:07:13 2022.
