 Gaussian 16, Revision C.01,
 Gaussian 16:  ES64L-G16RevC.01  3-Jul-2019

 ----------------------------------------------------------------------
 # B3LYP/6-31G* empiricaldispersion=gd3bj guess=read geom=check nosymm
 integral(ultrafinegrid)
 ----------------------------------------------------------------------

 ------------------------------------------------------
 Candidate Structure: Conf:242 Charge calc in gas phase
 ------------------------------------------------------
 Structure from the checkpoint file:  "conf-242.chk"
 Charge =  1 Multiplicity = 1

                          Input orientation:
 ---------------------------------------------------------------------
 Center     Atomic      Atomic             Coordinates (Angstroms)
 Number     Number       Type             X           Y           Z
 ---------------------------------------------------------------------
      1          7           0       -5.444614    2.144418    3.564602
      2          1           0       -6.076818    2.933243    3.709166
      3          1           0       -4.638511    2.189063    4.206242
      4          1           0       -5.027844    2.167040    2.576038
      5          6           0       -6.105939    0.811169    3.805543
      6          1           0       -6.554686    0.863810    4.803981
      7          6           0       -4.877064   -0.131392    3.857948
      8          6           0       -7.192728    0.503228    2.754977
      9          1           0       -6.695038    0.097049    1.864003
     10          8           0       -3.817509    0.341459    4.283463
     11          6           0       -8.175990   -0.539225    3.316365
     12          1           0       -8.774621   -0.099036    4.122044
     13          1           0       -7.687198   -1.427147    3.731248
     14          1           0       -8.862403   -0.870928    2.532705
     15          6           0       -7.960419    1.761644    2.320237
     16          1           0       -8.412943    2.274617    3.178807
     17          1           0       -7.328221    2.468033    1.771469
     18          1           0       -8.776355    1.479370    1.649285
     19          7           0       -4.996231   -1.381224    3.381993
     20          1           0       -5.858148   -1.654090    2.928388
     21          6           0       -3.799528   -2.157386    2.988378
     22          1           0       -3.018321   -1.914744    3.710712
     23          6           0       -3.449666   -1.608790    1.586265
     24          6           0       -4.100240   -3.645882    2.969718
     25          1           0       -3.194969   -4.201027    2.710432
     26          1           0       -4.446135   -3.978966    3.951879
     27          1           0       -4.853525   -3.878253    2.211588
     28          8           0       -3.867637   -2.134376    0.563922
     29          7           0       -2.761698   -0.429849    1.597668
     30          1           0       -2.583924    0.022003    2.488384
     31          6           0       -2.696530    0.388261    0.389932
     32          1           0       -2.563148   -0.291328   -0.455386
     33          6           0       -1.505476    1.340507    0.543948
     34          6           0       -3.998601    1.181597    0.166287
     35          1           0       -3.959264    1.688411   -0.806005
     36          1           0       -4.845996    0.491590    0.160366
     37          8           0       -1.647432    2.388257    1.211434
     38          8           0       -4.215217    2.153946    1.199641
     39          1           0       -3.304976    2.548209    1.339706
     40          7           0       -0.361657    0.956783   -0.010235
     41          1           0       -0.318253    0.164683   -0.651478
     42          6           0        0.889934    1.702637    0.030906
     43          1           0        0.661262    2.769064    0.098776
     44          6           0        1.601706    1.374045   -1.295457
     45          6           0        1.794014    1.258809    1.202049
     46          1           0        2.766064    1.755815    1.087053
     47          1           0        1.979232    0.183505    1.079958
     48          8           0        1.252825    0.385833   -1.952530
     49          6           0        1.254131    1.534974    2.614580
     50          1           0        0.254600    1.084284    2.696559
     51          6           0        2.163900    0.856316    3.647188
     52          1           0        3.180085    1.266174    3.599294
     53          1           0        2.231411   -0.224304    3.475239
     54          1           0        1.789312    1.015345    4.664513
     55          6           0        1.130379    3.036341    2.899403
     56          1           0        2.101486    3.533459    2.783264
     57          1           0        0.408776    3.516633    2.233169
     58          1           0        0.793003    3.205989    3.928317
     59          7           0        2.610245    2.198647   -1.607550
     60          1           0        2.971420    2.850785   -0.903666
     61          6           0        3.691390    1.848309   -2.517317
     62          1           0        4.016861    0.820815   -2.303992
     63          6           0        4.867203    2.860199   -2.169889
     64          6           0        3.432586    2.012127   -3.999833
     65          1           0        4.374384    1.665111   -4.426743
     66          1           0        3.392402    3.093479   -4.162750
     67          8           0        5.669638    3.145268   -3.114388
     68          6           0        2.301316    1.381724   -4.803921
     69          1           0        2.161834    0.324534   -4.561702
     70          1           0        1.348700    1.878527   -4.592084
     71          6           0        2.665340    1.517244   -6.314991
     72          1           0        1.776762    1.596107   -6.946096
     73          1           0        3.230054    0.641626   -6.644341
     74          7           0        3.534560    2.701635   -6.583885
     75          1           0        3.235655    3.535101   -6.090664
     76          7           0        5.430691    1.765996   -7.508802
     77          1           0        6.394020    1.470254   -7.448841
     78          1           0        4.888795    1.477934   -8.310759
     79          7           0        5.659083    3.307916   -5.772013
     80          1           0        5.479398    3.342939   -4.707052
     81          1           0        6.647711    3.353079   -5.994690
     82          6           0        4.893598    2.595350   -6.594432
     83          8           0        4.860991    3.295907   -1.007591
 ---------------------------------------------------------------------

 SCF Done:  E(RB3LYP) =  -1868.15779613     A.U. after    1 cycles

 Alpha  occ. eigenvalues --  -19.26795 -19.26175 -19.22420 -19.22114 -19.18244
 Alpha  occ. eigenvalues --  -19.12738 -19.12026 -14.56753 -14.50125 -14.48328
 Alpha  occ. eigenvalues --  -14.46467 -14.46229 -14.45395 -14.44917 -14.40534
 Alpha  occ. eigenvalues --  -10.43468 -10.43030 -10.39551 -10.39166 -10.39153
 Alpha  occ. eigenvalues --  -10.34817 -10.34724 -10.34704 -10.34127 -10.33948
 Alpha  occ. eigenvalues --  -10.31503 -10.30794 -10.30609 -10.30494 -10.30463
 Alpha  occ. eigenvalues --  -10.27835 -10.26524 -10.25652 -10.25074 -10.24925
 Alpha  occ. eigenvalues --  -10.24269 -10.22749 -10.22406  -1.18723  -1.15219
 Alpha  occ. eigenvalues --   -1.14069  -1.12666  -1.11418  -1.11395  -1.09811
 Alpha  occ. eigenvalues --   -1.06432  -1.05688  -1.02991  -1.01706  -1.01016
 Alpha  occ. eigenvalues --   -0.99254  -0.98002  -0.96552  -0.94863  -0.89414
 Alpha  occ. eigenvalues --   -0.87877  -0.86218  -0.85961  -0.84726  -0.82389
 Alpha  occ. eigenvalues --   -0.81607  -0.80044  -0.77395  -0.74861  -0.74583
 Alpha  occ. eigenvalues --   -0.73603  -0.73193  -0.73106  -0.72812  -0.72601
 Alpha  occ. eigenvalues --   -0.71611  -0.69012  -0.68513  -0.68477  -0.67969
 Alpha  occ. eigenvalues --   -0.66518  -0.65923  -0.64805  -0.63654  -0.62969
 Alpha  occ. eigenvalues --   -0.62717  -0.62487  -0.61232  -0.60857  -0.60318
 Alpha  occ. eigenvalues --   -0.59464  -0.58631  -0.58081  -0.57479  -0.56943
 Alpha  occ. eigenvalues --   -0.56640  -0.55828  -0.55688  -0.55422  -0.54779
 Alpha  occ. eigenvalues --   -0.54540  -0.53857  -0.53367  -0.52972  -0.52639
 Alpha  occ. eigenvalues --   -0.52198  -0.51966  -0.51544  -0.50930  -0.50452
 Alpha  occ. eigenvalues --   -0.50335  -0.49668  -0.49593  -0.48829  -0.48492
 Alpha  occ. eigenvalues --   -0.48086  -0.48054  -0.47796  -0.47392  -0.47188
 Alpha  occ. eigenvalues --   -0.46980  -0.46861  -0.46586  -0.46456  -0.46151
 Alpha  occ. eigenvalues --   -0.45418  -0.44736  -0.44075  -0.43824  -0.43496
 Alpha  occ. eigenvalues --   -0.42060  -0.41485  -0.40696  -0.40656  -0.40238
 Alpha  occ. eigenvalues --   -0.39933  -0.39730  -0.39701  -0.38777  -0.38473
 Alpha  occ. eigenvalues --   -0.38292  -0.38241  -0.37186  -0.36255  -0.35509
 Alpha  occ. eigenvalues --   -0.35125  -0.34649  -0.32115  -0.31213  -0.28130
 Alpha  occ. eigenvalues --   -0.27176  -0.26297
 Alpha virt. eigenvalues --   -0.13560  -0.10222  -0.08602  -0.08068  -0.07206
 Alpha virt. eigenvalues --   -0.04788  -0.04044  -0.03589  -0.03305  -0.01917
 Alpha virt. eigenvalues --   -0.01155   0.00112   0.00197   0.00800   0.01093

 Mulliken charges:
               1
     1  N   -0.783303
     2  H    0.400172
     3  H    0.417488
     4  H    0.461181
     5  C   -0.101707
     6  H    0.219503
     7  C    0.644750
     8  C   -0.122635
     9  H    0.165017
    10  O   -0.537958
    11  C   -0.476614
    12  H    0.176716
    13  H    0.162030
    14  H    0.191277
    15  C   -0.489055
    16  H    0.161719
    17  H    0.166843
    18  H    0.197637
    19  N   -0.592055
    20  H    0.359762
    21  C   -0.077715
    22  H    0.202824
    23  C    0.614109
    24  C   -0.463293
    25  H    0.190186
    26  H    0.172386
    27  H    0.180221
    28  O   -0.506571
    29  N   -0.615765
    30  H    0.369651
    31  C   -0.082346
    32  H    0.201094
    33  C    0.637367
    34  C   -0.049570
    35  H    0.171232
    36  H    0.170750
    37  O   -0.579795
    38  O   -0.694581
    39  H    0.449084
    40  N   -0.582162
    41  H    0.365551
    42  C   -0.084501
    43  H    0.187669
    44  C    0.620383
    45  C   -0.265325
    46  H    0.175097
    47  H    0.144871
    48  O   -0.560842
    49  C   -0.067866
    50  H    0.110461
    51  C   -0.445824
    52  H    0.158208
    53  H    0.140298
    54  H    0.143796
    55  C   -0.459823
    56  H    0.153491
    57  H    0.162313
    58  H    0.139116
    59  N   -0.614215
    60  H    0.362242
    61  C   -0.068158
    62  H    0.157896
    63  C    0.605304
    64  C   -0.272515
    65  H    0.145177
    66  H    0.121494
    67  O   -0.619739
    68  C   -0.274153
    69  H    0.179658
    70  H    0.152259
    71  C   -0.170661
    72  H    0.176429
    73  H    0.168017
    74  N   -0.557329
    75  H    0.358795
    76  N   -0.723767
    77  H    0.372234
    78  H    0.376325
    79  N   -0.739601
    80  H    0.444261
    81  H    0.349210
    82  C    0.684878
    83  O   -0.558986
 Sum of Mulliken charges =   1.00000

 Dipole moment (field-independent basis, Debye):
    X=            -17.9894    Y=              3.4453    Z=             -2.9484  Tot=             18.5521
 Quadrupole moment (field-independent basis, Debye-Ang):
   XX=            -54.7086   YY=           -218.3006   ZZ=            -53.2442
   XY=            -30.5910   XZ=           -158.2281   YZ=            -18.4745

 Normal termination of Gaussian 16 at Sun Jul 10 18:05:54 2022.
