 Gaussian 16, Revision C.01,
 Gaussian 16:  ES64L-G16RevC.01  3-Jul-2019

 ----------------------------------------------------------------------
 # B3LYP/6-31G* empiricaldispersion=gd3bj guess=read geom=check nosymm
 integral(ultrafinegrid)
 ----------------------------------------------------------------------

 ------------------------------------------------------
 Candidate Structure: Conf:883 Charge calc in gas phase
 ------------------------------------------------------
 Structure from the checkpoint file:  "conf-883.chk"
 Charge =  1 Multiplicity = 1

                          Input orientation:
 ---------------------------------------------------------------------
 Center     Atomic      Atomic             Coordinates (Angstroms)
 Number     Number       Type             X           Y           Z
 ---------------------------------------------------------------------
      1          7           0       -5.183248    0.058396    4.762187
      2          1           0       -5.668049    0.695023    5.398280
      3          1           0       -4.255178   -0.189183    5.131227
      4          1           0       -4.976158    0.531551    3.826193
      5          6           0       -5.929731   -1.238600    4.555446
      6          1           0       -6.000166   -1.709199    5.542421
      7          6           0       -4.922450   -2.054781    3.718255
      8          6           0       -7.347877   -1.001922    4.008508
      9          1           0       -7.777357   -2.006502    3.887940
     10          8           0       -3.722514   -1.867273    3.938547
     11          6           0       -8.215006   -0.274395    5.049124
     12          1           0       -7.904747    0.770613    5.180788
     13          1           0       -8.187792   -0.770972    6.025256
     14          1           0       -9.256348   -0.248045    4.717127
     15          6           0       -7.389675   -0.276371    2.654862
     16          1           0       -6.997965    0.743795    2.733925
     17          1           0       -6.828904   -0.793976    1.871738
     18          1           0       -8.426825   -0.194859    2.317812
     19          7           0       -5.394193   -2.895875    2.783046
     20          1           0       -6.385549   -2.898587    2.581427
     21          6           0       -4.516837   -3.372984    1.692134
     22          1           0       -3.561287   -3.637845    2.148610
     23          6           0       -4.362790   -2.151153    0.755878
     24          6           0       -5.143342   -4.561787    0.983571
     25          1           0       -4.462421   -4.933427    0.213353
     26          1           0       -5.343323   -5.370433    1.691879
     27          1           0       -6.070540   -4.264425    0.485129
     28          8           0       -5.164262   -1.925938   -0.143700
     29          7           0       -3.346072   -1.309808    1.087203
     30          1           0       -2.879453   -1.451530    1.977518
     31          6           0       -3.266812    0.027147    0.504838
     32          1           0       -3.410539   -0.062014   -0.574977
     33          6           0       -1.887072    0.582837    0.862918
     34          6           0       -4.355552    0.966998    1.063438
     35          1           0       -4.268706    1.950639    0.584582
     36          1           0       -5.339410    0.556592    0.838582
     37          8           0       -1.669779    0.901506    2.051698
     38          8           0       -4.240358    1.111728    2.486410
     39          1           0       -3.256925    1.172767    2.641423
     40          7           0       -0.991940    0.669790   -0.114845
     41          1           0       -1.251030    0.518568   -1.089632
     42          6           0        0.345962    1.234720    0.019458
     43          1           0        0.335523    1.962076    0.834840
     44          6           0        0.625055    1.924850   -1.328472
     45          6           0        1.413521    0.149373    0.269253
     46          1           0        2.398768    0.632267    0.231744
     47          1           0        1.375205   -0.548080   -0.577805
     48          8           0       -0.027840    1.604775   -2.332022
     49          6           0        1.285467   -0.627519    1.589639
     50          1           0        0.270571   -1.046061    1.644824
     51          6           0        2.279314   -1.796468    1.591270
     52          1           0        3.311577   -1.430326    1.529892
     53          1           0        2.111746   -2.468439    0.741409
     54          1           0        2.190849   -2.384881    2.511169
     55          6           0        1.500823    0.273980    2.811019
     56          1           0        2.488223    0.751058    2.771734
     57          1           0        0.737006    1.053104    2.878591
     58          1           0        1.454104   -0.313612    3.734846
     59          7           0        1.611143    2.823613   -1.316327
     60          1           0        2.213417    2.988681   -0.505391
     61          6           0        2.172434    3.425233   -2.513415
     62          1           0        2.389711    2.621514   -3.229798
     63          6           0        3.546813    4.035932   -2.078011
     64          6           0        1.193191    4.432427   -3.185326
     65          1           0        1.621313    5.442295   -3.165330
     66          1           0        0.290643    4.467841   -2.570770
     67          8           0        4.211835    4.603006   -3.016947
     68          6           0        0.783548    4.051751   -4.621653
     69          1           0        0.674545    2.962952   -4.675407
     70          1           0       -0.200274    4.477756   -4.851693
     71          6           0        1.748646    4.549107   -5.711405
     72          1           0        1.636453    5.631353   -5.843769
     73          1           0        1.503222    4.082851   -6.671933
     74          7           0        3.138199    4.293196   -5.353850
     75          1           0        3.465012    4.598166   -4.377501
     76          7           0        3.883850    3.040798   -7.203276
     77          1           0        4.346241    2.182268   -7.464211
     78          1           0        3.073995    3.298158   -7.745748
     79          7           0        5.087088    3.099956   -5.213568
     80          1           0        5.150750    3.511908   -4.272657
     81          1           0        5.950551    2.910669   -5.703221
     82          6           0        4.008211    3.489354   -5.929841
     83          8           0        3.880991    3.899188   -0.896768
 ---------------------------------------------------------------------

 SCF Done:  E(RB3LYP) =  -1868.20105849     A.U. after    3 cycles

 Alpha  occ. eigenvalues --  -19.26661 -19.25944 -19.22351 -19.22030 -19.18381
 Alpha  occ. eigenvalues --  -19.14671 -19.13832 -14.57405 -14.50041 -14.46434
 Alpha  occ. eigenvalues --  -14.46341 -14.45598 -14.43949 -14.43593 -14.41171
 Alpha  occ. eigenvalues --  -10.43266 -10.41326 -10.39609 -10.39150 -10.39063
 Alpha  occ. eigenvalues --  -10.35148 -10.34744 -10.34311 -10.34255 -10.33887
 Alpha  occ. eigenvalues --  -10.32195 -10.30762 -10.30747 -10.30653 -10.30189
 Alpha  occ. eigenvalues --  -10.28014 -10.27551 -10.25493 -10.25380 -10.25179
 Alpha  occ. eigenvalues --  -10.24601 -10.23088 -10.22646  -1.18554  -1.15104
 Alpha  occ. eigenvalues --   -1.13910  -1.12737  -1.11696  -1.10154  -1.10035
 Alpha  occ. eigenvalues --   -1.07521  -1.06317  -1.02831  -1.01932  -1.00180
 Alpha  occ. eigenvalues --   -0.98992  -0.97932  -0.97627  -0.94940  -0.89457
 Alpha  occ. eigenvalues --   -0.88131  -0.86047  -0.86020  -0.84903  -0.82568
 Alpha  occ. eigenvalues --   -0.81704  -0.79722  -0.77393  -0.74892  -0.74432
 Alpha  occ. eigenvalues --   -0.73883  -0.73665  -0.72793  -0.72079  -0.71502
 Alpha  occ. eigenvalues --   -0.71439  -0.69960  -0.68633  -0.68126  -0.66946
 Alpha  occ. eigenvalues --   -0.66785  -0.66114  -0.63954  -0.63627  -0.63001
 Alpha  occ. eigenvalues --   -0.62778  -0.61615  -0.61081  -0.60475  -0.59613
 Alpha  occ. eigenvalues --   -0.59237  -0.58788  -0.58067  -0.57709  -0.57579
 Alpha  occ. eigenvalues --   -0.56840  -0.56196  -0.55857  -0.55348  -0.54845
 Alpha  occ. eigenvalues --   -0.54083  -0.53969  -0.53073  -0.52604  -0.52460
 Alpha  occ. eigenvalues --   -0.52153  -0.51793  -0.51473  -0.50963  -0.50826
 Alpha  occ. eigenvalues --   -0.50292  -0.49991  -0.49607  -0.49046  -0.48949
 Alpha  occ. eigenvalues --   -0.48647  -0.48349  -0.47909  -0.47566  -0.47377
 Alpha  occ. eigenvalues --   -0.47310  -0.46782  -0.46672  -0.46385  -0.45951
 Alpha  occ. eigenvalues --   -0.45789  -0.44749  -0.44602  -0.44475  -0.43909
 Alpha  occ. eigenvalues --   -0.42567  -0.41937  -0.41216  -0.40875  -0.40666
 Alpha  occ. eigenvalues --   -0.39864  -0.39711  -0.39463  -0.39033  -0.38743
 Alpha  occ. eigenvalues --   -0.38572  -0.37073  -0.37044  -0.35557  -0.35263
 Alpha  occ. eigenvalues --   -0.34657  -0.33936  -0.32472  -0.31647  -0.30071
 Alpha  occ. eigenvalues --   -0.29112  -0.28079
 Alpha virt. eigenvalues --   -0.13328  -0.08927  -0.08427  -0.07576  -0.06192
 Alpha virt. eigenvalues --   -0.04898  -0.04085  -0.02884  -0.02791  -0.02011
 Alpha virt. eigenvalues --   -0.01042  -0.00005   0.00344   0.00512   0.01267

 Mulliken charges:
               1
     1  N   -0.778390
     2  H    0.401185
     3  H    0.418152
     4  H    0.467368
     5  C   -0.114916
     6  H    0.221073
     7  C    0.655588
     8  C   -0.124672
     9  H    0.169539
    10  O   -0.539509
    11  C   -0.472880
    12  H    0.148288
    13  H    0.171378
    14  H    0.196836
    15  C   -0.491146
    16  H    0.164874
    17  H    0.179194
    18  H    0.191188
    19  N   -0.592875
    20  H    0.356889
    21  C   -0.070300
    22  H    0.196515
    23  C    0.620060
    24  C   -0.470497
    25  H    0.189455
    26  H    0.172891
    27  H    0.182326
    28  O   -0.520889
    29  N   -0.608337
    30  H    0.375434
    31  C   -0.074461
    32  H    0.194774
    33  C    0.631616
    34  C   -0.047415
    35  H    0.168727
    36  H    0.183404
    37  O   -0.578111
    38  O   -0.697729
    39  H    0.444365
    40  N   -0.584505
    41  H    0.365027
    42  C   -0.083315
    43  H    0.187034
    44  C    0.623513
    45  C   -0.257673
    46  H    0.162156
    47  H    0.144277
    48  O   -0.565222
    49  C   -0.068237
    50  H    0.116372
    51  C   -0.445300
    52  H    0.152741
    53  H    0.140583
    54  H    0.146284
    55  C   -0.459657
    56  H    0.148421
    57  H    0.164481
    58  H    0.142245
    59  N   -0.622208
    60  H    0.362745
    61  C   -0.048747
    62  H    0.153679
    63  C    0.605186
    64  C   -0.292191
    65  H    0.164021
    66  H    0.164031
    67  O   -0.637263
    68  C   -0.271307
    69  H    0.171178
    70  H    0.149282
    71  C   -0.160397
    72  H    0.181079
    73  H    0.137817
    74  N   -0.610214
    75  H    0.431487
    76  N   -0.756498
    77  H    0.364916
    78  H    0.366677
    79  N   -0.779018
    80  H    0.407297
    81  H    0.351324
    82  C    0.752897
    83  O   -0.533991
 Sum of Mulliken charges =   1.00000

 Dipole moment (field-independent basis, Debye):
    X=            -19.1690    Y=             -1.9500    Z=              2.6121  Tot=             19.4442
 Quadrupole moment (field-independent basis, Debye-Ang):
   XX=            -73.0197   YY=           -211.5344   ZZ=            -53.2894
   XY=             12.0374   XZ=           -149.6669   YZ=            -46.9611

 Normal termination of Gaussian 16 at Sun Jul 10 18:06:51 2022.
