 Gaussian 16, Revision C.01,
 Gaussian 16:  ES64L-G16RevC.01  3-Jul-2019

 ----------------------------------------------------------------------
 # B3LYP/6-31G* empiricaldispersion=gd3bj guess=read geom=check nosymm
 integral(ultrafinegrid)
 ----------------------------------------------------------------------

 ------------------------------------------------------
 Candidate Structure: Conf:474 Charge calc in gas phase
 ------------------------------------------------------
 Structure from the checkpoint file:  "conf-474.chk"
 Charge =  1 Multiplicity = 1

                          Input orientation:
 ---------------------------------------------------------------------
 Center     Atomic      Atomic             Coordinates (Angstroms)
 Number     Number       Type             X           Y           Z
 ---------------------------------------------------------------------
      1          7           0       -8.955331    1.008920    6.324816
      2          1           0       -9.025943    0.517939    7.219571
      3          1           0       -8.298376    1.845752    6.432037
      4          1           0       -9.890829    1.307841    6.037478
      5          6           0       -8.237934    0.205949    5.256983
      6          1           0       -8.156867   -0.825966    5.605319
      7          6           0       -6.852434    0.901629    5.211853
      8          6           0       -9.022737    0.266253    3.923940
      9          1           0      -10.047486   -0.047486    4.174936
     10          8           0       -6.747692    2.002154    5.781621
     11          6           0       -9.064628    1.684669    3.338545
     12          1           0       -8.064617    2.017452    3.042808
     13          1           0       -9.470029    2.431050    4.032936
     14          1           0       -9.697566    1.696447    2.447272
     15          6           0       -8.480302   -0.746312    2.904916
     16          1           0       -7.497649   -0.463920    2.516355
     17          1           0       -8.408429   -1.753602    3.330491
     18          1           0       -9.163127   -0.798091    2.052299
     19          7           0       -5.894407    0.278793    4.548713
     20          1           0       -6.055849   -0.583535    4.020859
     21          6           0       -4.588774    0.854886    4.235665
     22          1           0       -4.728118    1.908227    3.968989
     23          6           0       -4.125962    0.058281    2.993922
     24          6           0       -3.612876    0.744706    5.413078
     25          1           0       -2.645603    1.185801    5.155729
     26          1           0       -4.013075    1.280531    6.277777
     27          1           0       -3.452631   -0.303692    5.682124
     28          8           0       -4.803391   -0.897820    2.593487
     29          7           0       -2.986658    0.468885    2.434495
     30          1           0       -2.419767    1.220419    2.825454
     31          6           0       -2.341765   -0.199898    1.319146
     32          1           0       -2.400212   -1.284721    1.451739
     33          6           0       -0.889888    0.281642    1.325572
     34          6           0       -3.021234    0.161343   -0.034628
     35          1           0       -4.059148   -0.180369    0.021358
     36          1           0       -3.015930    1.254617   -0.140985
     37          8           0       -0.548389    1.246241    2.011362
     38          8           0       -2.396427   -0.476553   -1.122270
     39          1           0       -1.692447    0.135061   -1.447130
     40          7           0       -0.065904   -0.412533    0.504266
     41          1           0       -0.548543   -1.025916   -0.147485
     42          6           0        1.153172    0.201928    0.005867
     43          1           0        1.593794    0.758282    0.835867
     44          6           0        0.799270    1.208599   -1.112157
     45          6           0        2.132479   -0.868886   -0.500251
     46          1           0        3.038193   -0.366594   -0.861436
     47          1           0        1.689016   -1.363124   -1.376234
     48          8           0       -0.331653    1.259320   -1.624715
     49          6           0        2.520258   -1.926981    0.546280
     50          1           0        1.604068   -2.451530    0.850045
     51          6           0        3.472157   -2.951035   -0.083783
     52          1           0        4.411486   -2.474257   -0.390699
     53          1           0        3.028806   -3.417418   -0.971202
     54          1           0        3.719321   -3.746726    0.627493
     55          6           0        3.141465   -1.297375    1.799017
     56          1           0        4.021316   -0.694617    1.538946
     57          1           0        2.433033   -0.652556    2.330053
     58          1           0        3.467826   -2.073907    2.499448
     59          7           0        1.807086    1.995139   -1.495507
     60          1           0        2.731542    1.950393   -1.069334
     61          6           0        1.767339    2.924350   -2.613757
     62          1           0        1.212074    2.476207   -3.440528
     63          6           0        3.228725    3.172682   -3.040774
     64          6           0        1.084925    4.256816   -2.199191
     65          1           0        1.403067    4.490276   -1.174584
     66          1           0        0.006529    4.077597   -2.157738
     67          8           0        3.354057    3.595912   -4.241298
     68          6           0        1.402347    5.447825   -3.124088
     69          1           0        1.513318    5.097206   -4.152761
     70          1           0        0.576552    6.170160   -3.099399
     71          6           0        2.699231    6.155882   -2.692043
     72          1           0        3.473130    5.443579   -2.405737
     73          1           0        2.505419    6.775988   -1.808721
     74          7           0        3.271923    7.035340   -3.716526
     75          1           0        2.741539    7.857501   -3.971839
     76          7           0        4.899203    5.575146   -4.530658
     77          1           0        5.799883    5.496444   -4.984281
     78          1           0        4.317049    4.630924   -4.355763
     79          7           0        4.834356    7.815564   -5.214803
     80          1           0        4.791622    8.745045   -4.820492
     81          1           0        5.610358    7.643931   -5.837452
     82          6           0        4.347664    6.768571   -4.480630
     83          8           0        4.113886    3.045095   -2.178085
 ---------------------------------------------------------------------

 SCF Done:  E(RB3LYP) =  -1868.18643876     A.U. after    2 cycles

 Alpha  occ. eigenvalues --  -19.26712 -19.21552 -19.18851 -19.18850 -19.17340
 Alpha  occ. eigenvalues --  -19.13679 -19.13009 -14.59715 -14.48972 -14.45383
 Alpha  occ. eigenvalues --  -14.45126 -14.44819 -14.41797 -14.41738 -14.40230
 Alpha  occ. eigenvalues --  -10.43285 -10.40542 -10.40346 -10.38506 -10.35429
 Alpha  occ. eigenvalues --  -10.34422 -10.34393 -10.33879 -10.31007 -10.30377
 Alpha  occ. eigenvalues --  -10.30080 -10.29490 -10.29350 -10.28641 -10.28620
 Alpha  occ. eigenvalues --  -10.28062 -10.25949 -10.24032 -10.23732 -10.23653
 Alpha  occ. eigenvalues --  -10.23373 -10.21752 -10.21553  -1.19183  -1.13850
 Alpha  occ. eigenvalues --   -1.13273  -1.10783  -1.09151  -1.08678  -1.06865
 Alpha  occ. eigenvalues --   -1.06520  -1.05865  -1.01438  -0.98964  -0.98934
 Alpha  occ. eigenvalues --   -0.98683  -0.96691  -0.96167  -0.95121  -0.89008
 Alpha  occ. eigenvalues --   -0.86495  -0.85243  -0.84800  -0.82763  -0.81202
 Alpha  occ. eigenvalues --   -0.80468  -0.78130  -0.76984  -0.75305  -0.73622
 Alpha  occ. eigenvalues --   -0.73325  -0.72720  -0.72470  -0.70815  -0.70102
 Alpha  occ. eigenvalues --   -0.69336  -0.68953  -0.67085  -0.66459  -0.66329
 Alpha  occ. eigenvalues --   -0.65122  -0.64263  -0.63304  -0.62754  -0.62448
 Alpha  occ. eigenvalues --   -0.61909  -0.60867  -0.59950  -0.59445  -0.58412
 Alpha  occ. eigenvalues --   -0.58081  -0.57922  -0.56882  -0.56608  -0.55162
 Alpha  occ. eigenvalues --   -0.55108  -0.54599  -0.54102  -0.53839  -0.53048
 Alpha  occ. eigenvalues --   -0.52727  -0.52254  -0.51885  -0.51385  -0.50742
 Alpha  occ. eigenvalues --   -0.50595  -0.50308  -0.50046  -0.49703  -0.49607
 Alpha  occ. eigenvalues --   -0.48723  -0.48549  -0.48193  -0.47931  -0.47591
 Alpha  occ. eigenvalues --   -0.47118  -0.47030  -0.46979  -0.46676  -0.46309
 Alpha  occ. eigenvalues --   -0.45863  -0.45255  -0.44974  -0.44396  -0.43924
 Alpha  occ. eigenvalues --   -0.43225  -0.42975  -0.42796  -0.42179  -0.41767
 Alpha  occ. eigenvalues --   -0.41243  -0.40957  -0.40552  -0.39251  -0.39134
 Alpha  occ. eigenvalues --   -0.38474  -0.38060  -0.37380  -0.37210  -0.37113
 Alpha  occ. eigenvalues --   -0.36028  -0.36006  -0.35670  -0.33296  -0.33191
 Alpha  occ. eigenvalues --   -0.32648  -0.31673  -0.30944  -0.30366  -0.29174
 Alpha  occ. eigenvalues --   -0.27964  -0.27154
 Alpha virt. eigenvalues --   -0.12107  -0.11060  -0.07159  -0.06702  -0.05567
 Alpha virt. eigenvalues --   -0.04724  -0.04346  -0.02820  -0.02370  -0.01124
 Alpha virt. eigenvalues --   -0.00428   0.00576   0.01079   0.01522   0.01824

 Mulliken charges:
               1
     1  N   -0.762581
     2  H    0.415919
     3  H    0.435593
     4  H    0.410916
     5  C   -0.105069
     6  H    0.211630
     7  C    0.649420
     8  C   -0.112351
     9  H    0.158350
    10  O   -0.551184
    11  C   -0.469601
    12  H    0.185162
    13  H    0.140605
    14  H    0.195113
    15  C   -0.482067
    16  H    0.193802
    17  H    0.166205
    18  H    0.189341
    19  N   -0.602350
    20  H    0.385273
    21  C   -0.063828
    22  H    0.196783
    23  C    0.634469
    24  C   -0.454295
    25  H    0.183482
    26  H    0.183847
    27  H    0.172829
    28  O   -0.551920
    29  N   -0.623560
    30  H    0.365407
    31  C   -0.070874
    32  H    0.189634
    33  C    0.607490
    34  C   -0.032583
    35  H    0.163101
    36  H    0.142841
    37  O   -0.544112
    38  O   -0.651084
    39  H    0.446252
    40  N   -0.589467
    41  H    0.345340
    42  C   -0.092939
    43  H    0.193887
    44  C    0.648036
    45  C   -0.282846
    46  H    0.158660
    47  H    0.144810
    48  O   -0.583296
    49  C   -0.062524
    50  H    0.130624
    51  C   -0.445435
    52  H    0.148515
    53  H    0.145021
    54  H    0.147701
    55  C   -0.458508
    56  H    0.145909
    57  H    0.152506
    58  H    0.148944
    59  N   -0.603261
    60  H    0.355552
    61  C   -0.010573
    62  H    0.172465
    63  C    0.583246
    64  C   -0.282508
    65  H    0.142278
    66  H    0.164738
    67  O   -0.632049
    68  C   -0.270540
    69  H    0.184765
    70  H    0.127383
    71  C   -0.176787
    72  H    0.218972
    73  H    0.158774
    74  N   -0.595808
    75  H    0.343347
    76  N   -0.764921
    77  H    0.338249
    78  H    0.459418
    79  N   -0.761589
    80  H    0.355948
    81  H    0.357894
    82  C    0.760790
    83  O   -0.566726
 Sum of Mulliken charges =   1.00000

 Dipole moment (field-independent basis, Debye):
    X=            -25.5973    Y=             15.0408    Z=             15.9191  Tot=             33.6877
 Quadrupole moment (field-independent basis, Debye-Ang):
   XX=            107.3966   YY=            -96.8133   ZZ=            -65.2742
   XY=             40.0461   XZ=           -231.6979   YZ=            -60.7986

 Normal termination of Gaussian 16 at Sun Jul 10 18:06:48 2022.
