 Gaussian 16, Revision C.01,
 Gaussian 16:  ES64L-G16RevC.01  3-Jul-2019

 -------------------------------------------------------------------
 # B3LYP/6-31G* guess=read geom=check nosymm integral(ultrafinegrid)
 -------------------------------------------------------------------

 ------------------------------------------------------
 Candidate Structure: Conf:605 Charge calc in gas phase
 ------------------------------------------------------
 Structure from the checkpoint file:  "conf-605.chk"
 Charge =  1 Multiplicity = 1

                          Input orientation:
 ---------------------------------------------------------------------
 Center     Atomic      Atomic             Coordinates (Angstroms)
 Number     Number       Type             X           Y           Z
 ---------------------------------------------------------------------
      1          7           0       -3.597032   -1.434130    3.208733
      2          1           0       -4.114409   -1.982463    2.523459
      3          1           0       -2.635877   -1.770441    3.166364
      4          6           0       -3.613675   -0.030207    2.830116
      5          1           0       -4.663591    0.276042    2.731611
      6          6           0       -2.917216    0.240105    1.481875
      7          6           0       -2.998066    0.843561    3.963202
      8          1           0       -3.635119    0.689023    4.840018
      9          1           0       -3.081497    1.900657    3.683282
     10          8           0       -2.087835   -0.541001    1.001417
     11          6           0       -1.558809    0.522792    4.311196
     12          6           0       -1.255273   -0.521859    5.197303
     13          1           0       -2.065196   -1.100035    5.634044
     14          6           0       -0.504035    1.272996    3.770747
     15          1           0       -0.717164    2.091717    3.087984
     16          6           0        0.068624   -0.816431    5.528290
     17          1           0        0.283286   -1.624708    6.222295
     18          6           0        0.819973    0.983760    4.108938
     19          1           0        1.623172    1.593029    3.701371
     20          6           0        1.111254   -0.063241    4.986067
     21          1           0        2.140902   -0.280556    5.257432
     22          7           0       -3.270666    1.376048    0.832197
     23          1           0       -3.891248    2.031637    1.288509
     24          6           0       -2.652748    1.785554   -0.426425
     25          1           0       -2.809827    0.980289   -1.152630
     26          6           0       -1.142048    2.000433   -0.209358
     27          6           0       -3.316972    3.087823   -0.908854
     28          1           0       -4.403679    2.924313   -0.934637
     29          1           0       -3.117998    3.855122   -0.149310
     30          8           0       -0.715020    2.743074    0.667039
     31          6           0       -2.855970    3.610406   -2.284031
     32          1           0       -1.763745    3.734582   -2.253396
     33          6           0       -3.197053    2.644120   -3.429279
     34          1           0       -4.277728    2.459331   -3.478450
     35          1           0       -2.890165    3.065091   -4.393147
     36          1           0       -2.696855    1.674025   -3.325277
     37          6           0       -3.474415    4.993051   -2.541731
     38          1           0       -4.569519    4.933667   -2.580256
     39          1           0       -3.204591    5.705561   -1.754067
     40          1           0       -3.131423    5.403438   -3.497804
     41          7           0       -0.317893    1.341737   -1.075947
     42          1           0       -0.680789    0.635230   -1.703219
     43          6           0        1.116462    1.363826   -0.888042
     44          1           0        1.394658    2.373853   -0.573845
     45          6           0        1.794003    0.967725   -2.196748
     46          6           0        1.586368    0.379788    0.236497
     47          1           0        2.638687    0.572501    0.465115
     48          1           0        0.993762    0.591020    1.130193
     49          8           0        1.236825    0.168810   -2.964461
     50          6           0        1.486010   -1.077949   -0.192292
     51          7           0        0.361286   -1.728369    0.132800
     52          1           0        0.256571   -2.690300   -0.162734
     53          1           0       -0.432605   -1.280986    0.594941
     54          8           0        2.417732   -1.594523   -0.839219
     55          7           0        3.034177    1.454723   -2.405895
     56          1           0        3.446706    2.075417   -1.720830
     57          6           0        3.934935    0.833359   -3.376265
     58          1           0        3.913050   -0.245803   -3.188733
     59          6           0        5.387009    1.235487   -3.142813
     60          6           0        3.537149    1.101907   -4.858761
     61          1           0        4.100438    1.964132   -5.228629
     62          1           0        2.480330    1.381604   -4.879323
     63          8           0        6.290560    0.863403   -3.852105
     64          6           0        3.777295   -0.096489   -5.797201
     65          1           0        3.831329    0.274816   -6.827841
     66          1           0        4.750351   -0.552475   -5.582086
     67          6           0        2.662144   -1.157373   -5.779853
     68          1           0        1.699448   -0.686689   -6.001917
     69          1           0        2.827366   -1.890660   -6.575867
     70          7           0        2.482251   -1.851430   -4.497015
     71          1           0        1.975544   -1.304477   -3.791003
     72          7           0        3.748968   -3.751236   -4.989615
     73          1           0        4.094659   -4.658323   -4.713670
     74          1           0        3.705098   -3.573591   -5.980892
     75          7           0        2.900610   -3.424835   -2.854861
     76          1           0        3.361269   -4.276683   -2.567644
     77          1           0        2.605597   -2.784481   -2.093864
     78          6           0        3.041826   -3.000613   -4.116737
     79          8           0        5.556384    2.037352   -2.067909
     80          1           0        6.510113    2.238560   -2.000210
 ---------------------------------------------------------------------

 SCF Done:  E(RB3LYP) =  -1866.64437205     A.U. after    1 cycles

 Alpha  occ. eigenvalues --  -19.31168 -19.24816 -19.24238 -19.22218 -19.20844
 Alpha  occ. eigenvalues --  -19.20385 -14.50857 -14.49440 -14.48657 -14.48162
 Alpha  occ. eigenvalues --  -14.45417 -14.45077 -14.45017 -14.38286 -10.46508
 Alpha  occ. eigenvalues --  -10.43383 -10.40982 -10.39500 -10.37532 -10.37071
 Alpha  occ. eigenvalues --  -10.35566 -10.35180 -10.34589 -10.32200 -10.30010
 Alpha  occ. eigenvalues --  -10.30007 -10.29984 -10.29638 -10.27152 -10.26909
 Alpha  occ. eigenvalues --  -10.25964 -10.25545 -10.25019 -10.24835 -10.24714
 Alpha  occ. eigenvalues --  -10.24642 -10.24443 -10.24438 -10.24237  -1.21828
 Alpha  occ. eigenvalues --   -1.15970  -1.14763  -1.13251  -1.12862  -1.12801
 Alpha  occ. eigenvalues --   -1.11882  -1.04714  -1.04274  -1.02722  -1.02087
 Alpha  occ. eigenvalues --   -1.01277  -1.00085  -0.96042  -0.91624  -0.91061
 Alpha  occ. eigenvalues --   -0.89516  -0.88358  -0.86253  -0.84287  -0.82841
 Alpha  occ. eigenvalues --   -0.81192  -0.79987  -0.78609  -0.77870  -0.77249
 Alpha  occ. eigenvalues --   -0.75630  -0.73826  -0.73427  -0.72327  -0.71735
 Alpha  occ. eigenvalues --   -0.70608  -0.70064  -0.69274  -0.68170  -0.67761
 Alpha  occ. eigenvalues --   -0.67025  -0.66138  -0.65486  -0.64060  -0.63904
 Alpha  occ. eigenvalues --   -0.63430  -0.63137  -0.62741  -0.61426  -0.60017
 Alpha  occ. eigenvalues --   -0.59432  -0.59097  -0.58733  -0.58281  -0.58263
 Alpha  occ. eigenvalues --   -0.57397  -0.57072  -0.56583  -0.56393  -0.56243
 Alpha  occ. eigenvalues --   -0.55142  -0.54930  -0.54291  -0.54053  -0.53175
 Alpha  occ. eigenvalues --   -0.52761  -0.51825  -0.51647  -0.51526  -0.50913
 Alpha  occ. eigenvalues --   -0.50500  -0.50304  -0.50054  -0.49755  -0.49616
 Alpha  occ. eigenvalues --   -0.49146  -0.48619  -0.48187  -0.47739  -0.47444
 Alpha  occ. eigenvalues --   -0.47382  -0.46552  -0.46465  -0.45894  -0.45546
 Alpha  occ. eigenvalues --   -0.45425  -0.45264  -0.44730  -0.44156  -0.43909
 Alpha  occ. eigenvalues --   -0.43383  -0.42884  -0.41381  -0.41164  -0.40708
 Alpha  occ. eigenvalues --   -0.40250  -0.40135  -0.39531  -0.39305  -0.39214
 Alpha  occ. eigenvalues --   -0.38933  -0.37737  -0.37539  -0.36902  -0.36288
 Alpha  occ. eigenvalues --   -0.35799  -0.35136  -0.34383  -0.33265  -0.31356
 Alpha  occ. eigenvalues --   -0.30702  -0.29882
 Alpha virt. eigenvalues --   -0.10724  -0.10085  -0.09704  -0.08255  -0.07426
 Alpha virt. eigenvalues --   -0.07025  -0.06475  -0.06188  -0.05542  -0.03953
 Alpha virt. eigenvalues --   -0.03552  -0.01232  -0.00703  -0.00559  -0.00072

 Mulliken charges:
               1
     1  N   -0.689725
     2  H    0.305773
     3  H    0.312935
     4  C   -0.090963
     5  H    0.151643
     6  C    0.628627
     7  C   -0.343383
     8  H    0.179279
     9  H    0.146280
    10  O   -0.572729
    11  C    0.147013
    12  C   -0.187718
    13  H    0.152331
    14  C   -0.203025
    15  H    0.165325
    16  C   -0.130529
    17  H    0.139956
    18  C   -0.144745
    19  H    0.127249
    20  C   -0.130253
    21  H    0.133936
    22  N   -0.603310
    23  H    0.344659
    24  C   -0.015146
    25  H    0.154864
    26  C    0.646432
    27  C   -0.306180
    28  H    0.149974
    29  H    0.166755
    30  O   -0.530402
    31  C   -0.083278
    32  H    0.135480
    33  C   -0.447805
    34  H    0.152723
    35  H    0.154911
    36  H    0.128225
    37  C   -0.446341
    38  H    0.149864
    39  H    0.153969
    40  H    0.152761
    41  N   -0.607201
    42  H    0.351673
    43  C   -0.070205
    44  H    0.196360
    45  C    0.670845
    46  C   -0.364458
    47  H    0.177670
    48  H    0.218256
    49  O   -0.580919
    50  C    0.606240
    51  N   -0.755842
    52  H    0.339913
    53  H    0.423663
    54  O   -0.573286
    55  N   -0.622484
    56  H    0.372042
    57  C   -0.037847
    58  H    0.197051
    59  C    0.588657
    60  C   -0.281715
    61  H    0.179116
    62  H    0.179256
    63  O   -0.439935
    64  C   -0.278100
    65  H    0.172083
    66  H    0.179349
    67  C   -0.171860
    68  H    0.196802
    69  H    0.157397
    70  N   -0.625354
    71  H    0.416410
    72  N   -0.761655
    73  H    0.373961
    74  H    0.378895
    75  N   -0.795263
    76  H    0.357984
    77  H    0.425432
    78  C    0.794332
    79  O   -0.579810
    80  H    0.437118
 Sum of Mulliken charges =   1.00000

 Dipole moment (field-independent basis, Debye):
    X=              8.3365    Y=             -5.3217    Z=            -14.5982  Tot=             17.6331
 Quadrupole moment (field-independent basis, Debye-Ang):
   XX=           -156.8171   YY=           -172.2194   ZZ=           -150.6037
   XY=            -29.5851   XZ=            -44.6149   YZ=             29.6257

 Normal termination of Gaussian 16 at Sun Jun 19 01:46:49 2022.
