 Gaussian 16, Revision C.01,
 Gaussian 16:  ES64L-G16RevC.01  3-Jul-2019

 -------------------------------------------------------------------
 # B3LYP/6-31G* guess=read geom=check nosymm integral(ultrafinegrid)
 -------------------------------------------------------------------

 ------------------------------------------------------
 Candidate Structure: Conf:535 Charge calc in gas phase
 ------------------------------------------------------
 Structure from the checkpoint file:  "conf-535.chk"
 Charge =  1 Multiplicity = 1

                          Input orientation:
 ---------------------------------------------------------------------
 Center     Atomic      Atomic             Coordinates (Angstroms)
 Number     Number       Type             X           Y           Z
 ---------------------------------------------------------------------
      1          7           0       -1.394613    0.457493    3.701017
      2          1           0       -1.420902    0.692022    4.693107
      3          1           0       -1.438920   -0.559002    3.629424
      4          6           0       -2.609127    1.000048    3.059663
      5          1           0       -3.524682    0.642527    3.561874
      6          6           0       -2.655498    0.384599    1.649280
      7          6           0       -2.608321    2.541593    3.125814
      8          1           0       -3.516571    2.916919    2.635571
      9          1           0       -1.742178    2.920835    2.569858
     10          8           0       -2.344439   -0.802276    1.500861
     11          6           0       -2.577393    3.065976    4.549105
     12          6           0       -3.742285    3.070361    5.330093
     13          1           0       -4.680282    2.723326    4.901093
     14          6           0       -1.386257    3.533471    5.119450
     15          1           0       -0.477447    3.549012    4.521831
     16          6           0       -3.715956    3.526155    6.647872
     17          1           0       -4.628936    3.527469    7.236570
     18          6           0       -1.356718    3.991738    6.438314
     19          1           0       -0.425477    4.356796    6.862553
     20          6           0       -2.521629    3.987568    7.206120
     21          1           0       -2.501492    4.346815    8.230905
     22          7           0       -3.043170    1.165042    0.607243
     23          1           0       -3.180898    2.155659    0.754402
     24          6           0       -3.007889    0.696473   -0.791221
     25          1           0       -3.291523   -0.358604   -0.768710
     26          6           0       -1.533668    0.820162   -1.240827
     27          6           0       -3.976069    1.506073   -1.654309
     28          1           0       -4.955557    1.498424   -1.158069
     29          1           0       -3.628282    2.546926   -1.678102
     30          8           0       -1.124696    1.802859   -1.878628
     31          6           0       -4.136018    0.999030   -3.103386
     32          1           0       -3.136790    0.966884   -3.559408
     33          6           0       -4.746076   -0.409746   -3.172324
     34          1           0       -5.736328   -0.432809   -2.699702
     35          1           0       -4.870289   -0.723933   -4.214290
     36          1           0       -4.122117   -1.165434   -2.681730
     37          6           0       -4.986219    1.995217   -3.906493
     38          1           0       -5.998878    2.073598   -3.491075
     39          1           0       -4.544208    2.998815   -3.899852
     40          1           0       -5.081512    1.676292   -4.950131
     41          7           0       -0.735373   -0.158254   -0.758404
     42          1           0       -1.192837   -0.857732   -0.177660
     43          6           0        0.686991    0.043876   -0.560089
     44          1           0        0.859330    1.119138   -0.661318
     45          6           0        1.555694   -0.652214   -1.623635
     46          6           0        1.122249   -0.375214    0.878622
     47          1           0        0.242736   -0.636817    1.470289
     48          1           0        1.777829   -1.252617    0.844083
     49          8           0        1.150173   -1.508254   -2.383771
     50          6           0        1.913867    0.759856    1.514967
     51          7           0        1.468095    1.195075    2.708693
     52          1           0        1.975980    1.950829    3.150785
     53          1           0        0.557112    0.914193    3.092710
     54          8           0        2.894444    1.242733    0.929774
     55          7           0        2.842150   -0.117978   -1.658134
     56          1           0        3.114394    0.336394   -0.772266
     57          6           0        3.893085   -0.865492   -2.337593
     58          1           0        3.421142   -1.368121   -3.189350
     59          6           0        4.415822   -1.976451   -1.417252
     60          6           0        5.023203    0.047708   -2.862542
     61          1           0        5.740995   -0.589099   -3.385395
     62          1           0        5.568026    0.491197   -2.017707
     63          8           0        3.988464   -2.214677   -0.310586
     64          6           0        4.512723    1.155243   -3.812105
     65          1           0        5.244224    1.326702   -4.609434
     66          1           0        3.597610    0.813955   -4.311346
     67          6           0        4.243097    2.496295   -3.093107
     68          1           0        3.855325    2.336835   -2.083232
     69          1           0        5.170177    3.064517   -2.978956
     70          7           0        3.292125    3.375233   -3.793216
     71          1           0        3.647722    3.981776   -4.520216
     72          7           0        1.425076    2.236764   -3.023335
     73          1           0        0.438266    2.191661   -2.725470
     74          1           0        2.022160    1.479089   -2.685642
     75          7           0        1.161590    4.146542   -4.312222
     76          1           0        0.158457    4.035687   -4.260378
     77          1           0        1.506184    5.072038   -4.523321
     78          6           0        1.956949    3.243855   -3.697029
     79          8           0        5.408415   -2.673711   -2.002976
     80          1           0        5.675986   -3.375596   -1.378520
 ---------------------------------------------------------------------

 SCF Done:  E(RB3LYP) =  -1866.64020655     A.U. after    2 cycles

 Alpha  occ. eigenvalues --  -19.28465 -19.23270 -19.22982 -19.22066 -19.21788
 Alpha  occ. eigenvalues --  -19.20594 -14.51022 -14.50780 -14.48558 -14.47010
 Alpha  occ. eigenvalues --  -14.45908 -14.45011 -14.43789 -14.42116 -10.46700
 Alpha  occ. eigenvalues --  -10.40898 -10.39501 -10.39155 -10.38345 -10.38077
 Alpha  occ. eigenvalues --  -10.35000 -10.33650 -10.33254 -10.33247 -10.32554
 Alpha  occ. eigenvalues --  -10.30131 -10.29544 -10.28928 -10.28855 -10.27785
 Alpha  occ. eigenvalues --  -10.27409 -10.26962 -10.26687 -10.26547 -10.26393
 Alpha  occ. eigenvalues --  -10.26307 -10.26130 -10.24648 -10.24583  -1.19429
 Alpha  occ. eigenvalues --   -1.15272  -1.14673  -1.13754  -1.13423  -1.11899
 Alpha  occ. eigenvalues --   -1.10504  -1.04788  -1.03372  -1.02934  -1.02517
 Alpha  occ. eigenvalues --   -1.01876  -0.99100  -0.98580  -0.93059  -0.90969
 Alpha  occ. eigenvalues --   -0.89827  -0.88169  -0.86479  -0.85394  -0.83711
 Alpha  occ. eigenvalues --   -0.81865  -0.80029  -0.79994  -0.78155  -0.76429
 Alpha  occ. eigenvalues --   -0.75561  -0.74499  -0.73513  -0.72687  -0.71782
 Alpha  occ. eigenvalues --   -0.70125  -0.69358  -0.68850  -0.68627  -0.68039
 Alpha  occ. eigenvalues --   -0.67243  -0.66592  -0.65692  -0.64301  -0.64001
 Alpha  occ. eigenvalues --   -0.63274  -0.62503  -0.61882  -0.61350  -0.60267
 Alpha  occ. eigenvalues --   -0.60065  -0.59302  -0.58977  -0.58782  -0.58455
 Alpha  occ. eigenvalues --   -0.57701  -0.57395  -0.56949  -0.55921  -0.55432
 Alpha  occ. eigenvalues --   -0.55235  -0.54261  -0.53876  -0.53420  -0.53397
 Alpha  occ. eigenvalues --   -0.52999  -0.52543  -0.52353  -0.51683  -0.51232
 Alpha  occ. eigenvalues --   -0.50941  -0.50234  -0.50077  -0.49657  -0.49393
 Alpha  occ. eigenvalues --   -0.49014  -0.48559  -0.48401  -0.48025  -0.47808
 Alpha  occ. eigenvalues --   -0.47549  -0.47192  -0.46769  -0.46333  -0.45986
 Alpha  occ. eigenvalues --   -0.45901  -0.45590  -0.45357  -0.44701  -0.44193
 Alpha  occ. eigenvalues --   -0.44118  -0.43170  -0.41920  -0.41521  -0.41287
 Alpha  occ. eigenvalues --   -0.40953  -0.40611  -0.40409  -0.40345  -0.39512
 Alpha  occ. eigenvalues --   -0.38459  -0.37460  -0.37037  -0.36483  -0.36202
 Alpha  occ. eigenvalues --   -0.35645  -0.35293  -0.34813  -0.34208  -0.33878
 Alpha  occ. eigenvalues --   -0.32496  -0.31948
 Alpha virt. eigenvalues --   -0.10935  -0.09960  -0.08208  -0.08041  -0.07956
 Alpha virt. eigenvalues --   -0.07692  -0.07312  -0.06693  -0.06027  -0.03217
 Alpha virt. eigenvalues --   -0.01298  -0.00941  -0.00657  -0.00410  -0.00139

 Mulliken charges:
               1
     1  N   -0.756721
     2  H    0.333500
     3  H    0.341483
     4  C   -0.060084
     5  H    0.173451
     6  C    0.650581
     7  C   -0.375790
     8  H    0.152449
     9  H    0.154417
    10  O   -0.552233
    11  C    0.147504
    12  C   -0.180226
    13  H    0.132383
    14  C   -0.183989
    15  H    0.119980
    16  C   -0.126735
    17  H    0.150353
    18  C   -0.126963
    19  H    0.144989
    20  C   -0.126744
    21  H    0.150853
    22  N   -0.620058
    23  H    0.350199
    24  C   -0.065866
    25  H    0.197054
    26  C    0.631936
    27  C   -0.274787
    28  H    0.151906
    29  H    0.143861
    30  O   -0.572062
    31  C   -0.083145
    32  H    0.136282
    33  C   -0.454274
    34  H    0.151222
    35  H    0.160451
    36  H    0.147905
    37  C   -0.446071
    38  H    0.151609
    39  H    0.137210
    40  H    0.155761
    41  N   -0.573194
    42  H    0.385619
    43  C   -0.077610
    44  H    0.178353
    45  C    0.576564
    46  C   -0.425889
    47  H    0.190518
    48  H    0.232165
    49  O   -0.469283
    50  C    0.609595
    51  N   -0.775471
    52  H    0.342728
    53  H    0.406473
    54  O   -0.545697
    55  N   -0.667843
    56  H    0.390447
    57  C   -0.063943
    58  H    0.214075
    59  C    0.601113
    60  C   -0.293726
    61  H    0.194848
    62  H    0.162579
    63  O   -0.454977
    64  C   -0.278774
    65  H    0.169005
    66  H    0.164758
    67  C   -0.187949
    68  H    0.201175
    69  H    0.192694
    70  N   -0.598376
    71  H    0.359443
    72  N   -0.836816
    73  H    0.419354
    74  H    0.425723
    75  N   -0.765095
    76  H    0.385028
    77  H    0.372942
    78  C    0.809761
    79  O   -0.560437
    80  H    0.428531
 Sum of Mulliken charges =   1.00000

 Dipole moment (field-independent basis, Debye):
    X=              3.9680    Y=             13.6925    Z=             -5.8771  Tot=             15.4197
 Quadrupole moment (field-independent basis, Debye-Ang):
   XX=           -155.6494   YY=           -173.9470   ZZ=           -139.5518
   XY=              4.7670   XZ=            -46.4164   YZ=            -31.4732

 Normal termination of Gaussian 16 at Sun Jun 19 01:47:23 2022.
