 Gaussian 16, Revision C.01,
 Gaussian 16:  ES64L-G16RevC.01  3-Jul-2019

 -------------------------------------------------------------------
 # B3LYP/6-31G* guess=read geom=check nosymm integral(ultrafinegrid)
 -------------------------------------------------------------------

 ------------------------------------------------------
 Candidate Structure: Conf:883 Charge calc in gas phase
 ------------------------------------------------------
 Structure from the checkpoint file:  "conf-883.chk"
 Charge =  1 Multiplicity = 1

                          Input orientation:
 ---------------------------------------------------------------------
 Center     Atomic      Atomic             Coordinates (Angstroms)
 Number     Number       Type             X           Y           Z
 ---------------------------------------------------------------------
      1          7           0       -4.164944    3.989112    1.868325
      2          1           0       -4.928048    3.312137    1.873295
      3          1           0       -4.449879    4.751132    2.480379
      4          6           0       -2.929791    3.370317    2.367834
      5          1           0       -2.212028    4.192189    2.500701
      6          6           0       -2.337180    2.487118    1.254465
      7          6           0       -3.034271    2.611671    3.716979
      8          1           0       -3.471360    1.622246    3.545578
      9          1           0       -3.742092    3.173767    4.339388
     10          8           0       -1.719952    1.440675    1.492504
     11          6           0       -1.720508    2.485142    4.467676
     12          6           0       -1.009332    1.278561    4.510555
     13          1           0       -1.399567    0.414437    3.983015
     14          6           0       -1.193970    3.593571    5.147336
     15          1           0       -1.739425    4.535490    5.142872
     16          6           0        0.191191    1.180777    5.217744
     17          1           0        0.714812    0.229065    5.260311
     18          6           0        0.008890    3.505238    5.849509
     19          1           0        0.389100    4.373092    6.381600
     20          6           0        0.705918    2.294109    5.890859
     21          1           0        1.624851    2.210189    6.465856
     22          7           0       -2.502299    2.978802    0.004874
     23          1           0       -3.105081    3.792807   -0.075281
     24          6           0       -2.005093    2.302546   -1.197878
     25          1           0       -2.141537    1.227249   -1.037873
     26          6           0       -0.482141    2.575431   -1.323691
     27          6           0       -2.784054    2.768451   -2.430333
     28          1           0       -3.852616    2.775640   -2.176659
     29          1           0       -2.492004    3.803713   -2.644201
     30          8           0       -0.008535    3.393916   -2.122878
     31          6           0       -2.577414    1.904686   -3.692695
     32          1           0       -1.495900    1.784930   -3.848518
     33          6           0       -3.199607    0.506329   -3.555365
     34          1           0       -4.284018    0.574636   -3.401955
     35          1           0       -3.030909   -0.084048   -4.462840
     36          1           0       -2.778445   -0.060513   -2.717630
     37          6           0       -3.151136    2.628876   -4.920052
     38          1           0       -4.230803    2.791678   -4.812951
     39          1           0       -2.684753    3.612272   -5.062100
     40          1           0       -2.995808    2.043364   -5.833254
     41          7           0        0.258326    1.891344   -0.432480
     42          1           0       -0.263320    1.340852    0.251573
     43          6           0        1.669611    2.137348   -0.195931
     44          1           0        1.857586    3.208644   -0.342340
     45          6           0        2.529350    1.402468   -1.261990
     46          6           0        1.991353    1.750004    1.274547
     47          1           0        1.075000    1.826754    1.867622
     48          1           0        2.313324    0.702122    1.328203
     49          8           0        2.003294    0.896126   -2.265250
     50          6           0        3.089848    2.605118    1.899951
     51          7           0        2.915344    2.931610    3.197378
     52          1           0        3.644910    3.462521    3.654917
     53          1           0        2.103062    2.663796    3.740426
     54          8           0        4.082947    2.963214    1.258851
     55          7           0        3.850253    1.385852   -1.025983
     56          1           0        4.195238    1.895451   -0.201031
     57          6           0        4.789996    0.686280   -1.902451
     58          1           0        4.440360   -0.353185   -1.992322
     59          6           0        6.160010    0.577767   -1.222532
     60          6           0        4.905246    1.293107   -3.324500
     61          1           0        5.964776    1.427299   -3.555904
     62          1           0        4.457601    2.291984   -3.293031
     63          8           0        7.213647    0.548190   -1.812467
     64          6           0        4.240968    0.435250   -4.426177
     65          1           0        4.991374   -0.177284   -4.937234
     66          1           0        3.513571   -0.255118   -3.987313
     67          6           0        3.517636    1.267491   -5.486919
     68          1           0        4.199688    2.013994   -5.915517
     69          1           0        3.171373    0.613121   -6.298476
     70          7           0        2.371693    1.960489   -4.879969
     71          1           0        2.085455    1.640977   -3.944007
     72          7           0        1.929370    3.277086   -6.744044
     73          1           0        1.627107    4.166693   -7.111916
     74          1           0        2.572358    2.741492   -7.305924
     75          7           0        0.791694    3.654373   -4.763737
     76          1           0        0.125917    4.231335   -5.256991
     77          1           0        0.604470    3.487606   -3.765156
     78          6           0        1.699488    2.954601   -5.452248
     79          8           0        6.051909    0.457081    0.117106
     80          1           0        6.960528    0.376748    0.466139
 ---------------------------------------------------------------------

 SCF Done:  E(RB3LYP) =  -1866.64786560     A.U. after    3 cycles

 Alpha  occ. eigenvalues --  -19.28427 -19.22710 -19.21931 -19.21652 -19.21255
 Alpha  occ. eigenvalues --  -19.21224 -14.50089 -14.48557 -14.47954 -14.45109
 Alpha  occ. eigenvalues --  -14.45035 -14.44890 -14.44874 -14.41610 -10.45513
 Alpha  occ. eigenvalues --  -10.40997 -10.38915 -10.38553 -10.38498 -10.37829
 Alpha  occ. eigenvalues --  -10.34188 -10.33719 -10.33463 -10.32531 -10.31645
 Alpha  occ. eigenvalues --  -10.29949 -10.28761 -10.27917 -10.27501 -10.27348
 Alpha  occ. eigenvalues --  -10.27295 -10.27063 -10.26665 -10.26627 -10.26579
 Alpha  occ. eigenvalues --  -10.26460 -10.26127 -10.25604 -10.25097  -1.19418
 Alpha  occ. eigenvalues --   -1.14144  -1.13712  -1.13048  -1.12741  -1.12419
 Alpha  occ. eigenvalues --   -1.10413  -1.03344  -1.02469  -1.01947  -1.01841
 Alpha  occ. eigenvalues --   -1.01656  -0.99726  -0.98124  -0.92984  -0.90173
 Alpha  occ. eigenvalues --   -0.89635  -0.88141  -0.85693  -0.84998  -0.83624
 Alpha  occ. eigenvalues --   -0.81802  -0.79430  -0.79350  -0.77944  -0.76204
 Alpha  occ. eigenvalues --   -0.76167  -0.74437  -0.72496  -0.72395  -0.70967
 Alpha  occ. eigenvalues --   -0.69539  -0.68560  -0.67953  -0.67805  -0.67478
 Alpha  occ. eigenvalues --   -0.67179  -0.66446  -0.65688  -0.64026  -0.63359
 Alpha  occ. eigenvalues --   -0.62893  -0.62703  -0.62041  -0.61522  -0.60365
 Alpha  occ. eigenvalues --   -0.59452  -0.58909  -0.58562  -0.58158  -0.57545
 Alpha  occ. eigenvalues --   -0.57142  -0.56868  -0.56388  -0.56040  -0.55314
 Alpha  occ. eigenvalues --   -0.54143  -0.54132  -0.53691  -0.52974  -0.52736
 Alpha  occ. eigenvalues --   -0.52637  -0.52318  -0.52122  -0.51867  -0.51325
 Alpha  occ. eigenvalues --   -0.50860  -0.50652  -0.50030  -0.49820  -0.49195
 Alpha  occ. eigenvalues --   -0.49107  -0.48891  -0.48424  -0.48323  -0.47801
 Alpha  occ. eigenvalues --   -0.46604  -0.46455  -0.46238  -0.45901  -0.45511
 Alpha  occ. eigenvalues --   -0.45249  -0.44743  -0.44506  -0.44417  -0.44225
 Alpha  occ. eigenvalues --   -0.43283  -0.43241  -0.41834  -0.41359  -0.41137
 Alpha  occ. eigenvalues --   -0.40970  -0.40803  -0.40454  -0.40420  -0.38023
 Alpha  occ. eigenvalues --   -0.37460  -0.36821  -0.36498  -0.36229  -0.35797
 Alpha  occ. eigenvalues --   -0.35389  -0.34854  -0.34620  -0.34161  -0.33452
 Alpha  occ. eigenvalues --   -0.32524  -0.31359
 Alpha virt. eigenvalues --   -0.09533  -0.08824  -0.08339  -0.08244  -0.07658
 Alpha virt. eigenvalues --   -0.07631  -0.06925  -0.06553  -0.05710  -0.03129
 Alpha virt. eigenvalues --   -0.00616  -0.00526  -0.00073   0.00158   0.00971

 Mulliken charges:
               1
     1  N   -0.738603
     2  H    0.318058
     3  H    0.323127
     4  C   -0.074042
     5  H    0.177263
     6  C    0.620850
     7  C   -0.356543
     8  H    0.164423
     9  H    0.153731
    10  O   -0.558027
    11  C    0.163457
    12  C   -0.161642
    13  H    0.151335
    14  C   -0.182481
    15  H    0.129788
    16  C   -0.150430
    17  H    0.144608
    18  C   -0.127962
    19  H    0.146233
    20  C   -0.170202
    21  H    0.144831
    22  N   -0.600657
    23  H    0.365754
    24  C   -0.051179
    25  H    0.183382
    26  C    0.645322
    27  C   -0.284922
    28  H    0.148207
    29  H    0.151764
    30  O   -0.579997
    31  C   -0.081776
    32  H    0.123823
    33  C   -0.452019
    34  H    0.152410
    35  H    0.154624
    36  H    0.150609
    37  C   -0.445783
    38  H    0.158178
    39  H    0.123592
    40  H    0.150298
    41  N   -0.609478
    42  H    0.391498
    43  C   -0.041866
    44  H    0.204813
    45  C    0.614375
    46  C   -0.433714
    47  H    0.194193
    48  H    0.204637
    49  O   -0.567516
    50  C    0.629823
    51  N   -0.756240
    52  H    0.356481
    53  H    0.372696
    54  O   -0.529963
    55  N   -0.638386
    56  H    0.417726
    57  C   -0.006590
    58  H    0.201394
    59  C    0.558766
    60  C   -0.294222
    61  H    0.200648
    62  H    0.156711
    63  O   -0.440959
    64  C   -0.312127
    65  H    0.175233
    66  H    0.184117
    67  C   -0.161895
    68  H    0.170617
    69  H    0.175934
    70  N   -0.634917
    71  H    0.426615
    72  N   -0.768718
    73  H    0.373807
    74  H    0.381979
    75  N   -0.804490
    76  H    0.360346
    77  H    0.444284
    78  C    0.805221
    79  O   -0.558811
    80  H    0.428574
 Sum of Mulliken charges =   1.00000

 Dipole moment (field-independent basis, Debye):
    X=              2.8824    Y=             13.5860    Z=             -9.7011  Tot=             16.9411
 Quadrupole moment (field-independent basis, Debye-Ang):
   XX=           -179.1977   YY=           -177.3156   ZZ=            -86.7928
   XY=             -7.9703   XZ=            -23.4226   YZ=            -27.6157

 Normal termination of Gaussian 16 at Sun Jun 19 01:55:49 2022.
