 Gaussian 16, Revision C.01,
 Gaussian 16:  ES64L-G16RevC.01  3-Jul-2019

 -------------------------------------------------------------------
 # B3LYP/6-31G* guess=read geom=check nosymm integral(ultrafinegrid)
 -------------------------------------------------------------------

 ------------------------------------------------------
 Candidate Structure: Conf:123 Charge calc in gas phase
 ------------------------------------------------------
 Structure from the checkpoint file:  "conf-123.chk"
 Charge =  1 Multiplicity = 1

                          Input orientation:
 ---------------------------------------------------------------------
 Center     Atomic      Atomic             Coordinates (Angstroms)
 Number     Number       Type             X           Y           Z
 ---------------------------------------------------------------------
      1          7           0       -5.039131    1.334253    3.052228
      2          1           0       -5.302401    1.218020    4.029459
      3          1           0       -5.559232    2.134657    2.697575
      4          6           0       -3.600029    1.571379    2.969816
      5          1           0       -3.280074    2.524094    3.435220
      6          6           0       -3.202576    1.596508    1.485794
      7          6           0       -2.837737    0.422678    3.672551
      8          1           0       -1.762168    0.587838    3.525831
      9          1           0       -3.106809   -0.502302    3.153754
     10          8           0       -3.241697    0.588705    0.773386
     11          6           0       -3.142987    0.322071    5.151697
     12          6           0       -2.462749    1.123787    6.080139
     13          1           0       -1.686971    1.804432    5.734150
     14          6           0       -4.128599   -0.557281    5.623489
     15          1           0       -4.658884   -1.191729    4.917181
     16          6           0       -2.759497    1.052529    7.441058
     17          1           0       -2.218064    1.677797    8.145859
     18          6           0       -4.428894   -0.630081    6.985617
     19          1           0       -5.193206   -1.319982    7.332815
     20          6           0       -3.745541    0.174889    7.897766
     21          1           0       -3.975289    0.116086    8.957901
     22          7           0       -2.795618    2.804774    1.007654
     23          1           0       -2.737067    3.587417    1.645691
     24          6           0       -2.501894    3.060550   -0.408416
     25          1           0       -3.226016    2.474826   -0.985494
     26          6           0       -1.094469    2.526479   -0.766530
     27          6           0       -2.632056    4.551541   -0.734849
     28          1           0       -1.885691    5.101819   -0.147166
     29          1           0       -2.334458    4.687554   -1.781795
     30          8           0       -0.128128    3.261414   -0.981153
     31          6           0       -4.032230    5.162457   -0.520866
     32          1           0       -4.324630    5.007720    0.529030
     33          6           0       -3.975485    6.678084   -0.765967
     34          1           0       -3.698439    6.897044   -1.804962
     35          1           0       -4.949374    7.142726   -0.577402
     36          1           0       -3.239164    7.164257   -0.115281
     37          6           0       -5.103019    4.507087   -1.406281
     38          1           0       -4.845925    4.605892   -2.468941
     39          1           0       -5.231992    3.440695   -1.188739
     40          1           0       -6.075479    4.988645   -1.256498
     41          7           0       -1.020059    1.170101   -0.827660
     42          1           0       -1.839536    0.655600   -0.490164
     43          6           0        0.272213    0.494271   -0.905349
     44          1           0        0.997580    1.083475   -0.331236
     45          6           0        0.782916    0.439955   -2.360005
     46          6           0        0.159160   -0.918200   -0.319204
     47          1           0       -0.420436   -0.871761    0.608695
     48          1           0       -0.390339   -1.554953   -1.022746
     49          8           0        0.749849   -0.621359   -3.005614
     50          6           0        1.519025   -1.568451   -0.074337
     51          7           0        1.576447   -2.392226    0.998255
     52          1           0        2.443220   -2.873858    1.196734
     53          1           0        0.793000   -2.539547    1.617283
     54          8           0        2.501032   -1.379578   -0.797636
     55          7           0        1.279179    1.592637   -2.842902
     56          1           0        1.145774    2.440435   -2.286011
     57          6           0        2.048546    1.625089   -4.080552
     58          1           0        2.790995    0.825005   -4.022510
     59          6           0        2.865747    2.904236   -4.211048
     60          6           0        1.208082    1.419360   -5.381668
     61          1           0        0.839632    2.390394   -5.728709
     62          1           0        0.323276    0.828628   -5.124816
     63          8           0        3.819577    3.001829   -4.949120
     64          6           0        2.016258    0.730614   -6.503414
     65          1           0        1.617098    1.029398   -7.479745
     66          1           0        3.053591    1.081883   -6.472531
     67          6           0        1.966587   -0.809733   -6.464987
     68          1           0        0.958533   -1.155731   -6.716095
     69          1           0        2.630737   -1.226340   -7.227965
     70          7           0        2.277047   -1.386385   -5.149521
     71          1           0        1.595268   -1.165028   -4.405549
     72          7           0        4.418592   -2.245796   -5.553815
     73          1           0        5.360391   -2.383399   -5.219160
     74          1           0        4.285677   -2.220203   -6.552288
     75          7           0        3.642663   -1.991309   -3.389022
     76          1           0        4.398243   -2.567721   -3.047858
     77          1           0        2.971921   -1.671876   -2.683035
     78          6           0        3.437849   -1.864562   -4.708674
     79          8           0        2.385316    3.915028   -3.462607
     80          1           0        2.951782    4.694746   -3.621741
 ---------------------------------------------------------------------

 SCF Done:  E(RB3LYP) =  -1866.63534120     A.U. after    2 cycles

 Alpha  occ. eigenvalues --  -19.29745 -19.23700 -19.23092 -19.22094 -19.21229
 Alpha  occ. eigenvalues --  -19.20384 -14.50255 -14.48554 -14.48499 -14.46187
 Alpha  occ. eigenvalues --  -14.46043 -14.45441 -14.44695 -14.38452 -10.45942
 Alpha  occ. eigenvalues --  -10.42169 -10.39950 -10.39542 -10.37731 -10.37132
 Alpha  occ. eigenvalues --  -10.34662 -10.34473 -10.33699 -10.32002 -10.30203
 Alpha  occ. eigenvalues --  -10.29989 -10.29674 -10.29445 -10.26387 -10.26341
 Alpha  occ. eigenvalues --  -10.25976 -10.25825 -10.24911 -10.24792 -10.24738
 Alpha  occ. eigenvalues --  -10.24684 -10.24577 -10.24095 -10.23838  -1.20606
 Alpha  occ. eigenvalues --   -1.14815  -1.14074  -1.13517  -1.12903  -1.11860
 Alpha  occ. eigenvalues --   -1.11546  -1.03690  -1.03053  -1.02225  -1.01759
 Alpha  occ. eigenvalues --   -1.01116  -1.00805  -0.96145  -0.91210  -0.90842
 Alpha  occ. eigenvalues --   -0.88877  -0.88047  -0.86032  -0.84147  -0.82976
 Alpha  occ. eigenvalues --   -0.80460  -0.80155  -0.78324  -0.77750  -0.76623
 Alpha  occ. eigenvalues --   -0.74951  -0.73329  -0.72675  -0.71822  -0.71650
 Alpha  occ. eigenvalues --   -0.70483  -0.69522  -0.67617  -0.67346  -0.66962
 Alpha  occ. eigenvalues --   -0.66638  -0.66295  -0.64212  -0.64053  -0.63794
 Alpha  occ. eigenvalues --   -0.63288  -0.63094  -0.62251  -0.60827  -0.60022
 Alpha  occ. eigenvalues --   -0.59729  -0.59073  -0.58148  -0.57640  -0.57527
 Alpha  occ. eigenvalues --   -0.57138  -0.56842  -0.56542  -0.55513  -0.55374
 Alpha  occ. eigenvalues --   -0.55103  -0.54553  -0.53517  -0.53083  -0.53046
 Alpha  occ. eigenvalues --   -0.52422  -0.51506  -0.51401  -0.51010  -0.50800
 Alpha  occ. eigenvalues --   -0.50550  -0.50322  -0.49697  -0.49317  -0.49022
 Alpha  occ. eigenvalues --   -0.48401  -0.48031  -0.47772  -0.47666  -0.47307
 Alpha  occ. eigenvalues --   -0.46355  -0.46072  -0.45830  -0.45609  -0.45447
 Alpha  occ. eigenvalues --   -0.45174  -0.44822  -0.44715  -0.44645  -0.43582
 Alpha  occ. eigenvalues --   -0.43262  -0.41668  -0.41184  -0.40756  -0.39942
 Alpha  occ. eigenvalues --   -0.39857  -0.39699  -0.39639  -0.39498  -0.38658
 Alpha  occ. eigenvalues --   -0.38426  -0.37324  -0.37176  -0.36802  -0.36209
 Alpha  occ. eigenvalues --   -0.35525  -0.34661  -0.33820  -0.33129  -0.31005
 Alpha  occ. eigenvalues --   -0.30711  -0.30045
 Alpha virt. eigenvalues --   -0.09908  -0.09784  -0.08689  -0.07765  -0.07489
 Alpha virt. eigenvalues --   -0.06612  -0.06295  -0.06019  -0.05590  -0.03063
 Alpha virt. eigenvalues --   -0.02144  -0.01811  -0.01175   0.00054   0.00851

 Mulliken charges:
               1
     1  N   -0.711867
     2  H    0.322307
     3  H    0.304421
     4  C   -0.055544
     5  H    0.113951
     6  C    0.645538
     7  C   -0.350483
     8  H    0.133866
     9  H    0.179077
    10  O   -0.548181
    11  C    0.143062
    12  C   -0.180292
    13  H    0.120161
    14  C   -0.193476
    15  H    0.145551
    16  C   -0.127709
    17  H    0.140546
    18  C   -0.127769
    19  H    0.143722
    20  C   -0.128706
    21  H    0.143841
    22  N   -0.607672
    23  H    0.342198
    24  C   -0.064287
    25  H    0.187044
    26  C    0.627992
    27  C   -0.284728
    28  H    0.156083
    29  H    0.157086
    30  O   -0.539700
    31  C   -0.076346
    32  H    0.115152
    33  C   -0.443833
    34  H    0.148296
    35  H    0.155702
    36  H    0.145751
    37  C   -0.454660
    38  H    0.146112
    39  H    0.149822
    40  H    0.158934
    41  N   -0.641415
    42  H    0.393686
    43  C   -0.039325
    44  H    0.188170
    45  C    0.674090
    46  C   -0.410317
    47  H    0.175136
    48  H    0.216199
    49  O   -0.584325
    50  C    0.631946
    51  N   -0.737042
    52  H    0.356863
    53  H    0.359360
    54  O   -0.549093
    55  N   -0.638179
    56  H    0.412769
    57  C   -0.026255
    58  H    0.179146
    59  C    0.579563
    60  C   -0.298899
    61  H    0.177906
    62  H    0.177679
    63  O   -0.450075
    64  C   -0.278776
    65  H    0.171955
    66  H    0.184147
    67  C   -0.173544
    68  H    0.194406
    69  H    0.157782
    70  N   -0.623253
    71  H    0.426721
    72  N   -0.765311
    73  H    0.375659
    74  H    0.379457
    75  N   -0.800660
    76  H    0.361594
    77  H    0.439403
    78  C    0.796114
    79  O   -0.556780
    80  H    0.432538
 Sum of Mulliken charges =   1.00000

 Dipole moment (field-independent basis, Debye):
    X=              6.9520    Y=             -0.5823    Z=            -10.2103  Tot=             12.3660
 Quadrupole moment (field-independent basis, Debye-Ang):
   XX=           -168.1779   YY=           -178.9197   ZZ=           -105.1158
   XY=            -45.7389   XZ=            -63.9333   YZ=             20.4414

 Normal termination of Gaussian 16 at Sun Jun 19 01:47:15 2022.
