 Gaussian 16, Revision C.01,
 Gaussian 16:  ES64L-G16RevC.01  3-Jul-2019

 -------------------------------------------------------------------
 # B3LYP/6-31G* guess=read geom=check nosymm integral(ultrafinegrid)
 -------------------------------------------------------------------

 ------------------------------------------------------
 Candidate Structure: Conf:777 Charge calc in gas phase
 ------------------------------------------------------
 Structure from the checkpoint file:  "conf-777.chk"
 Charge =  1 Multiplicity = 1

                          Input orientation:
 ---------------------------------------------------------------------
 Center     Atomic      Atomic             Coordinates (Angstroms)
 Number     Number       Type             X           Y           Z
 ---------------------------------------------------------------------
      1          7           0       -0.498659    4.620393    1.632493
      2          1           0        0.264451    4.054787    2.006661
      3          1           0       -0.268115    4.764099    0.649714
      4          6           0       -1.741407    3.857309    1.677251
      5          1           0       -1.879309    3.509629    2.708219
      6          6           0       -1.714961    2.640603    0.732602
      7          6           0       -2.954130    4.776132    1.352809
      8          1           0       -2.990916    5.528461    2.147411
      9          1           0       -3.872277    4.181054    1.421837
     10          8           0       -1.158003    2.703244   -0.365479
     11          6           0       -2.902846    5.473881    0.009139
     12          6           0       -2.200340    6.679902   -0.141890
     13          1           0       -1.670769    7.092452    0.712045
     14          6           0       -3.586781    4.957590   -1.101655
     15          1           0       -4.138896    4.026605   -1.003100
     16          6           0       -2.203474    7.362929   -1.360546
     17          1           0       -1.694214    8.320729   -1.441104
     18          6           0       -3.595724    5.633362   -2.321046
     19          1           0       -4.160503    5.230463   -3.157446
     20          6           0       -2.911878    6.846795   -2.452641
     21          1           0       -2.990209    7.417925   -3.376467
     22          7           0       -2.372367    1.525454    1.162128
     23          1           0       -2.577247    1.491825    2.151850
     24          6           0       -2.171699    0.221281    0.518046
     25          1           0       -2.651803   -0.506482    1.182587
     26          6           0       -0.660116   -0.118647    0.585265
     27          6           0       -2.826759    0.117386   -0.871523
     28          1           0       -2.295123    0.781744   -1.559276
     29          1           0       -2.692144   -0.909552   -1.237945
     30          8           0        0.006535    0.260212    1.555293
     31          6           0       -4.334225    0.441448   -0.909409
     32          1           0       -4.468169    1.456215   -0.508548
     33          6           0       -4.827281    0.436741   -2.364422
     34          1           0       -4.716210   -0.557530   -2.815174
     35          1           0       -5.887176    0.709790   -2.421965
     36          1           0       -4.260974    1.145008   -2.981138
     37          6           0       -5.171367   -0.520012   -0.052298
     38          1           0       -5.041248   -1.558179   -0.384599
     39          1           0       -4.906487   -0.472268    1.010326
     40          1           0       -6.237846   -0.280598   -0.129486
     41          7           0       -0.141301   -0.874411   -0.404073
     42          1           0       -0.632743   -1.061280   -1.277834
     43          6           0        1.260381   -1.300382   -0.398825
     44          1           0        1.528330   -1.517898    0.640527
     45          6           0        2.179993   -0.165970   -0.912957
     46          6           0        1.440922   -2.563871   -1.250806
     47          1           0        2.492339   -2.861609   -1.224634
     48          1           0        0.857143   -3.374501   -0.798454
     49          8           0        2.760203   -0.233860   -1.995172
     50          6           0        0.943592   -2.405301   -2.687555
     51          7           0        1.737042   -2.932208   -3.655218
     52          1           0        1.452722   -2.771415   -4.613166
     53          1           0        2.724177   -3.061913   -3.486851
     54          8           0       -0.160212   -1.917408   -2.940987
     55          7           0        2.273392    0.900009   -0.074264
     56          1           0        1.651797    0.929044    0.738310
     57          6           0        2.879060    2.142143   -0.524646
     58          1           0        3.807113    1.909277   -1.052306
     59          6           0        3.184437    2.987189    0.704255
     60          6           0        1.904110    2.895656   -1.466729
     61          1           0        0.970020    3.062249   -0.920550
     62          1           0        1.676245    2.205006   -2.285340
     63          8           0        2.460722    3.085101    1.671394
     64          6           0        2.429982    4.214321   -2.049230
     65          1           0        2.844044    4.856934   -1.261377
     66          1           0        3.241370    4.015632   -2.762633
     67          6           0        1.293189    4.958651   -2.753213
     68          1           0        0.815547    4.319946   -3.504531
     69          1           0        0.529746    5.251824   -2.022755
     70          7           0        1.818099    6.160055   -3.436613
     71          1           0        2.783973    6.406573   -3.260309
     72          7           0       -0.200800    6.821811   -4.363123
     73          1           0       -0.701482    7.276510   -5.113554
     74          1           0       -0.765331    6.457850   -3.597818
     75          7           0        1.777140    7.803536   -5.072377
     76          1           0        1.286759    8.556586   -5.533128
     77          1           0        2.771853    7.731986   -5.232203
     78          6           0        1.130276    6.928612   -4.278606
     79          8           0        4.341758    3.672123    0.578756
     80          1           0        4.450500    4.191427    1.400010
 ---------------------------------------------------------------------

 SCF Done:  E(RB3LYP) =  -1866.61783528     A.U. after    1 cycles

 Alpha  occ. eigenvalues --  -19.29000 -19.23230 -19.19551 -19.19018 -19.18715
 Alpha  occ. eigenvalues --  -19.18654 -14.53560 -14.53306 -14.52909 -14.43586
 Alpha  occ. eigenvalues --  -14.42844 -14.42640 -14.42466 -14.38426 -10.49632
 Alpha  occ. eigenvalues --  -10.41146 -10.36417 -10.36057 -10.35932 -10.35880
 Alpha  occ. eigenvalues --  -10.35851 -10.32237 -10.31100 -10.30897 -10.30697
 Alpha  occ. eigenvalues --  -10.29965 -10.28380 -10.28299 -10.28229 -10.27939
 Alpha  occ. eigenvalues --  -10.27887 -10.27310 -10.27301 -10.27282 -10.26842
 Alpha  occ. eigenvalues --  -10.25420 -10.25099 -10.23494 -10.23371  -1.19793
 Alpha  occ. eigenvalues --   -1.18055  -1.11590  -1.11022  -1.10714  -1.10206
 Alpha  occ. eigenvalues --   -1.10027  -1.07258  -1.06137  -1.00125  -0.99694
 Alpha  occ. eigenvalues --   -0.99283  -0.97322  -0.96194  -0.93916  -0.91610
 Alpha  occ. eigenvalues --   -0.87823  -0.86303  -0.85922  -0.84951  -0.83042
 Alpha  occ. eigenvalues --   -0.81905  -0.81134  -0.79227  -0.78625  -0.75642
 Alpha  occ. eigenvalues --   -0.75040  -0.74399  -0.73256  -0.72743  -0.71601
 Alpha  occ. eigenvalues --   -0.70689  -0.69102  -0.68771  -0.67141  -0.67009
 Alpha  occ. eigenvalues --   -0.66107  -0.65811  -0.65454  -0.65162  -0.64360
 Alpha  occ. eigenvalues --   -0.62322  -0.61872  -0.61580  -0.60544  -0.60322
 Alpha  occ. eigenvalues --   -0.60071  -0.58932  -0.58089  -0.57841  -0.57368
 Alpha  occ. eigenvalues --   -0.56456  -0.56045  -0.55512  -0.54763  -0.54562
 Alpha  occ. eigenvalues --   -0.54356  -0.54225  -0.53047  -0.52750  -0.51816
 Alpha  occ. eigenvalues --   -0.51308  -0.50849  -0.50575  -0.50569  -0.50400
 Alpha  occ. eigenvalues --   -0.49927  -0.49559  -0.49296  -0.49039  -0.48187
 Alpha  occ. eigenvalues --   -0.48029  -0.47712  -0.47014  -0.46688  -0.46352
 Alpha  occ. eigenvalues --   -0.45832  -0.45424  -0.45093  -0.44893  -0.44686
 Alpha  occ. eigenvalues --   -0.44581  -0.44489  -0.44172  -0.43992  -0.43436
 Alpha  occ. eigenvalues --   -0.42959  -0.42777  -0.42380  -0.42266  -0.41950
 Alpha  occ. eigenvalues --   -0.41100  -0.40832  -0.39557  -0.39007  -0.38667
 Alpha  occ. eigenvalues --   -0.36817  -0.35104  -0.34255  -0.33964  -0.33847
 Alpha  occ. eigenvalues --   -0.33673  -0.33269  -0.32932  -0.32452  -0.32172
 Alpha  occ. eigenvalues --   -0.31139  -0.30565
 Alpha virt. eigenvalues --   -0.13804  -0.09947  -0.09197  -0.08891  -0.08635
 Alpha virt. eigenvalues --   -0.06694  -0.05333  -0.05270  -0.05034  -0.04431
 Alpha virt. eigenvalues --   -0.04142  -0.03702  -0.02011  -0.01144  -0.00790

 Mulliken charges:
               1
     1  N   -0.723348
     2  H    0.338984
     3  H    0.299106
     4  C   -0.080791
     5  H    0.148260
     6  C    0.620221
     7  C   -0.343427
     8  H    0.176786
     9  H    0.156876
    10  O   -0.548026
    11  C    0.163279
    12  C   -0.184245
    13  H    0.162065
    14  C   -0.170326
    15  H    0.153943
    16  C   -0.145292
    17  H    0.133845
    18  C   -0.126736
    19  H    0.146695
    20  C   -0.191288
    21  H    0.123041
    22  N   -0.578469
    23  H    0.341605
    24  C   -0.074808
    25  H    0.179855
    26  C    0.646988
    27  C   -0.286577
    28  H    0.171299
    29  H    0.150537
    30  O   -0.564755
    31  C   -0.077174
    32  H    0.131876
    33  C   -0.445874
    34  H    0.152452
    35  H    0.147678
    36  H    0.136424
    37  C   -0.452457
    38  H    0.149492
    39  H    0.137219
    40  H    0.154448
    41  N   -0.642369
    42  H    0.401572
    43  C   -0.075525
    44  H    0.192057
    45  C    0.638218
    46  C   -0.373594
    47  H    0.166194
    48  H    0.192383
    49  O   -0.542517
    50  C    0.627943
    51  N   -0.729450
    52  H    0.347186
    53  H    0.351084
    54  O   -0.535071
    55  N   -0.638317
    56  H    0.397471
    57  C   -0.013213
    58  H    0.191106
    59  C    0.573348
    60  C   -0.318542
    61  H    0.212108
    62  H    0.184767
    63  O   -0.455931
    64  C   -0.323846
    65  H    0.163001
    66  H    0.164082
    67  C   -0.140899
    68  H    0.198760
    69  H    0.202195
    70  N   -0.612244
    71  H    0.365519
    72  N   -0.762876
    73  H    0.377736
    74  H    0.401152
    75  N   -0.762171
    76  H    0.383927
    77  H    0.384467
    78  C    0.823186
    79  O   -0.563195
    80  H    0.420918
 Sum of Mulliken charges =   1.00000

 Dipole moment (field-independent basis, Debye):
    X=              4.4190    Y=             25.8515    Z=            -16.4314  Tot=             30.9486
 Quadrupole moment (field-independent basis, Debye-Ang):
   XX=           -184.7381   YY=            -11.5685   ZZ=           -140.4676
   XY=             30.7355   XZ=            -27.2794   YZ=           -118.9318

 Normal termination of Gaussian 16 at Sun Jun 19 01:46:53 2022.
