 Gaussian 16, Revision C.01,
 Gaussian 16:  ES64L-G16RevC.01  3-Jul-2019

 -------------------------------------------------------------------
 # B3LYP/6-31G* guess=read geom=check nosymm integral(ultrafinegrid)
 -------------------------------------------------------------------

 ------------------------------------------------------
 Candidate Structure: Conf:962 Charge calc in gas phase
 ------------------------------------------------------
 Structure from the checkpoint file:  "conf-962.chk"
 Charge =  1 Multiplicity = 1

                          Input orientation:
 ---------------------------------------------------------------------
 Center     Atomic      Atomic             Coordinates (Angstroms)
 Number     Number       Type             X           Y           Z
 ---------------------------------------------------------------------
      1          7           0       -5.127336   -1.806168    2.807264
      2          1           0       -5.674296   -2.409477    2.195296
      3          1           0       -4.187098   -2.200074    2.792905
      4          6           0       -5.076753   -0.464901    2.246522
      5          1           0       -6.100466   -0.182822    1.966621
      6          6           0       -4.215133   -0.395280    0.965155
      7          6           0       -4.622963    0.565381    3.321197
      8          1           0       -5.354426    0.487042    4.132054
      9          1           0       -4.711015    1.579903    2.912888
     10          8           0       -3.528746   -1.356189    0.603223
     11          6           0       -3.227140    0.372470    3.878855
     12          6           0       -2.956720   -0.647343    4.806292
     13          1           0       -3.759125   -1.314486    5.107058
     14          6           0       -2.185982    1.239395    3.520049
     15          1           0       -2.381487    2.049502    2.820885
     16          6           0       -1.682354   -0.796804    5.353318
     17          1           0       -1.496972   -1.584837    6.077939
     18          6           0       -0.912464    1.104612    4.079889
     19          1           0       -0.131415    1.814496    3.819170
     20          6           0       -0.656290    0.082765    4.997420
     21          1           0        0.322199   -0.005922    5.464538
     22          7           0       -4.253947    0.766236    0.254081
     23          1           0       -4.853690    1.512596    0.580689
     24          6           0       -3.714635    0.898781   -1.107488
     25          1           0       -3.857723   -0.071494   -1.598343
     26          6           0       -2.185192    1.143111   -1.091082
     27          6           0       -4.454154    1.998361   -1.877539
     28          1           0       -4.297269    2.954582   -1.360313
     29          1           0       -3.963530    2.108646   -2.851529
     30          8           0       -1.673662    2.179403   -1.559093
     31          6           0       -5.962748    1.759758   -2.098232
     32          1           0       -6.447071    1.635152   -1.117528
     33          6           0       -6.586155    2.995661   -2.764984
     34          1           0       -6.152052    3.166280   -3.758315
     35          1           0       -7.666365    2.868443   -2.893060
     36          1           0       -6.422935    3.901409   -2.169170
     37          6           0       -6.244671    0.495084   -2.923447
     38          1           0       -5.760588    0.553280   -3.906876
     39          1           0       -5.892018   -0.417188   -2.429125
     40          1           0       -7.320452    0.377219   -3.091992
     41          7           0       -1.472793    0.144076   -0.541978
     42          1           0       -1.997857   -0.681976   -0.238309
     43          6           0       -0.028752    0.138524   -0.547659
     44          1           0        0.275965    1.174208   -0.675447
     45          6           0        0.502145   -0.636297   -1.782982
     46          6           0        0.564530   -0.352497    0.792464
     47          1           0       -0.189304   -0.247340    1.580676
     48          1           0        0.836224   -1.414907    0.748257
     49          8           0       -0.245713   -1.201253   -2.568574
     50          6           0        1.814848    0.436768    1.186536
     51          7           0        2.204776    0.305394    2.467797
     52          1           0        3.058949    0.755822    2.769600
     53          1           0        1.677858   -0.239026    3.137066
     54          8           0        2.441514    1.143647    0.381010
     55          7           0        1.858276   -0.573168   -1.926778
     56          1           0        2.392585   -0.140166   -1.176610
     57          6           0        2.586018   -1.412552   -2.858638
     58          1           0        1.851515   -2.042236   -3.371249
     59          6           0        3.530133   -2.321726   -2.069044
     60          6           0        3.359166   -0.576825   -3.906089
     61          1           0        3.966994   -1.253805   -4.512724
     62          1           0        4.063417    0.073035   -3.368611
     63          8           0        3.725670   -2.243112   -0.876527
     64          6           0        2.421715    0.261906   -4.807733
     65          1           0        2.486429   -0.090131   -5.843728
     66          1           0        1.379901    0.113898   -4.502395
     67          6           0        2.739402    1.765433   -4.828734
     68          1           0        3.784511    1.935027   -5.100742
     69          1           0        2.144319    2.278294   -5.594533
     70          7           0        2.545133    2.442428   -3.535462
     71          1           0        3.364196    2.718446   -3.011256
     72          7           0        0.212660    2.570238   -3.611994
     73          1           0       -0.652347    2.471583   -3.068437
     74          1           0        0.194784    2.376054   -4.601478
     75          7           0        1.339369    3.107466   -1.666343
     76          1           0        0.408998    3.259096   -1.285594
     77          1           0        1.987088    2.677594   -1.004897
     78          6           0        1.364500    2.682710   -2.949729
     79          8           0        4.135521   -3.216560   -2.872529
     80          1           0        4.723808   -3.759063   -2.312476
 ---------------------------------------------------------------------

 SCF Done:  E(RB3LYP) =  -1866.64193836     A.U. after    3 cycles

 Alpha  occ. eigenvalues --  -19.29173 -19.23899 -19.23688 -19.23183 -19.21766
 Alpha  occ. eigenvalues --  -19.21392 -14.51009 -14.49618 -14.48795 -14.47298
 Alpha  occ. eigenvalues --  -14.46231 -14.45826 -14.45319 -14.39036 -10.46327
 Alpha  occ. eigenvalues --  -10.41663 -10.41330 -10.39639 -10.38572 -10.38082
 Alpha  occ. eigenvalues --  -10.35714 -10.33858 -10.33711 -10.33224 -10.31216
 Alpha  occ. eigenvalues --  -10.30972 -10.30202 -10.29914 -10.27800 -10.27572
 Alpha  occ. eigenvalues --  -10.27564 -10.27396 -10.27378 -10.27209 -10.27130
 Alpha  occ. eigenvalues --  -10.26855 -10.26422 -10.24941 -10.24753  -1.20153
 Alpha  occ. eigenvalues --   -1.15283  -1.14985  -1.14396  -1.13303  -1.13081
 Alpha  occ. eigenvalues --   -1.11253  -1.04696  -1.03102  -1.02549  -1.02413
 Alpha  occ. eigenvalues --   -1.02119  -1.02012  -0.96948  -0.93307  -0.91287
 Alpha  occ. eigenvalues --   -0.89879  -0.89040  -0.86129  -0.85866  -0.84024
 Alpha  occ. eigenvalues --   -0.82302  -0.80444  -0.79737  -0.79019  -0.76540
 Alpha  occ. eigenvalues --   -0.75845  -0.74327  -0.73056  -0.72686  -0.71788
 Alpha  occ. eigenvalues --   -0.70906  -0.69828  -0.68513  -0.68451  -0.68159
 Alpha  occ. eigenvalues --   -0.67969  -0.67370  -0.65739  -0.65150  -0.64678
 Alpha  occ. eigenvalues --   -0.64020  -0.63381  -0.62819  -0.61133  -0.60594
 Alpha  occ. eigenvalues --   -0.60397  -0.59268  -0.59150  -0.58975  -0.58248
 Alpha  occ. eigenvalues --   -0.58130  -0.57280  -0.56895  -0.56592  -0.56322
 Alpha  occ. eigenvalues --   -0.54975  -0.54366  -0.54046  -0.53925  -0.53333
 Alpha  occ. eigenvalues --   -0.53302  -0.53197  -0.53075  -0.52396  -0.52033
 Alpha  occ. eigenvalues --   -0.51413  -0.51092  -0.50563  -0.50462  -0.49922
 Alpha  occ. eigenvalues --   -0.49806  -0.49486  -0.48789  -0.48649  -0.47568
 Alpha  occ. eigenvalues --   -0.47245  -0.47139  -0.46873  -0.46775  -0.45865
 Alpha  occ. eigenvalues --   -0.45667  -0.45605  -0.45422  -0.45323  -0.45108
 Alpha  occ. eigenvalues --   -0.44265  -0.43332  -0.41815  -0.41345  -0.41250
 Alpha  occ. eigenvalues --   -0.41168  -0.40914  -0.40665  -0.40580  -0.39732
 Alpha  occ. eigenvalues --   -0.38748  -0.38435  -0.37883  -0.37264  -0.36665
 Alpha  occ. eigenvalues --   -0.35565  -0.35449  -0.34837  -0.34600  -0.33018
 Alpha  occ. eigenvalues --   -0.32854  -0.31655
 Alpha virt. eigenvalues --   -0.11426  -0.09786  -0.09158  -0.08744  -0.08639
 Alpha virt. eigenvalues --   -0.08449  -0.07435  -0.07336  -0.05776  -0.04321
 Alpha virt. eigenvalues --   -0.02497  -0.02202  -0.01356  -0.01134   0.00598

 Mulliken charges:
               1
     1  N   -0.690775
     2  H    0.315874
     3  H    0.317671
     4  C   -0.092295
     5  H    0.161336
     6  C    0.612262
     7  C   -0.344592
     8  H    0.188114
     9  H    0.135466
    10  O   -0.542976
    11  C    0.158917
    12  C   -0.185410
    13  H    0.169010
    14  C   -0.187678
    15  H    0.124099
    16  C   -0.125535
    17  H    0.150856
    18  C   -0.144102
    19  H    0.131924
    20  C   -0.152352
    21  H    0.132852
    22  N   -0.604358
    23  H    0.343165
    24  C   -0.070902
    25  H    0.200992
    26  C    0.640192
    27  C   -0.284544
    28  H    0.149584
    29  H    0.151437
    30  O   -0.592649
    31  C   -0.079699
    32  H    0.117145
    33  C   -0.444017
    34  H    0.147510
    35  H    0.159733
    36  H    0.145672
    37  C   -0.453749
    38  H    0.147567
    39  H    0.149584
    40  H    0.162321
    41  N   -0.593767
    42  H    0.397424
    43  C   -0.057129
    44  H    0.169718
    45  C    0.593647
    46  C   -0.416779
    47  H    0.211014
    48  H    0.216331
    49  O   -0.513484
    50  C    0.634263
    51  N   -0.737338
    52  H    0.364765
    53  H    0.366915
    54  O   -0.559520
    55  N   -0.613723
    56  H    0.366535
    57  C   -0.072140
    58  H    0.218338
    59  C    0.587249
    60  C   -0.274174
    61  H    0.191568
    62  H    0.137156
    63  O   -0.461599
    64  C   -0.278170
    65  H    0.176749
    66  H    0.179485
    67  C   -0.185857
    68  H    0.193383
    69  H    0.176564
    70  N   -0.583225
    71  H    0.368339
    72  N   -0.765481
    73  H    0.426240
    74  H    0.371169
    75  N   -0.768949
    76  H    0.380770
    77  H    0.394954
    78  C    0.769475
    79  O   -0.556383
    80  H    0.428016
 Sum of Mulliken charges =   1.00000

 Dipole moment (field-independent basis, Debye):
    X=              2.4828    Y=              5.8877    Z=             -6.3497  Tot=              9.0083
 Quadrupole moment (field-independent basis, Debye-Ang):
   XX=           -153.3995   YY=           -207.8200   ZZ=           -161.6217
   XY=             -7.9750   XZ=            -19.5242   YZ=            -20.8719

 Normal termination of Gaussian 16 at Sun Jun 19 01:55:58 2022.
