 Gaussian 16, Revision C.01,
 Gaussian 16:  ES64L-G16RevC.01  3-Jul-2019

 -------------------------------------------------------------------
 # B3LYP/6-31G* guess=read geom=check nosymm integral(ultrafinegrid)
 -------------------------------------------------------------------

 ------------------------------------------------------
 Candidate Structure: Conf:102 Charge calc in gas phase
 ------------------------------------------------------
 Structure from the checkpoint file:  "conf-102.chk"
 Charge =  1 Multiplicity = 1

                          Input orientation:
 ---------------------------------------------------------------------
 Center     Atomic      Atomic             Coordinates (Angstroms)
 Number     Number       Type             X           Y           Z
 ---------------------------------------------------------------------
      1          7           0       -4.398671   -0.215884    3.732113
      2          1           0       -5.306360   -0.480498    3.352508
      3          1           0       -3.812236   -1.046981    3.646818
      4          6           0       -3.802404    0.829565    2.910132
      5          1           0       -4.573095    1.579632    2.692336
      6          6           0       -3.256226    0.271797    1.582884
      7          6           0       -2.643613    1.534284    3.677002
      8          1           0       -2.067133    2.143843    2.969920
      9          1           0       -1.955422    0.758167    4.031530
     10          8           0       -2.910444   -0.911479    1.474204
     11          6           0       -3.123568    2.411614    4.812862
     12          6           0       -3.551043    1.864085    6.031047
     13          1           0       -3.542098    0.786963    6.159451
     14          6           0       -3.158679    3.804095    4.659347
     15          1           0       -2.818774    4.248300    3.725060
     16          6           0       -4.002584    2.688270    7.061780
     17          1           0       -4.329249    2.246398    7.999551
     18          6           0       -3.609856    4.632023    5.688693
     19          1           0       -3.623797    5.709969    5.549642
     20          6           0       -4.034264    4.074570    6.895094
     21          1           0       -4.383021    4.714812    7.700886
     22          7           0       -3.147979    1.147794    0.547833
     23          1           0       -3.374575    2.121548    0.704374
     24          6           0       -2.630055    0.768392   -0.773201
     25          1           0       -2.979498   -0.254211   -0.947352
     26          6           0       -1.080731    0.746902   -0.733828
     27          6           0       -3.168199    1.720635   -1.844743
     28          1           0       -4.246296    1.847771   -1.677582
     29          1           0       -2.692727    2.698609   -1.700477
     30          8           0       -0.383953    1.608999   -1.276011
     31          6           0       -2.937293    1.264761   -3.300540
     32          1           0       -1.866119    1.044734   -3.409588
     33          6           0       -3.735033    0.000162   -3.655251
     34          1           0       -4.812794    0.172817   -3.542314
     35          1           0       -3.558200   -0.293422   -4.696944
     36          1           0       -3.466904   -0.855922   -3.026497
     37          6           0       -3.285545    2.409305   -4.264686
     38          1           0       -4.342692    2.690016   -4.177497
     39          1           0       -2.686774    3.304285   -4.057338
     40          1           0       -3.112050    2.116688   -5.307634
     41          7           0       -0.568360   -0.289632   -0.029763
     42          1           0       -1.236371   -0.850428    0.502408
     43          6           0        0.838535   -0.335083    0.332933
     44          1           0        1.089895    0.561864    0.912563
     45          6           0        1.716517   -0.408664   -0.926043
     46          6           0        1.108489   -1.557454    1.219021
     47          1           0        0.759106   -2.466509    0.716198
     48          1           0        2.191835   -1.665897    1.357867
     49          8           0        1.491491   -1.182234   -1.849860
     50          6           0        0.481282   -1.386883    2.610438
     51          7           0        0.227663   -2.545831    3.273155
     52          1           0       -0.185436   -2.491618    4.194282
     53          1           0        0.313389   -3.452449    2.839080
     54          8           0        0.275898   -0.281154    3.094130
     55          7           0        2.803561    0.420990   -0.902551
     56          1           0        2.907682    1.080637   -0.144128
     57          6           0        3.747179    0.457524   -1.999240
     58          1           0        3.656144   -0.515764   -2.497565
     59          6           0        5.201700    0.579862   -1.547929
     60          6           0        3.443049    1.560148   -3.040623
     61          1           0        4.205205    1.475383   -3.823824
     62          1           0        3.574266    2.546894   -2.574514
     63          8           0        6.114805    0.785106   -2.315867
     64          6           0        2.024963    1.449775   -3.612844
     65          1           0        1.841580    0.416235   -3.936245
     66          1           0        1.284111    1.644817   -2.829085
     67          6           0        1.750896    2.433580   -4.753326
     68          1           0        0.698061    2.412442   -5.052984
     69          1           0        1.969425    3.459733   -4.444778
     70          7           0        2.562950    2.197093   -5.970820
     71          1           0        3.453009    2.673694   -6.038588
     72          7           0        1.285693    0.426528   -6.766840
     73          1           0        0.929600   -0.104094   -7.549023
     74          1           0        0.909414    0.222606   -5.851352
     75          7           0        2.976974    1.311096   -8.075232
     76          1           0        2.971850    0.510921   -8.691742
     77          1           0        3.580246    2.082360   -8.323507
     78          6           0        2.281198    1.310055   -6.923652
     79          8           0        5.363212    0.437069   -0.217202
     80          1           0        6.320450    0.522974   -0.040886
 ---------------------------------------------------------------------

 SCF Done:  E(RB3LYP) =  -1866.60521919     A.U. after    3 cycles

 Alpha  occ. eigenvalues --  -19.29007 -19.22990 -19.19808 -19.19599 -19.19330
 Alpha  occ. eigenvalues --  -19.18493 -14.54025 -14.53966 -14.53931 -14.44936
 Alpha  occ. eigenvalues --  -14.44071 -14.42920 -14.42772 -14.36835 -10.50364
 Alpha  occ. eigenvalues --  -10.41386 -10.37108 -10.36581 -10.36419 -10.36084
 Alpha  occ. eigenvalues --  -10.35655 -10.33523 -10.31423 -10.30904 -10.29735
 Alpha  occ. eigenvalues --  -10.29676 -10.28400 -10.28125 -10.26725 -10.26133
 Alpha  occ. eigenvalues --  -10.24978 -10.24716 -10.23846 -10.23298 -10.22625
 Alpha  occ. eigenvalues --  -10.22501 -10.22328 -10.22256 -10.21979  -1.19843
 Alpha  occ. eigenvalues --   -1.18728  -1.12131  -1.11216  -1.10771  -1.10443
 Alpha  occ. eigenvalues --   -1.10315  -1.07803  -1.06925  -1.01594  -1.00304
 Alpha  occ. eigenvalues --   -0.99541  -0.97599  -0.94436  -0.91705  -0.88859
 Alpha  occ. eigenvalues --   -0.88713  -0.87574  -0.85646  -0.82839  -0.82116
 Alpha  occ. eigenvalues --   -0.81335  -0.79390  -0.77720  -0.76382  -0.76174
 Alpha  occ. eigenvalues --   -0.76065  -0.75670  -0.73989  -0.72520  -0.71209
 Alpha  occ. eigenvalues --   -0.69978  -0.69039  -0.67699  -0.67523  -0.67015
 Alpha  occ. eigenvalues --   -0.66134  -0.65495  -0.65071  -0.63909  -0.63181
 Alpha  occ. eigenvalues --   -0.61959  -0.61863  -0.61721  -0.61283  -0.60256
 Alpha  occ. eigenvalues --   -0.59720  -0.58952  -0.57431  -0.57363  -0.56597
 Alpha  occ. eigenvalues --   -0.56421  -0.56243  -0.55850  -0.54498  -0.54155
 Alpha  occ. eigenvalues --   -0.53501  -0.53292  -0.52988  -0.52829  -0.51069
 Alpha  occ. eigenvalues --   -0.50881  -0.50606  -0.50471  -0.49803  -0.49547
 Alpha  occ. eigenvalues --   -0.49134  -0.48883  -0.48655  -0.48438  -0.48224
 Alpha  occ. eigenvalues --   -0.47107  -0.46972  -0.46451  -0.46327  -0.45774
 Alpha  occ. eigenvalues --   -0.45719  -0.45413  -0.45391  -0.45312  -0.44798
 Alpha  occ. eigenvalues --   -0.44515  -0.43817  -0.43656  -0.43409  -0.43022
 Alpha  occ. eigenvalues --   -0.42254  -0.42055  -0.41186  -0.40814  -0.40648
 Alpha  occ. eigenvalues --   -0.40079  -0.39893  -0.38718  -0.37778  -0.37400
 Alpha  occ. eigenvalues --   -0.37365  -0.35367  -0.34485  -0.34017  -0.33727
 Alpha  occ. eigenvalues --   -0.33410  -0.32569  -0.32349  -0.31665  -0.29687
 Alpha  occ. eigenvalues --   -0.28203  -0.27700
 Alpha virt. eigenvalues --   -0.14313  -0.10169  -0.08329  -0.06695  -0.06593
 Alpha virt. eigenvalues --   -0.06127  -0.05643  -0.05341  -0.04814  -0.04272
 Alpha virt. eigenvalues --   -0.03461  -0.03071  -0.01549  -0.01345   0.00335

 Mulliken charges:
               1
     1  N   -0.689355
     2  H    0.306175
     3  H    0.311602
     4  C   -0.080493
     5  H    0.147066
     6  C    0.613186
     7  C   -0.357948
     8  H    0.136357
     9  H    0.183240
    10  O   -0.557361
    11  C    0.174030
    12  C   -0.153349
    13  H    0.138436
    14  C   -0.189202
    15  H    0.105564
    16  C   -0.133081
    17  H    0.132901
    18  C   -0.127796
    19  H    0.128478
    20  C   -0.129231
    21  H    0.133089
    22  N   -0.604886
    23  H    0.338917
    24  C   -0.063205
    25  H    0.183721
    26  C    0.640058
    27  C   -0.277487
    28  H    0.144611
    29  H    0.152659
    30  O   -0.556558
    31  C   -0.076609
    32  H    0.121016
    33  C   -0.450143
    34  H    0.154278
    35  H    0.135909
    36  H    0.153314
    37  C   -0.447396
    38  H    0.156274
    39  H    0.142713
    40  H    0.129490
    41  N   -0.618703
    42  H    0.389342
    43  C   -0.025016
    44  H    0.178378
    45  C    0.646753
    46  C   -0.410327
    47  H    0.179635
    48  H    0.195671
    49  O   -0.543302
    50  C    0.611900
    51  N   -0.744496
    52  H    0.355241
    53  H    0.346517
    54  O   -0.501091
    55  N   -0.605441
    56  H    0.345614
    57  C   -0.058966
    58  H    0.211393
    59  C    0.594523
    60  C   -0.266717
    61  H    0.152083
    62  H    0.153213
    63  O   -0.459814
    64  C   -0.319160
    65  H    0.154213
    66  H    0.244336
    67  C   -0.193970
    68  H    0.195165
    69  H    0.198108
    70  N   -0.582890
    71  H    0.370241
    72  N   -0.753988
    73  H    0.386457
    74  H    0.403376
    75  N   -0.761300
    76  H    0.387096
    77  H    0.387164
    78  C    0.824741
    79  O   -0.561974
    80  H    0.427010
 Sum of Mulliken charges =   1.00000

 Dipole moment (field-independent basis, Debye):
    X=              8.2210    Y=              4.1826    Z=            -25.1098  Tot=             26.7504
 Quadrupole moment (field-independent basis, Debye-Ang):
   XX=           -179.0392   YY=           -197.1882   ZZ=            -19.6128
   XY=             12.0250   XZ=            -58.4781   YZ=            -45.7470

 Normal termination of Gaussian 16 at Sun Jun 19 01:47:35 2022.
