 Gaussian 16, Revision C.01,
 Gaussian 16:  ES64L-G16RevC.01  3-Jul-2019

 -------------------------------------------------------------------
 # B3LYP/6-31G* guess=read geom=check nosymm integral(ultrafinegrid)
 -------------------------------------------------------------------

 ------------------------------------------------------
 Candidate Structure: Conf:797 Charge calc in gas phase
 ------------------------------------------------------
 Structure from the checkpoint file:  "conf-797.chk"
 Charge =  1 Multiplicity = 1

                          Input orientation:
 ---------------------------------------------------------------------
 Center     Atomic      Atomic             Coordinates (Angstroms)
 Number     Number       Type             X           Y           Z
 ---------------------------------------------------------------------
      1          7           0       -4.486205    3.124273    2.886751
      2          1           0       -5.057784    3.892763    3.229749
      3          1           0       -5.110283    2.354306    2.649518
      4          6           0       -3.793588    3.528527    1.663904
      5          1           0       -4.449803    4.064109    0.949978
      6          6           0       -3.416118    2.225106    0.931125
      7          6           0       -2.616426    4.471150    2.000836
      8          1           0       -2.096017    4.739532    1.071135
      9          1           0       -1.912946    3.928753    2.643297
     10          8           0       -4.247892    1.328527    0.812694
     11          6           0       -3.062540    5.746347    2.687051
     12          6           0       -3.428722    6.872010    1.935926
     13          1           0       -3.368353    6.832293    0.849563
     14          6           0       -3.147951    5.820630    4.084647
     15          1           0       -2.876492    4.952285    4.678792
     16          6           0       -3.868543    8.040164    2.559789
     17          1           0       -4.147869    8.902240    1.959428
     18          6           0       -3.586443    6.987826    4.712283
     19          1           0       -3.644679    7.026690    5.796807
     20          6           0       -3.947630    8.101787    3.952269
     21          1           0       -4.287552    9.010712    4.441003
     22          7           0       -2.167392    2.130194    0.399886
     23          1           0       -1.458868    2.828255    0.579039
     24          6           0       -1.714766    0.931548   -0.293121
     25          1           0       -2.284367    0.088863    0.107625
     26          6           0       -0.222373    0.783325    0.006553
     27          6           0       -1.964134    1.050598   -1.818556
     28          1           0       -3.035564    1.255213   -1.939752
     29          1           0       -1.424836    1.942174   -2.167182
     30          8           0        0.519038    1.774345    0.059558
     31          6           0       -1.571399   -0.159049   -2.690502
     32          1           0       -0.501019   -0.361338   -2.543891
     33          6           0       -2.359433   -1.428467   -2.328092
     34          1           0       -3.440245   -1.252915   -2.398421
     35          1           0       -2.109341   -2.246345   -3.013599
     36          1           0       -2.148289   -1.784959   -1.313912
     37          6           0       -1.778212    0.192111   -4.172682
     38          1           0       -2.834474    0.401826   -4.384929
     39          1           0       -1.197451    1.077761   -4.459921
     40          1           0       -1.467691   -0.636037   -4.819828
     41          7           0        0.227753   -0.478855    0.160861
     42          1           0       -0.413258   -1.263939    0.278577
     43          6           0        1.623215   -0.783827    0.435426
     44          1           0        1.867278   -0.521519    1.475698
     45          6           0        2.535795    0.005193   -0.526532
     46          6           0        1.891354   -2.287344    0.203668
     47          1           0        1.764543   -2.483349   -0.867507
     48          1           0        2.936574   -2.496557    0.454948
     49          8           0        2.457360   -0.129699   -1.741142
     50          6           0        0.939789   -3.212693    0.961311
     51          7           0        1.516203   -4.241005    1.631041
     52          1           0        0.912184   -4.917721    2.079145
     53          1           0        2.506854   -4.427816    1.599723
     54          8           0       -0.280065   -3.046133    0.947594
     55          7           0        3.488016    0.783845    0.070640
     56          1           0        3.359094    1.035912    1.041573
     57          6           0        4.268805    1.684155   -0.758404
     58          1           0        4.547095    1.116497   -1.652931
     59          6           0        5.563780    2.126617   -0.090781
     60          6           0        3.439234    2.917852   -1.213679
     61          1           0        3.355407    3.628937   -0.381371
     62          1           0        2.428990    2.553299   -1.419364
     63          8           0        6.383865    2.836195   -0.633758
     64          6           0        4.016601    3.612042   -2.452787
     65          1           0        5.021322    3.990392   -2.239227
     66          1           0        4.101885    2.876814   -3.265556
     67          6           0        3.112634    4.756249   -2.912812
     68          1           0        2.112045    4.372404   -3.151633
     69          1           0        3.019256    5.513048   -2.124956
     70          7           0        3.689279    5.403600   -4.109636
     71          1           0        4.445720    4.913627   -4.571614
     72          7           0        2.118025    7.102947   -4.239331
     73          1           0        1.877358    8.050156   -4.494457
     74          1           0        1.490753    6.615233   -3.616273
     75          7           0        3.961695    7.129629   -5.639025
     76          1           0        3.550188    7.842134   -6.225053
     77          1           0        4.899075    6.830116   -5.867161
     78          6           0        3.256420    6.534643   -4.661072
     79          8           0        5.695246    1.685082    1.176067
     80          1           0        6.543518    2.035726    1.510991
 ---------------------------------------------------------------------

 SCF Done:  E(RB3LYP) =  -1866.59859201     A.U. after    2 cycles

 Alpha  occ. eigenvalues --  -19.29462 -19.23484 -19.19975 -19.19603 -19.19125
 Alpha  occ. eigenvalues --  -19.15905 -14.54712 -14.54534 -14.54483 -14.44659
 Alpha  occ. eigenvalues --  -14.43945 -14.42899 -14.41124 -14.35094 -10.50963
 Alpha  occ. eigenvalues --  -10.41856 -10.37505 -10.37467 -10.37167 -10.35786
 Alpha  occ. eigenvalues --  -10.33516 -10.33300 -10.32377 -10.31031 -10.29325
 Alpha  occ. eigenvalues --  -10.28967 -10.28518 -10.27160 -10.24536 -10.24436
 Alpha  occ. eigenvalues --  -10.24216 -10.24174 -10.23823 -10.23767 -10.23571
 Alpha  occ. eigenvalues --  -10.23504 -10.23325 -10.22728 -10.22114  -1.20316
 Alpha  occ. eigenvalues --   -1.19380  -1.12316  -1.11413  -1.11173  -1.10522
 Alpha  occ. eigenvalues --   -1.08483  -1.07987  -1.07581  -1.01483  -0.99871
 Alpha  occ. eigenvalues --   -0.98571  -0.97502  -0.93010  -0.92585  -0.89899
 Alpha  occ. eigenvalues --   -0.87798  -0.86481  -0.85578  -0.82550  -0.82299
 Alpha  occ. eigenvalues --   -0.80436  -0.79884  -0.78994  -0.77132  -0.76275
 Alpha  occ. eigenvalues --   -0.75556  -0.73870  -0.73232  -0.72307  -0.71373
 Alpha  occ. eigenvalues --   -0.69867  -0.69057  -0.68041  -0.67798  -0.67219
 Alpha  occ. eigenvalues --   -0.66365  -0.65588  -0.65138  -0.64027  -0.63479
 Alpha  occ. eigenvalues --   -0.62430  -0.62068  -0.61682  -0.61456  -0.61247
 Alpha  occ. eigenvalues --   -0.59197  -0.58657  -0.57977  -0.57288  -0.56649
 Alpha  occ. eigenvalues --   -0.55866  -0.55749  -0.54784  -0.54674  -0.53817
 Alpha  occ. eigenvalues --   -0.53368  -0.52684  -0.52180  -0.51971  -0.51148
 Alpha  occ. eigenvalues --   -0.50899  -0.50276  -0.49860  -0.49651  -0.49458
 Alpha  occ. eigenvalues --   -0.48728  -0.48596  -0.48213  -0.47890  -0.47377
 Alpha  occ. eigenvalues --   -0.47363  -0.46672  -0.46540  -0.46258  -0.45726
 Alpha  occ. eigenvalues --   -0.45667  -0.45507  -0.44758  -0.44320  -0.44231
 Alpha  occ. eigenvalues --   -0.43570  -0.43387  -0.43255  -0.43181  -0.42489
 Alpha  occ. eigenvalues --   -0.42233  -0.42032  -0.41309  -0.40588  -0.39858
 Alpha  occ. eigenvalues --   -0.38800  -0.38560  -0.38222  -0.37755  -0.37658
 Alpha  occ. eigenvalues --   -0.37377  -0.35063  -0.34863  -0.34092  -0.33764
 Alpha  occ. eigenvalues --   -0.32874  -0.32188  -0.30634  -0.30118  -0.29668
 Alpha  occ. eigenvalues --   -0.28636  -0.27534
 Alpha virt. eigenvalues --   -0.14578  -0.10635  -0.08834  -0.07021  -0.06799
 Alpha virt. eigenvalues --   -0.05941  -0.05308  -0.05262  -0.04938  -0.04799
 Alpha virt. eigenvalues --   -0.04736  -0.02109  -0.01999  -0.01708  -0.00830

 Mulliken charges:
               1
     1  N   -0.734134
     2  H    0.307824
     3  H    0.327113
     4  C   -0.043170
     5  H    0.140180
     6  C    0.627176
     7  C   -0.356905
     8  H    0.119400
     9  H    0.157173
    10  O   -0.533953
    11  C    0.146839
    12  C   -0.180194
    13  H    0.109198
    14  C   -0.177589
    15  H    0.146159
    16  C   -0.129104
    17  H    0.129371
    18  C   -0.131257
    19  H    0.138678
    20  C   -0.129793
    21  H    0.136577
    22  N   -0.637348
    23  H    0.345828
    24  C   -0.046582
    25  H    0.190269
    26  C    0.628966
    27  C   -0.245638
    28  H    0.162369
    29  H    0.116556
    30  O   -0.581988
    31  C   -0.092384
    32  H    0.145840
    33  C   -0.456428
    34  H    0.155187
    35  H    0.146859
    36  H    0.150651
    37  C   -0.439137
    38  H    0.146704
    39  H    0.121503
    40  H    0.147895
    41  N   -0.630602
    42  H    0.400780
    43  C   -0.020731
    44  H    0.155449
    45  C    0.650931
    46  C   -0.401607
    47  H    0.219790
    48  H    0.158358
    49  O   -0.534035
    50  C    0.620248
    51  N   -0.739931
    52  H    0.361514
    53  H    0.350434
    54  O   -0.517189
    55  N   -0.602399
    56  H    0.346816
    57  C   -0.055099
    58  H    0.209077
    59  C    0.593084
    60  C   -0.285497
    61  H    0.151986
    62  H    0.212143
    63  O   -0.462953
    64  C   -0.327990
    65  H    0.199224
    66  H    0.166838
    67  C   -0.145031
    68  H    0.191508
    69  H    0.189828
    70  N   -0.610425
    71  H    0.371439
    72  N   -0.756776
    73  H    0.389193
    74  H    0.398496
    75  N   -0.763554
    76  H    0.388485
    77  H    0.389066
    78  C    0.843786
    79  O   -0.560300
    80  H    0.426935
 Sum of Mulliken charges =   1.00000

 Dipole moment (field-independent basis, Debye):
    X=             18.9687    Y=             24.6821    Z=            -15.9544  Tot=             34.9794
 Quadrupole moment (field-independent basis, Debye-Ang):
   XX=           -167.8541   YY=             -3.8863   ZZ=           -122.1567
   XY=             62.6428   XZ=            -50.2576   YZ=           -136.9271

 Normal termination of Gaussian 16 at Sun Jun 19 01:49:10 2022.
