 Gaussian 16, Revision C.01,
 Gaussian 16:  ES64L-G16RevC.01  3-Jul-2019

 -------------------------------------------------------------------
 # B3LYP/6-31G* guess=read geom=check nosymm integral(ultrafinegrid)
 -------------------------------------------------------------------

 ------------------------------------------------------
 Candidate Structure: Conf:242 Charge calc in gas phase
 ------------------------------------------------------
 Structure from the checkpoint file:  "conf-242.chk"
 Charge =  1 Multiplicity = 1

                          Input orientation:
 ---------------------------------------------------------------------
 Center     Atomic      Atomic             Coordinates (Angstroms)
 Number     Number       Type             X           Y           Z
 ---------------------------------------------------------------------
      1          7           0       -0.864641    5.784347    1.962839
      2          1           0       -1.437167    6.022936    1.151322
      3          1           0       -1.045257    6.483094    2.682905
      4          6           0       -1.308249    4.459748    2.432282
      5          1           0       -0.620928    4.141218    3.225258
      6          6           0       -1.180409    3.510489    1.221500
      7          6           0       -2.756328    4.453668    3.000695
      8          1           0       -3.442405    4.742422    2.195297
      9          1           0       -2.807738    5.242186    3.763845
     10          8           0       -1.365934    3.941522    0.085775
     11          6           0       -3.178658    3.128582    3.601120
     12          6           0       -4.118287    2.311697    2.958810
     13          1           0       -4.573893    2.648406    2.030361
     14          6           0       -2.615134    2.681341    4.806373
     15          1           0       -1.904158    3.312559    5.336820
     16          6           0       -4.485049    1.079158    3.502744
     17          1           0       -5.224040    0.464726    2.995918
     18          6           0       -2.975219    1.446876    5.349761
     19          1           0       -2.535783    1.121340    6.288642
     20          6           0       -3.911308    0.641297    4.697482
     21          1           0       -4.199083   -0.315429    5.123713
     22          7           0       -0.854850    2.227421    1.532682
     23          1           0       -0.802487    2.004661    2.518057
     24          6           0       -0.671640    1.102396    0.611275
     25          1           0       -0.813833    0.205171    1.222167
     26          6           0        0.772649    1.084202    0.073637
     27          6           0       -1.715154    1.068872   -0.537308
     28          1           0       -2.694696    1.219269   -0.064506
     29          1           0       -1.546953    1.932742   -1.183229
     30          8           0        1.410327    2.118184   -0.196294
     31          6           0       -1.757792   -0.219352   -1.386401
     32          1           0       -0.772452   -0.367405   -1.848132
     33          6           0       -2.112682   -1.471904   -0.568397
     34          1           0       -3.069532   -1.340980   -0.046334
     35          1           0       -2.213328   -2.342890   -1.225238
     36          1           0       -1.356723   -1.731281    0.182590
     37          6           0       -2.772231   -0.025031   -2.525706
     38          1           0       -3.785761    0.125470   -2.132287
     39          1           0       -2.519494    0.845235   -3.142195
     40          1           0       -2.796743   -0.903300   -3.179842
     41          7           0        1.294235   -0.136337   -0.116462
     42          1           0        0.850307   -0.973419    0.265466
     43          6           0        2.613714   -0.356119   -0.691121
     44          1           0        3.382310    0.005790    0.005772
     45          6           0        2.738388    0.373962   -2.050450
     46          6           0        2.816900   -1.864397   -0.967993
     47          1           0        2.135434   -2.146057   -1.779733
     48          1           0        3.838849   -2.013760   -1.330722
     49          8           0        1.889904    0.225113   -2.922484
     50          6           0        2.503596   -2.769897    0.222942
     51          7           0        3.432555   -3.707164    0.523730
     52          1           0        3.216537   -4.380500    1.247689
     53          1           0        4.259036   -3.855982   -0.035553
     54          8           0        1.452431   -2.662146    0.858511
     55          7           0        3.871477    1.104525   -2.210406
     56          1           0        4.509511    1.200128   -1.432601
     57          6           0        4.246168    1.746023   -3.465642
     58          1           0        3.754252    1.183236   -4.267610
     59          6           0        5.749869    1.643756   -3.729275
     60          6           0        3.799798    3.227883   -3.544156
     61          1           0        4.416732    3.733494   -4.292856
     62          1           0        4.021211    3.692132   -2.574547
     63          8           0        6.289195    2.135245   -4.690719
     64          6           0        2.306114    3.396722   -3.893928
     65          1           0        2.187757    3.463730   -4.981128
     66          1           0        1.733481    2.515626   -3.584132
     67          6           0        1.671399    4.641509   -3.264619
     68          1           0        2.292461    5.527990   -3.444143
     69          1           0        0.683627    4.821436   -3.710317
     70          7           0        1.543024    4.442421   -1.819191
     71          1           0        1.437893    3.485364   -1.473395
     72          7           0        1.239065    6.676857   -1.237817
     73          1           0        1.263974    7.392773   -0.527154
     74          1           0        0.933929    6.937557   -2.162672
     75          7           0        1.509517    5.070814    0.413498
     76          1           0        0.832334    5.526439    1.055541
     77          1           0        1.598494    4.068984    0.579525
     78          6           0        1.407097    5.385802   -0.891024
     79          8           0        6.418946    0.957886   -2.771025
     80          1           0        7.359135    0.963580   -3.036736
 ---------------------------------------------------------------------

 SCF Done:  E(RB3LYP) =  -1866.64469037     A.U. after    1 cycles

 Alpha  occ. eigenvalues --  -19.29413 -19.23115 -19.22851 -19.21820 -19.21349
 Alpha  occ. eigenvalues --  -19.21029 -14.49059 -14.47725 -14.46331 -14.46046
 Alpha  occ. eigenvalues --  -14.46012 -14.45989 -14.45311 -14.43334 -10.43918
 Alpha  occ. eigenvalues --  -10.41561 -10.39673 -10.39415 -10.38847 -10.38328
 Alpha  occ. eigenvalues --  -10.34692 -10.33834 -10.33589 -10.33398 -10.32633
 Alpha  occ. eigenvalues --  -10.30678 -10.28610 -10.28516 -10.28406 -10.27887
 Alpha  occ. eigenvalues --  -10.26926 -10.26754 -10.26712 -10.26607 -10.26479
 Alpha  occ. eigenvalues --  -10.26456 -10.26093 -10.24342 -10.23846  -1.20079
 Alpha  occ. eigenvalues --   -1.14604  -1.13540  -1.13227  -1.12759  -1.12628
 Alpha  occ. eigenvalues --   -1.11019  -1.02982  -1.02791  -1.02371  -1.02144
 Alpha  occ. eigenvalues --   -1.00669  -1.00427  -0.99512  -0.93387  -0.90541
 Alpha  occ. eigenvalues --   -0.89415  -0.88045  -0.86508  -0.85282  -0.83630
 Alpha  occ. eigenvalues --   -0.82110  -0.79869  -0.79162  -0.77594  -0.75266
 Alpha  occ. eigenvalues --   -0.75146  -0.74639  -0.73026  -0.71771  -0.70893
 Alpha  occ. eigenvalues --   -0.69800  -0.69291  -0.69170  -0.68306  -0.67742
 Alpha  occ. eigenvalues --   -0.66816  -0.66256  -0.65488  -0.64304  -0.63589
 Alpha  occ. eigenvalues --   -0.62881  -0.62819  -0.61521  -0.61139  -0.60250
 Alpha  occ. eigenvalues --   -0.59848  -0.59127  -0.58777  -0.58423  -0.58246
 Alpha  occ. eigenvalues --   -0.57501  -0.56831  -0.55837  -0.55443  -0.55039
 Alpha  occ. eigenvalues --   -0.54533  -0.54411  -0.53772  -0.53440  -0.53274
 Alpha  occ. eigenvalues --   -0.52918  -0.52373  -0.51985  -0.51782  -0.51270
 Alpha  occ. eigenvalues --   -0.51097  -0.50488  -0.50207  -0.49799  -0.49771
 Alpha  occ. eigenvalues --   -0.49512  -0.48986  -0.48855  -0.48377  -0.47934
 Alpha  occ. eigenvalues --   -0.47443  -0.46858  -0.46521  -0.46092  -0.45576
 Alpha  occ. eigenvalues --   -0.45443  -0.45011  -0.44709  -0.44300  -0.44151
 Alpha  occ. eigenvalues --   -0.43750  -0.43334  -0.42252  -0.41680  -0.40968
 Alpha  occ. eigenvalues --   -0.40395  -0.39941  -0.39793  -0.39423  -0.37902
 Alpha  occ. eigenvalues --   -0.37796  -0.37369  -0.37271  -0.36580  -0.36167
 Alpha  occ. eigenvalues --   -0.35890  -0.34972  -0.34659  -0.34253  -0.34111
 Alpha  occ. eigenvalues --   -0.32799  -0.31987
 Alpha virt. eigenvalues --   -0.09473  -0.09025  -0.08680  -0.08478  -0.08367
 Alpha virt. eigenvalues --   -0.08026  -0.06806  -0.06553  -0.04489  -0.02690
 Alpha virt. eigenvalues --   -0.01843  -0.01835  -0.01092   0.00164   0.00384

 Mulliken charges:
               1
     1  N   -0.752747
     2  H    0.332363
     3  H    0.323578
     4  C   -0.079085
     5  H    0.153455
     6  C    0.637243
     7  C   -0.359898
     8  H    0.164873
     9  H    0.161498
    10  O   -0.545316
    11  C    0.156869
    12  C   -0.184449
    13  H    0.139528
    14  C   -0.205393
    15  H    0.130817
    16  C   -0.129856
    17  H    0.147851
    18  C   -0.129172
    19  H    0.147767
    20  C   -0.130348
    21  H    0.149783
    22  N   -0.612665
    23  H    0.348412
    24  C   -0.069904
    25  H    0.169769
    26  C    0.650115
    27  C   -0.264974
    28  H    0.150771
    29  H    0.178739
    30  O   -0.589012
    31  C   -0.100491
    32  H    0.154009
    33  C   -0.464307
    34  H    0.146135
    35  H    0.159231
    36  H    0.145083
    37  C   -0.442671
    38  H    0.144550
    39  H    0.144739
    40  H    0.154259
    41  N   -0.610004
    42  H    0.404003
    43  C   -0.021713
    44  H    0.160104
    45  C    0.641828
    46  C   -0.410282
    47  H    0.225015
    48  H    0.166560
    49  O   -0.524771
    50  C    0.623424
    51  N   -0.737083
    52  H    0.364254
    53  H    0.355438
    54  O   -0.523961
    55  N   -0.603650
    56  H    0.346102
    57  C   -0.063799
    58  H    0.220917
    59  C    0.585539
    60  C   -0.272606
    61  H    0.191492
    62  H    0.149735
    63  O   -0.438895
    64  C   -0.325572
    65  H    0.174027
    66  H    0.202116
    67  C   -0.153988
    68  H    0.168991
    69  H    0.178291
    70  N   -0.619583
    71  H    0.416543
    72  N   -0.757948
    73  H    0.375766
    74  H    0.376036
    75  N   -0.789139
    76  H    0.394811
    77  H    0.379989
    78  C    0.771810
    79  O   -0.578826
    80  H    0.427882
 Sum of Mulliken charges =   1.00000

 Dipole moment (field-independent basis, Debye):
    X=              7.7922    Y=             12.3788    Z=              1.3481  Tot=             14.6891
 Quadrupole moment (field-independent basis, Debye-Ang):
   XX=           -169.7792   YY=           -102.5290   ZZ=           -202.5799
   XY=            -12.8066   XZ=            -15.2205   YZ=             -3.9087

 Normal termination of Gaussian 16 at Sun Jun 19 01:47:03 2022.
