 Gaussian 16, Revision C.01,
 Gaussian 16:  ES64L-G16RevC.01  3-Jul-2019

 -------------------------------------------------------------------
 # B3LYP/6-31G* guess=read geom=check nosymm integral(ultrafinegrid)
 -------------------------------------------------------------------

 ------------------------------------------------------
 Candidate Structure: Conf:727 Charge calc in gas phase
 ------------------------------------------------------
 Structure from the checkpoint file:  "conf-727.chk"
 Charge =  1 Multiplicity = 1

                          Input orientation:
 ---------------------------------------------------------------------
 Center     Atomic      Atomic             Coordinates (Angstroms)
 Number     Number       Type             X           Y           Z
 ---------------------------------------------------------------------
      1          7           0       -5.455919   -1.639691    4.544639
      2          1           0       -6.354129   -1.954503    4.179958
      3          1           0       -4.799210   -2.375532    4.282597
      4          6           0       -5.061783   -0.423293    3.846796
      5          1           0       -5.908645    0.274891    3.879419
      6          6           0       -4.720516   -0.675937    2.360223
      7          6           0       -3.889133    0.275617    4.598648
      8          1           0       -4.273970    0.524404    5.592929
      9          1           0       -3.648991    1.221284    4.097820
     10          8           0       -4.541158   -1.805999    1.920550
     11          6           0       -2.629234   -0.554338    4.735075
     12          6           0       -2.499700   -1.496107    5.765671
     13          1           0       -3.318882   -1.627570    6.466800
     14          6           0       -1.563840   -0.397967    3.835467
     15          1           0       -1.658111    0.335843    3.037600
     16          6           0       -1.340557   -2.263858    5.892766
     17          1           0       -1.259527   -2.987073    6.699802
     18          6           0       -0.405209   -1.167618    3.960531
     19          1           0        0.410836   -1.049510    3.249225
     20          6           0       -0.287953   -2.102609    4.991114
     21          1           0        0.614415   -2.699885    5.089853
     22          7           0       -4.667269    0.446395    1.567670
     23          1           0       -4.588599    1.341237    2.036509
     24          6           0       -4.078745    0.405786    0.239564
     25          1           0       -3.951123   -0.652827   -0.001762
     26          6           0       -2.692921    1.068312    0.300194
     27          6           0       -4.970366    1.088377   -0.822752
     28          1           0       -5.051557    2.156471   -0.575486
     29          1           0       -4.457655    1.036309   -1.794454
     30          8           0       -2.365707    1.824077    1.218437
     31          6           0       -6.383266    0.489197   -0.964505
     32          1           0       -6.877995    0.581485    0.011731
     33          6           0       -7.191819    1.303256   -1.985940
     34          1           0       -6.745135    1.237364   -2.986759
     35          1           0       -8.219481    0.930022   -2.057868
     36          1           0       -7.239416    2.363722   -1.710342
     37          6           0       -6.356153   -0.999691   -1.342607
     38          1           0       -5.809093   -1.158436   -2.282213
     39          1           0       -5.890290   -1.614559   -0.565342
     40          1           0       -7.374881   -1.375717   -1.490298
     41          7           0       -1.832692    0.766988   -0.707597
     42          1           0       -2.108248    0.226099   -1.520065
     43          6           0       -0.516489    1.364472   -0.748989
     44          1           0       -0.610411    2.433999   -0.524888
     45          6           0        0.025270    1.204963   -2.179454
     46          6           0        0.429707    0.725420    0.319043
     47          1           0       -0.193306    0.293906    1.102626
     48          1           0        1.005436   -0.094118   -0.128250
     49          8           0       -0.612759    0.632992   -3.057133
     50          6           0        1.416483    1.725989    0.904349
     51          7           0        1.468256    1.793585    2.250473
     52          1           0        2.081895    2.476935    2.675078
     53          1           0        0.792762    1.327519    2.841366
     54          8           0        2.146652    2.425656    0.186105
     55          7           0        1.257480    1.754736   -2.369469
     56          1           0        1.744044    2.113301   -1.534575
     57          6           0        1.955085    1.602083   -3.627233
     58          1           0        1.270845    1.030575   -4.270656
     59          6           0        3.196740    0.718918   -3.470340
     60          6           0        2.265671    2.943534   -4.312293
     61          1           0        1.304422    3.403379   -4.558609
     62          1           0        2.753323    2.730804   -5.271276
     63          8           0        4.298622    0.940847   -3.963489
     64          6           0        3.114709    3.930786   -3.466387
     65          1           0        2.487665    4.744728   -3.091561
     66          1           0        3.529213    3.441354   -2.576486
     67          6           0        4.274610    4.558981   -4.247461
     68          1           0        3.897222    5.070362   -5.143626
     69          1           0        4.796625    5.293928   -3.622651
     70          7           0        5.216014    3.498871   -4.638831
     71          1           0        4.896730    2.533526   -4.473281
     72          7           0        6.870885    4.882989   -5.513295
     73          1           0        7.852594    5.050192   -5.680923
     74          1           0        6.267042    5.690203   -5.468906
     75          7           0        7.254849    2.609596   -5.261792
     76          1           0        8.027903    2.634201   -5.911790
     77          1           0        6.928720    1.694595   -4.978772
     78          6           0        6.429148    3.669814   -5.138741
     79          8           0        2.957338   -0.377506   -2.752986
     80          1           0        3.777077   -0.908394   -2.726033
 ---------------------------------------------------------------------

 SCF Done:  E(RB3LYP) =  -1866.62435368     A.U. after    1 cycles

 Alpha  occ. eigenvalues --  -19.32340 -19.27967 -19.21421 -19.21327 -19.18933
 Alpha  occ. eigenvalues --  -19.16555 -14.53235 -14.52604 -14.51736 -14.45000
 Alpha  occ. eigenvalues --  -14.44851 -14.43425 -14.40809 -14.35338 -10.49044
 Alpha  occ. eigenvalues --  -10.45395 -10.38792 -10.38215 -10.36962 -10.35724
 Alpha  occ. eigenvalues --  -10.35073 -10.33109 -10.32594 -10.31719 -10.30866
 Alpha  occ. eigenvalues --  -10.28886 -10.28740 -10.27104 -10.24523 -10.24262
 Alpha  occ. eigenvalues --  -10.24213 -10.23902 -10.23752 -10.23710 -10.23647
 Alpha  occ. eigenvalues --  -10.23507 -10.23121 -10.21899 -10.21480  -1.23830
 Alpha  occ. eigenvalues --   -1.17571  -1.14639  -1.13382  -1.12691  -1.10817
 Alpha  occ. eigenvalues --   -1.08208  -1.06677  -1.05908  -1.02534  -1.00089
 Alpha  occ. eigenvalues --   -0.99710  -0.97460  -0.93125  -0.92538  -0.89899
 Alpha  occ. eigenvalues --   -0.88563  -0.86400  -0.85404  -0.82315  -0.81823
 Alpha  occ. eigenvalues --   -0.80500  -0.79759  -0.79032  -0.77160  -0.75839
 Alpha  occ. eigenvalues --   -0.75570  -0.74627  -0.72633  -0.71845  -0.71158
 Alpha  occ. eigenvalues --   -0.70413  -0.68738  -0.68434  -0.66865  -0.66567
 Alpha  occ. eigenvalues --   -0.65877  -0.65750  -0.65181  -0.64953  -0.63550
 Alpha  occ. eigenvalues --   -0.62914  -0.62804  -0.62310  -0.61772  -0.61070
 Alpha  occ. eigenvalues --   -0.59820  -0.59239  -0.58518  -0.57816  -0.57163
 Alpha  occ. eigenvalues --   -0.56421  -0.55501  -0.55030  -0.54833  -0.54302
 Alpha  occ. eigenvalues --   -0.54128  -0.53546  -0.53353  -0.52852  -0.52270
 Alpha  occ. eigenvalues --   -0.51803  -0.51251  -0.50686  -0.50490  -0.50137
 Alpha  occ. eigenvalues --   -0.49631  -0.49092  -0.48806  -0.48130  -0.47307
 Alpha  occ. eigenvalues --   -0.47184  -0.46740  -0.46562  -0.46413  -0.46093
 Alpha  occ. eigenvalues --   -0.45817  -0.45805  -0.45533  -0.44949  -0.44809
 Alpha  occ. eigenvalues --   -0.44108  -0.43541  -0.43177  -0.42851  -0.42537
 Alpha  occ. eigenvalues --   -0.42105  -0.41879  -0.41516  -0.41381  -0.40763
 Alpha  occ. eigenvalues --   -0.39676  -0.38473  -0.37892  -0.37702  -0.37212
 Alpha  occ. eigenvalues --   -0.37097  -0.36448  -0.35912  -0.35187  -0.34967
 Alpha  occ. eigenvalues --   -0.33042  -0.32664  -0.31044  -0.30131  -0.29689
 Alpha  occ. eigenvalues --   -0.29255  -0.27897
 Alpha virt. eigenvalues --   -0.12986  -0.12514  -0.08803  -0.07318  -0.06624
 Alpha virt. eigenvalues --   -0.05345  -0.05266  -0.05025  -0.04628  -0.03833
 Alpha virt. eigenvalues --   -0.03591  -0.02498  -0.02005  -0.01133  -0.00794

 Mulliken charges:
               1
     1  N   -0.698236
     2  H    0.307278
     3  H    0.319412
     4  C   -0.086682
     5  H    0.150819
     6  C    0.590748
     7  C   -0.350163
     8  H    0.169795
     9  H    0.146500
    10  O   -0.518293
    11  C    0.152000
    12  C   -0.179468
    13  H    0.155628
    14  C   -0.211163
    15  H    0.151576
    16  C   -0.127065
    17  H    0.139914
    18  C   -0.147889
    19  H    0.103517
    20  C   -0.128396
    21  H    0.131498
    22  N   -0.584131
    23  H    0.336497
    24  C   -0.090264
    25  H    0.197064
    26  C    0.632230
    27  C   -0.262404
    28  H    0.138697
    29  H    0.132424
    30  O   -0.550392
    31  C   -0.062343
    32  H    0.139375
    33  C   -0.445150
    34  H    0.139450
    35  H    0.151808
    36  H    0.140907
    37  C   -0.468550
    38  H    0.132231
    39  H    0.175215
    40  H    0.150767
    41  N   -0.625322
    42  H    0.360860
    43  C   -0.023252
    44  H    0.200824
    45  C    0.595018
    46  C   -0.397748
    47  H    0.202291
    48  H    0.190481
    49  O   -0.517733
    50  C    0.631937
    51  N   -0.738665
    52  H    0.356223
    53  H    0.374118
    54  O   -0.552990
    55  N   -0.643335
    56  H    0.400649
    57  C   -0.072545
    58  H    0.233499
    59  C    0.619622
    60  C   -0.286588
    61  H    0.189013
    62  H    0.156967
    63  O   -0.525760
    64  C   -0.315169
    65  H    0.192347
    66  H    0.179494
    67  C   -0.163272
    68  H    0.183705
    69  H    0.183855
    70  N   -0.635141
    71  H    0.427601
    72  N   -0.760309
    73  H    0.384514
    74  H    0.390403
    75  N   -0.763599
    76  H    0.379018
    77  H    0.391385
    78  C    0.813421
    79  O   -0.522355
    80  H    0.431779
 Sum of Mulliken charges =   1.00000

 Dipole moment (field-independent basis, Debye):
    X=             24.7575    Y=             16.1288    Z=            -18.9465  Tot=             35.1005
 Quadrupole moment (field-independent basis, Debye-Ang):
   XX=            -43.5029   YY=           -157.9093   ZZ=           -116.0077
   XY=             79.8303   XZ=           -129.9531   YZ=            -75.1225

 Normal termination of Gaussian 16 at Sun Jun 19 01:46:51 2022.
