 Gaussian 16, Revision C.01,
 Gaussian 16:  ES64L-G16RevC.01  3-Jul-2019

 -------------------------------------------------------------------
 # B3LYP/6-31G* guess=read geom=check nosymm integral(ultrafinegrid)
 -------------------------------------------------------------------

 ------------------------------------------------------
 Candidate Structure: Conf:879 Charge calc in gas phase
 ------------------------------------------------------
 Structure from the checkpoint file:  "conf-879.chk"
 Charge =  1 Multiplicity = 1

                          Input orientation:
 ---------------------------------------------------------------------
 Center     Atomic      Atomic             Coordinates (Angstroms)
 Number     Number       Type             X           Y           Z
 ---------------------------------------------------------------------
      1          7           0       -3.924940    3.145805    0.720720
      2          1           0       -4.843826    2.702470    0.734196
      3          1           0       -4.034173    4.036046    1.202026
      4          6           0       -2.954752    2.312425    1.442512
      5          1           0       -2.087395    2.951269    1.657205
      6          6           0       -2.366609    1.243556    0.513493
      7          6           0       -3.435828    1.707424    2.778171
      8          1           0       -2.673269    0.997567    3.116169
      9          1           0       -4.347927    1.121711    2.601603
     10          8           0       -1.761321    0.250849    0.944600
     11          6           0       -3.690010    2.764955    3.832813
     12          6           0       -2.628581    3.537570    4.331418
     13          1           0       -1.620091    3.371841    3.955093
     14          6           0       -4.978498    3.007295    4.323429
     15          1           0       -5.812309    2.414393    3.953172
     16          6           0       -2.852110    4.519627    5.295717
     17          1           0       -2.018241    5.106682    5.671520
     18          6           0       -5.205591    3.988754    5.291473
     19          1           0       -6.212845    4.157367    5.662780
     20          6           0       -4.142747    4.747973    5.780276
     21          1           0       -4.316555    5.511333    6.533474
     22          7           0       -2.473703    1.523701   -0.806326
     23          1           0       -2.948197    2.397184   -1.026803
     24          6           0       -1.822059    0.728928   -1.847597
     25          1           0       -1.876004   -0.312995   -1.513301
     26          6           0       -0.328249    1.141566   -1.901838
     27          6           0       -2.551261    0.917596   -3.181047
     28          1           0       -3.620406    0.745004   -2.999064
     29          1           0       -2.438752    1.964361   -3.488897
     30          8           0        0.163331    1.804525   -2.816494
     31          6           0       -2.084053    0.015709   -4.340627
     32          1           0       -1.021404    0.232026   -4.509275
     33          6           0       -2.240254   -1.482149   -4.032108
     34          1           0       -3.285462   -1.736376   -3.817328
     35          1           0       -1.933690   -2.091768   -4.892341
     36          1           0       -1.645532   -1.800312   -3.166522
     37          6           0       -2.849349    0.382262   -5.621453
     38          1           0       -3.924568    0.198312   -5.505379
     39          1           0       -2.717504    1.439816   -5.876246
     40          1           0       -2.506431   -0.215275   -6.475310
     41          7           0        0.386593    0.744737   -0.811832
     42          1           0       -0.167773    0.337576   -0.052491
     43          6           0        1.606803    1.446294   -0.443140
     44          1           0        1.410218    2.525695   -0.419868
     45          6           0        2.744618    1.168052   -1.432075
     46          6           0        2.043554    1.021634    0.968390
     47          1           0        2.120275   -0.070421    1.024160
     48          1           0        3.043805    1.423540    1.173932
     49          8           0        2.936154    0.055858   -1.944415
     50          6           0        1.100083    1.584740    2.045423
     51          7           0        1.093901    0.895222    3.213807
     52          1           0        0.471307    1.202953    3.948931
     53          1           0        1.520848   -0.014287    3.307732
     54          8           0        0.459068    2.614141    1.868111
     55          7           0        3.564846    2.215744   -1.656736
     56          1           0        3.416572    3.086601   -1.154620
     57          6           0        4.865127    2.101748   -2.304378
     58          1           0        5.259798    1.097611   -2.111945
     59          6           0        5.777050    3.118140   -1.613066
     60          6           0        4.868106    2.342423   -3.835666
     61          1           0        5.917167    2.425502   -4.135373
     62          1           0        4.403539    3.314816   -4.045635
     63          8           0        5.384978    3.968700   -0.844529
     64          6           0        4.211765    1.230089   -4.678867
     65          1           0        4.705956    1.205236   -5.658546
     66          1           0        4.392235    0.256613   -4.210352
     67          6           0        2.705501    1.418756   -4.914315
     68          1           0        2.117762    1.475184   -3.997542
     69          1           0        2.519680    2.353239   -5.453299
     70          7           0        2.141151    0.345350   -5.752880
     71          1           0        2.313494    0.407995   -6.748263
     72          7           0        1.618007   -1.169804   -4.049420
     73          1           0        1.005030   -1.912263   -3.742878
     74          1           0        2.115881   -0.655313   -3.304924
     75          7           0        1.055613   -1.628347   -6.251659
     76          1           0        0.700012   -2.532523   -5.977048
     77          1           0        0.702678   -1.252722   -7.120264
     78          6           0        1.604213   -0.803100   -5.326460
     79          8           0        7.060076    2.962571   -1.975915
     80          1           0        7.580003    3.650620   -1.516630
 ---------------------------------------------------------------------

 SCF Done:  E(RB3LYP) =  -1866.63817055     A.U. after    1 cycles

 Alpha  occ. eigenvalues --  -19.30059 -19.24644 -19.22950 -19.21264 -19.20183
 Alpha  occ. eigenvalues --  -19.19594 -14.51208 -14.51190 -14.49704 -14.47003
 Alpha  occ. eigenvalues --  -14.44314 -14.44077 -14.43803 -14.39709 -10.47232
 Alpha  occ. eigenvalues --  -10.42655 -10.39939 -10.38047 -10.37583 -10.36241
 Alpha  occ. eigenvalues --  -10.34746 -10.33948 -10.33304 -10.31927 -10.29991
 Alpha  occ. eigenvalues --  -10.29946 -10.29850 -10.29307 -10.27943 -10.27061
 Alpha  occ. eigenvalues --  -10.26930 -10.25812 -10.25172 -10.25052 -10.24239
 Alpha  occ. eigenvalues --  -10.24213 -10.24152 -10.24141 -10.23980  -1.21158
 Alpha  occ. eigenvalues --   -1.15635  -1.14677  -1.12693  -1.12304  -1.11873
 Alpha  occ. eigenvalues --   -1.11076  -1.05045  -1.03733  -1.03269  -1.01446
 Alpha  occ. eigenvalues --   -1.00492  -0.99083  -0.96368  -0.91393  -0.90671
 Alpha  occ. eigenvalues --   -0.89806  -0.88325  -0.86224  -0.83673  -0.83131
 Alpha  occ. eigenvalues --   -0.81065  -0.79570  -0.77933  -0.77791  -0.77282
 Alpha  occ. eigenvalues --   -0.76813  -0.74263  -0.72916  -0.72400  -0.71861
 Alpha  occ. eigenvalues --   -0.70398  -0.69409  -0.69026  -0.67368  -0.67179
 Alpha  occ. eigenvalues --   -0.65803  -0.65681  -0.64595  -0.64181  -0.63764
 Alpha  occ. eigenvalues --   -0.63291  -0.62849  -0.61751  -0.61053  -0.60454
 Alpha  occ. eigenvalues --   -0.59537  -0.58932  -0.58545  -0.58036  -0.57927
 Alpha  occ. eigenvalues --   -0.56934  -0.56687  -0.56002  -0.55455  -0.55008
 Alpha  occ. eigenvalues --   -0.54802  -0.54616  -0.54197  -0.53104  -0.52669
 Alpha  occ. eigenvalues --   -0.52569  -0.51938  -0.51629  -0.51402  -0.50821
 Alpha  occ. eigenvalues --   -0.50458  -0.49937  -0.49743  -0.49426  -0.49246
 Alpha  occ. eigenvalues --   -0.48488  -0.48271  -0.48006  -0.47564  -0.47297
 Alpha  occ. eigenvalues --   -0.47145  -0.47018  -0.46432  -0.45617  -0.45583
 Alpha  occ. eigenvalues --   -0.45307  -0.45147  -0.44693  -0.44443  -0.44349
 Alpha  occ. eigenvalues --   -0.42157  -0.42059  -0.41880  -0.41639  -0.41355
 Alpha  occ. eigenvalues --   -0.41112  -0.40883  -0.39669  -0.39188  -0.39003
 Alpha  occ. eigenvalues --   -0.38398  -0.37003  -0.36874  -0.36151  -0.35497
 Alpha  occ. eigenvalues --   -0.34901  -0.34268  -0.33988  -0.32616  -0.31936
 Alpha  occ. eigenvalues --   -0.30246  -0.29324
 Alpha virt. eigenvalues --   -0.11408  -0.09843  -0.09110  -0.08166  -0.08085
 Alpha virt. eigenvalues --   -0.06539  -0.05816  -0.05196  -0.04680  -0.04150
 Alpha virt. eigenvalues --   -0.03535  -0.01963  -0.01097  -0.00682   0.00327

 Mulliken charges:
               1
     1  N   -0.749083
     2  H    0.309917
     3  H    0.331005
     4  C   -0.093419
     5  H    0.215210
     6  C    0.640429
     7  C   -0.359736
     8  H    0.173669
     9  H    0.141624
    10  O   -0.579161
    11  C    0.166598
    12  C   -0.203165
    13  H    0.137227
    14  C   -0.196238
    15  H    0.124659
    16  C   -0.128945
    17  H    0.137401
    18  C   -0.126606
    19  H    0.140089
    20  C   -0.129404
    21  H    0.140556
    22  N   -0.606492
    23  H    0.367613
    24  C   -0.061356
    25  H    0.176562
    26  C    0.620841
    27  C   -0.271062
    28  H    0.150699
    29  H    0.159101
    30  O   -0.544863
    31  C   -0.088001
    32  H    0.129312
    33  C   -0.458809
    34  H    0.168966
    35  H    0.120845
    36  H    0.134122
    37  C   -0.444742
    38  H    0.158470
    39  H    0.156353
    40  H    0.125500
    41  N   -0.630114
    42  H    0.390752
    43  C   -0.035451
    44  H    0.192617
    45  C    0.649332
    46  C   -0.410010
    47  H    0.178103
    48  H    0.198097
    49  O   -0.586106
    50  C    0.625821
    51  N   -0.742032
    52  H    0.361582
    53  H    0.348980
    54  O   -0.510264
    55  N   -0.595807
    56  H    0.368352
    57  C   -0.041015
    58  H    0.202675
    59  C    0.584342
    60  C   -0.281799
    61  H    0.188405
    62  H    0.162425
    63  O   -0.452849
    64  C   -0.267863
    65  H    0.150874
    66  H    0.168974
    67  C   -0.201727
    68  H    0.240489
    69  H    0.182538
    70  N   -0.595233
    71  H    0.357471
    72  N   -0.791123
    73  H    0.367209
    74  H    0.463694
    75  N   -0.766321
    76  H    0.376035
    77  H    0.375808
    78  C    0.810038
    79  O   -0.556201
    80  H    0.433613
 Sum of Mulliken charges =   1.00000

 Dipole moment (field-independent basis, Debye):
    X=              6.8164    Y=              1.0769    Z=            -15.8478  Tot=             17.2851
 Quadrupole moment (field-independent basis, Debye-Ang):
   XX=           -150.8330   YY=           -208.3828   ZZ=            -93.4457
   XY=              8.8266   XZ=            -35.1194   YZ=             15.8169

 Normal termination of Gaussian 16 at Sun Jun 19 01:55:16 2022.
