 Gaussian 16, Revision C.01,
 Gaussian 16:  ES64L-G16RevC.01  3-Jul-2019

 -------------------------------------------------------------------
 # B3LYP/6-31G* guess=read geom=check nosymm integral(ultrafinegrid)
 -------------------------------------------------------------------

 ------------------------------------------------------
 Candidate Structure: Conf:549 Charge calc in gas phase
 ------------------------------------------------------
 Structure from the checkpoint file:  "conf-549.chk"
 Charge =  1 Multiplicity = 1

                          Input orientation:
 ---------------------------------------------------------------------
 Center     Atomic      Atomic             Coordinates (Angstroms)
 Number     Number       Type             X           Y           Z
 ---------------------------------------------------------------------
      1          7           0       -4.128881    2.726776    2.794387
      2          1           0       -4.645247    3.120923    2.009309
      3          1           0       -4.470573    1.770734    2.891382
      4          6           0       -2.712899    2.674545    2.472761
      5          1           0       -2.380417    3.698047    2.247608
      6          6           0       -2.403719    1.793052    1.243829
      7          6           0       -1.901208    2.199933    3.715495
      8          1           0       -2.047006    2.963439    4.486274
      9          1           0       -0.833754    2.193228    3.459666
     10          8           0       -3.155927    0.907571    0.860945
     11          6           0       -2.314973    0.844799    4.250226
     12          6           0       -3.297104    0.742450    5.246025
     13          1           0       -3.747774    1.648060    5.643526
     14          6           0       -1.747422   -0.333977    3.748453
     15          1           0       -0.980964   -0.284541    2.979622
     16          6           0       -3.702399   -0.505065    5.723548
     17          1           0       -4.462933   -0.564377    6.497502
     18          6           0       -2.154365   -1.582177    4.218340
     19          1           0       -1.707451   -2.477229    3.795161
     20          6           0       -3.133499   -1.671641    5.209356
     21          1           0       -3.452383   -2.642719    5.578596
     22          7           0       -1.210051    2.063810    0.610155
     23          1           0       -0.646250    2.844586    0.920870
     24          6           0       -0.738187    1.303053   -0.541996
     25          1           0       -1.326449    0.382913   -0.553394
     26          6           0        0.742875    0.983243   -0.304656
     27          6           0       -0.913305    2.059264   -1.873768
     28          1           0       -0.384526    3.019093   -1.761942
     29          1           0       -0.401367    1.489045   -2.664825
     30          8           0        1.617743    1.859664   -0.449286
     31          6           0       -2.364660    2.335108   -2.312470
     32          1           0       -2.870027    2.858759   -1.490064
     33          6           0       -2.362990    3.268000   -3.533801
     34          1           0       -1.867413    2.794076   -4.392507
     35          1           0       -3.384519    3.512363   -3.843245
     36          1           0       -1.850633    4.216243   -3.319795
     37          6           0       -3.144478    1.044823   -2.605923
     38          1           0       -2.637485    0.440639   -3.370193
     39          1           0       -3.273596    0.439601   -1.704316
     40          1           0       -4.144925    1.282215   -2.983958
     41          7           0        1.034794   -0.260631    0.102974
     42          1           0        0.294351   -0.903129    0.391347
     43          6           0        2.380608   -0.662148    0.481611
     44          1           0        2.700000   -0.090542    1.364340
     45          6           0        3.383992   -0.422704   -0.667510
     46          6           0        2.416108   -2.178065    0.800280
     47          1           0        2.184469   -2.726058   -0.120946
     48          1           0        3.434888   -2.446267    1.097789
     49          8           0        3.078151   -0.559838   -1.843056
     50          6           0        1.389034   -2.600440    1.850044
     51          7           0        1.857594   -3.309381    2.901472
     52          1           0        1.196595   -3.645170    3.590399
     53          1           0        2.823349   -3.587847    2.989213
     54          8           0        0.197724   -2.312074    1.721517
     55          7           0        4.651406   -0.119933   -0.246449
     56          1           0        4.865046   -0.195365    0.743469
     57          6           0        5.807769   -0.306097   -1.116509
     58          1           0        5.504901   -0.970649   -1.934587
     59          6           0        6.878811   -1.019796   -0.292280
     60          6           0        6.361905    0.995207   -1.747950
     61          1           0        7.201917    0.709830   -2.387648
     62          1           0        6.774828    1.641779   -0.961632
     63          8           0        6.770508   -1.273212    0.889175
     64          6           0        5.304529    1.755048   -2.576580
     65          1           0        5.794343    2.231360   -3.435147
     66          1           0        4.575853    1.044363   -2.978101
     67          6           0        4.551507    2.810098   -1.740519
     68          1           0        4.362277    2.424507   -0.738460
     69          1           0        5.140816    3.729241   -1.623893
     70          7           0        3.220792    3.141662   -2.265006
     71          1           0        2.443852    2.688403   -1.760994
     72          7           0        3.931941    4.484443   -4.034541
     73          1           0        3.727705    5.271634   -4.633402
     74          1           0        4.899274    4.348933   -3.782887
     75          7           0        1.671366    4.204957   -3.618123
     76          1           0        1.453070    4.535051   -4.547920
     77          1           0        0.925546    3.713254   -3.140818
     78          6           0        2.952926    3.926401   -3.293034
     79          8           0        7.957882   -1.322629   -1.029788
     80          1           0        8.600733   -1.766643   -0.443054
 ---------------------------------------------------------------------

 SCF Done:  E(RB3LYP) =  -1866.62350712     A.U. after    2 cycles

 Alpha  occ. eigenvalues --  -19.30539 -19.25167 -19.23170 -19.22361 -19.21935
 Alpha  occ. eigenvalues --  -19.18875 -14.51896 -14.51156 -14.50312 -14.46762
 Alpha  occ. eigenvalues --  -14.46442 -14.46126 -14.44311 -14.36993 -10.47635
 Alpha  occ. eigenvalues --  -10.43131 -10.39779 -10.39647 -10.39623 -10.35552
 Alpha  occ. eigenvalues --  -10.35103 -10.35065 -10.34872 -10.32469 -10.31230
 Alpha  occ. eigenvalues --  -10.30413 -10.30325 -10.29063 -10.28286 -10.27109
 Alpha  occ. eigenvalues --  -10.25765 -10.25337 -10.24477 -10.23844 -10.23504
 Alpha  occ. eigenvalues --  -10.23481 -10.23441 -10.23406 -10.23352  -1.21634
 Alpha  occ. eigenvalues --   -1.16165  -1.15011  -1.13886  -1.13631  -1.12730
 Alpha  occ. eigenvalues --   -1.10749  -1.05232  -1.04543  -1.03452  -1.03138
 Alpha  occ. eigenvalues --   -1.00820  -1.00461  -0.94893  -0.91855  -0.89945
 Alpha  occ. eigenvalues --   -0.89796  -0.89100  -0.86714  -0.83990  -0.82544
 Alpha  occ. eigenvalues --   -0.81476  -0.78917  -0.78844  -0.77358  -0.77188
 Alpha  occ. eigenvalues --   -0.75694  -0.74738  -0.73927  -0.72657  -0.72053
 Alpha  occ. eigenvalues --   -0.70128  -0.69842  -0.69406  -0.68967  -0.68180
 Alpha  occ. eigenvalues --   -0.66556  -0.65034  -0.64997  -0.64730  -0.64283
 Alpha  occ. eigenvalues --   -0.63932  -0.62845  -0.62684  -0.61811  -0.60626
 Alpha  occ. eigenvalues --   -0.59980  -0.59276  -0.59123  -0.58750  -0.57524
 Alpha  occ. eigenvalues --   -0.57253  -0.57099  -0.56663  -0.55966  -0.55515
 Alpha  occ. eigenvalues --   -0.55234  -0.54821  -0.54336  -0.53428  -0.52985
 Alpha  occ. eigenvalues --   -0.52492  -0.52225  -0.51614  -0.51401  -0.50639
 Alpha  occ. eigenvalues --   -0.50345  -0.50253  -0.49821  -0.49638  -0.49096
 Alpha  occ. eigenvalues --   -0.48948  -0.48384  -0.48212  -0.47546  -0.47168
 Alpha  occ. eigenvalues --   -0.46988  -0.46679  -0.46388  -0.46172  -0.45982
 Alpha  occ. eigenvalues --   -0.45889  -0.45302  -0.44558  -0.44003  -0.43358
 Alpha  occ. eigenvalues --   -0.42849  -0.42687  -0.42664  -0.40949  -0.40488
 Alpha  occ. eigenvalues --   -0.40409  -0.39989  -0.39891  -0.38834  -0.38594
 Alpha  occ. eigenvalues --   -0.38240  -0.37842  -0.37262  -0.36780  -0.36676
 Alpha  occ. eigenvalues --   -0.36296  -0.34995  -0.33185  -0.32824  -0.30105
 Alpha  occ. eigenvalues --   -0.29442  -0.28733
 Alpha virt. eigenvalues --   -0.11607  -0.10092  -0.09570  -0.09104  -0.08082
 Alpha virt. eigenvalues --   -0.07259  -0.05409  -0.05070  -0.04866  -0.04083
 Alpha virt. eigenvalues --   -0.03273  -0.02834  -0.02141  -0.01195  -0.00694

 Mulliken charges:
               1
     1  N   -0.693103
     2  H    0.303748
     3  H    0.327043
     4  C   -0.079264
     5  H    0.133352
     6  C    0.606144
     7  C   -0.340057
     8  H    0.170503
     9  H    0.128888
    10  O   -0.508417
    11  C    0.153166
    12  C   -0.182321
    13  H    0.143851
    14  C   -0.173659
    15  H    0.112005
    16  C   -0.128083
    17  H    0.138493
    18  C   -0.135673
    19  H    0.129178
    20  C   -0.128714
    21  H    0.133270
    22  N   -0.619042
    23  H    0.332075
    24  C   -0.057829
    25  H    0.203112
    26  C    0.655657
    27  C   -0.275204
    28  H    0.115539
    29  H    0.139778
    30  O   -0.600746
    31  C   -0.065826
    32  H    0.143598
    33  C   -0.456582
    34  H    0.134988
    35  H    0.170729
    36  H    0.121835
    37  C   -0.467305
    38  H    0.136052
    39  H    0.190635
    40  H    0.157278
    41  N   -0.614663
    42  H    0.399052
    43  C   -0.032704
    44  H    0.172737
    45  C    0.623750
    46  C   -0.407936
    47  H    0.218361
    48  H    0.167663
    49  O   -0.516404
    50  C    0.627649
    51  N   -0.737191
    52  H    0.369081
    53  H    0.357077
    54  O   -0.509987
    55  N   -0.613751
    56  H    0.352716
    57  C   -0.052978
    58  H    0.211459
    59  C    0.588188
    60  C   -0.280172
    61  H    0.187697
    62  H    0.154699
    63  O   -0.464754
    64  C   -0.293121
    65  H    0.141417
    66  H    0.205175
    67  C   -0.186035
    68  H    0.209296
    69  H    0.167552
    70  N   -0.606393
    71  H    0.419522
    72  N   -0.756909
    73  H    0.378721
    74  H    0.383591
    75  N   -0.774567
    76  H    0.373366
    77  H    0.395194
    78  C    0.794452
    79  O   -0.552977
    80  H    0.433036
 Sum of Mulliken charges =   1.00000

 Dipole moment (field-independent basis, Debye):
    X=             18.8938    Y=              9.9130    Z=             -8.4924  Tot=             22.9644
 Quadrupole moment (field-independent basis, Debye-Ang):
   XX=           -128.1445   YY=           -145.9524   ZZ=           -172.8213
   XY=             20.2966   XZ=            -27.4656   YZ=            -68.4630

 Normal termination of Gaussian 16 at Sun Jun 19 01:47:04 2022.
