 Gaussian 16, Revision C.01,
 Gaussian 16:  ES64L-G16RevC.01  3-Jul-2019

 -------------------------------------------------------------------
 # B3LYP/6-31G* guess=read geom=check nosymm integral(ultrafinegrid)
 -------------------------------------------------------------------

 -----------------------------------------------------
 Candidate Structure: Conf:34 Charge calc in gas phase
 -----------------------------------------------------
 Structure from the checkpoint file:  "conf-34.chk"
 Charge =  1 Multiplicity = 1

                          Input orientation:
 ---------------------------------------------------------------------
 Center     Atomic      Atomic             Coordinates (Angstroms)
 Number     Number       Type             X           Y           Z
 ---------------------------------------------------------------------
      1          7           0       -4.457714    0.873415    3.451363
      2          1           0       -4.758356    1.266029    4.342297
      3          1           0       -5.254160    0.931268    2.819444
      4          6           0       -3.331483    1.656729    2.942371
      5          1           0       -3.612089    2.680738    2.627540
      6          6           0       -2.761298    0.916680    1.724014
      7          6           0       -2.232690    1.778750    4.022529
      8          1           0       -1.369033    2.282504    3.572365
      9          1           0       -1.925874    0.759765    4.278432
     10          8           0       -2.074102   -0.103650    1.817809
     11          6           0       -2.694848    2.528627    5.253567
     12          6           0       -3.195439    1.843446    6.370767
     13          1           0       -3.225738    0.756151    6.359690
     14          6           0       -2.648437    3.930105    5.296203
     15          1           0       -2.248318    4.477826    4.445192
     16          6           0       -3.643274    2.539151    7.496253
     17          1           0       -4.023844    1.990270    8.353401
     18          6           0       -3.093731    4.627680    6.418889
     19          1           0       -3.043758    5.713141    6.435658
     20          6           0       -3.594504    3.933307    7.522723
     21          1           0       -3.937845    4.475708    8.399159
     22          7           0       -3.080564    1.453333    0.509666
     23          1           0       -3.563360    2.341550    0.474774
     24          6           0       -2.716681    0.812025   -0.757825
     25          1           0       -2.768290   -0.265266   -0.572827
     26          6           0       -1.244260    1.150543   -1.095381
     27          6           0       -3.703892    1.206102   -1.859552
     28          1           0       -4.716674    1.087840   -1.452316
     29          1           0       -3.574150    2.274649   -2.080174
     30          8           0       -0.926415    1.968715   -1.982721
     31          6           0       -3.596691    0.391478   -3.167130
     32          1           0       -2.557890    0.449039   -3.521308
     33          6           0       -3.948154   -1.091164   -2.967477
     34          1           0       -4.970616   -1.204162   -2.585659
     35          1           0       -3.887869   -1.632253   -3.918014
     36          1           0       -3.270418   -1.592571   -2.268378
     37          6           0       -4.502854    1.014377   -4.240915
     38          1           0       -5.557172    0.968549   -3.941747
     39          1           0       -4.263890    2.072564   -4.414631
     40          1           0       -4.408360    0.482712   -5.194219
     41          7           0       -0.360331    0.518384   -0.314224
     42          1           0       -0.768543   -0.022210    0.454964
     43          6           0        1.062772    0.805824   -0.284085
     44          1           0        1.197770    1.894587   -0.269261
     45          6           0        1.764852    0.238698   -1.537402
     46          6           0        1.658941    0.247942    1.018306
     47          1           0        1.373761   -0.804250    1.144160
     48          1           0        2.754612    0.264390    0.975324
     49          8           0        1.200029   -0.485543   -2.344962
     50          6           0        1.218834    1.090088    2.227858
     51          7           0        1.405887    0.498987    3.434437
     52          1           0        1.108425    0.995931    4.263405
     53          1           0        1.647616   -0.476440    3.528962
     54          8           0        0.780710    2.226371    2.094098
     55          7           0        3.057525    0.671027   -1.699637
     56          1           0        3.530519    1.105257   -0.912947
     57          6           0        3.960433    0.023585   -2.646028
     58          1           0        3.512786   -0.937096   -2.924225
     59          6           0        5.271923   -0.243560   -1.910997
     60          6           0        4.208887    0.827779   -3.948563
     61          1           0        4.812047    0.196729   -4.607879
     62          1           0        4.816180    1.716509   -3.728912
     63          8           0        5.515881    0.153377   -0.790932
     64          6           0        2.901684    1.234677   -4.658480
     65          1           0        3.079917    1.293184   -5.738882
     66          1           0        2.149091    0.455647   -4.502411
     67          6           0        2.336535    2.583735   -4.148567
     68          1           0        2.716949    2.792671   -3.147236
     69          1           0        2.655146    3.422307   -4.778276
     70          7           0        0.877511    2.605502   -4.026536
     71          1           0        0.464450    2.233651   -3.161858
     72          7           0        0.357531    3.375776   -6.175012
     73          1           0       -0.245633    3.966048   -6.729411
     74          1           0        1.316166    3.293007   -6.476791
     75          7           0       -1.295702    3.141439   -4.560379
     76          1           0       -2.012404    3.103032   -5.271492
     77          1           0       -1.541828    2.806683   -3.625244
     78          6           0       -0.002823    3.031597   -4.921401
     79          8           0        6.130058   -0.951178   -2.661796
     80          1           0        6.947108   -1.071821   -2.139741
 ---------------------------------------------------------------------

 SCF Done:  E(RB3LYP) =  -1866.63138986     A.U. after    1 cycles

 Alpha  occ. eigenvalues --  -19.29868 -19.24478 -19.23833 -19.22046 -19.20709
 Alpha  occ. eigenvalues --  -19.20233 -14.51003 -14.49571 -14.49099 -14.46218
 Alpha  occ. eigenvalues --  -14.45922 -14.45788 -14.44314 -14.38477 -10.46444
 Alpha  occ. eigenvalues --  -10.42429 -10.39632 -10.39102 -10.38120 -10.37435
 Alpha  occ. eigenvalues --  -10.34824 -10.34188 -10.33831 -10.33195 -10.30316
 Alpha  occ. eigenvalues --  -10.30090 -10.29815 -10.29753 -10.28310 -10.28190
 Alpha  occ. eigenvalues --  -10.26414 -10.25481 -10.25436 -10.25152 -10.24560
 Alpha  occ. eigenvalues --  -10.24504 -10.24494 -10.24440 -10.24323  -1.20945
 Alpha  occ. eigenvalues --   -1.15221  -1.14637  -1.13737  -1.12379  -1.12058
 Alpha  occ. eigenvalues --   -1.12000  -1.04412  -1.03233  -1.02939  -1.02822
 Alpha  occ. eigenvalues --   -1.01718  -0.99126  -0.96103  -0.91254  -0.90916
 Alpha  occ. eigenvalues --   -0.90313  -0.88794  -0.86030  -0.84333  -0.83393
 Alpha  occ. eigenvalues --   -0.80522  -0.79874  -0.78543  -0.78239  -0.76773
 Alpha  occ. eigenvalues --   -0.76614  -0.74785  -0.72548  -0.72248  -0.71866
 Alpha  occ. eigenvalues --   -0.70323  -0.68866  -0.68413  -0.68244  -0.67729
 Alpha  occ. eigenvalues --   -0.67309  -0.66014  -0.64943  -0.64230  -0.63560
 Alpha  occ. eigenvalues --   -0.63309  -0.62841  -0.61974  -0.61325  -0.60403
 Alpha  occ. eigenvalues --   -0.59927  -0.58867  -0.58513  -0.58311  -0.57798
 Alpha  occ. eigenvalues --   -0.57309  -0.56449  -0.56269  -0.55882  -0.55592
 Alpha  occ. eigenvalues --   -0.55223  -0.54766  -0.54468  -0.53787  -0.53273
 Alpha  occ. eigenvalues --   -0.52704  -0.52170  -0.52025  -0.51749  -0.51390
 Alpha  occ. eigenvalues --   -0.51022  -0.50397  -0.49720  -0.49546  -0.49195
 Alpha  occ. eigenvalues --   -0.48919  -0.48267  -0.47846  -0.47397  -0.47367
 Alpha  occ. eigenvalues --   -0.46974  -0.46809  -0.46467  -0.46061  -0.45861
 Alpha  occ. eigenvalues --   -0.45502  -0.45344  -0.45059  -0.44667  -0.44410
 Alpha  occ. eigenvalues --   -0.43115  -0.42032  -0.42027  -0.41760  -0.41540
 Alpha  occ. eigenvalues --   -0.41288  -0.40866  -0.39478  -0.39371  -0.38849
 Alpha  occ. eigenvalues --   -0.38626  -0.38208  -0.37074  -0.36077  -0.35444
 Alpha  occ. eigenvalues --   -0.35169  -0.34834  -0.34249  -0.34124  -0.30931
 Alpha  occ. eigenvalues --   -0.30458  -0.29837
 Alpha virt. eigenvalues --   -0.10694  -0.09395  -0.09293  -0.08503  -0.07180
 Alpha virt. eigenvalues --   -0.07054  -0.06031  -0.05778  -0.05272  -0.04174
 Alpha virt. eigenvalues --   -0.01944  -0.01743  -0.01418  -0.01079  -0.00644

 Mulliken charges:
               1
     1  N   -0.712729
     2  H    0.323096
     3  H    0.300371
     4  C   -0.062292
     5  H    0.114311
     6  C    0.670805
     7  C   -0.376937
     8  H    0.175607
     9  H    0.172075
    10  O   -0.550521
    11  C    0.142197
    12  C   -0.197204
    13  H    0.142783
    14  C   -0.181080
    15  H    0.126073
    16  C   -0.127641
    17  H    0.142459
    18  C   -0.127869
    19  H    0.139066
    20  C   -0.129085
    21  H    0.142478
    22  N   -0.616035
    23  H    0.339653
    24  C   -0.068672
    25  H    0.198349
    26  C    0.671099
    27  C   -0.285618
    28  H    0.155981
    29  H    0.134887
    30  O   -0.596815
    31  C   -0.086848
    32  H    0.129555
    33  C   -0.453901
    34  H    0.154627
    35  H    0.159024
    36  H    0.157214
    37  C   -0.449736
    38  H    0.163424
    39  H    0.115010
    40  H    0.156687
    41  N   -0.597801
    42  H    0.399459
    43  C   -0.043916
    44  H    0.200029
    45  C    0.598300
    46  C   -0.433697
    47  H    0.185978
    48  H    0.201025
    49  O   -0.507372
    50  C    0.634968
    51  N   -0.744507
    52  H    0.362407
    53  H    0.350972
    54  O   -0.509848
    55  N   -0.616263
    56  H    0.355053
    57  C   -0.048076
    58  H    0.213459
    59  C    0.587792
    60  C   -0.282686
    61  H    0.187187
    62  H    0.154349
    63  O   -0.463751
    64  C   -0.290407
    65  H    0.150259
    66  H    0.201549
    67  C   -0.174009
    68  H    0.194777
    69  H    0.164938
    70  N   -0.615631
    71  H    0.422294
    72  N   -0.758287
    73  H    0.377802
    74  H    0.379333
    75  N   -0.790616
    76  H    0.364416
    77  H    0.423253
    78  C    0.784520
    79  O   -0.553256
    80  H    0.432158
 Sum of Mulliken charges =   1.00000

 Dipole moment (field-independent basis, Debye):
    X=              1.4524    Y=             10.2774    Z=            -13.5556  Tot=             17.0731
 Quadrupole moment (field-independent basis, Debye-Ang):
   XX=           -156.5131   YY=           -194.1209   ZZ=           -101.5243
   XY=            -19.1329   XZ=            -19.2832   YZ=            -46.9927

 Normal termination of Gaussian 16 at Sun Jun 19 01:46:52 2022.
