 Gaussian 16, Revision C.01,
 Gaussian 16:  ES64L-G16RevC.01  3-Jul-2019

 -------------------------------------------------------------------
 # B3LYP/6-31G* guess=read geom=check nosymm integral(ultrafinegrid)
 -------------------------------------------------------------------

 ------------------------------------------------------
 Candidate Structure: Conf:197 Charge calc in gas phase
 ------------------------------------------------------
 Structure from the checkpoint file:  "conf-197.chk"
 Charge =  1 Multiplicity = 1

                          Input orientation:
 ---------------------------------------------------------------------
 Center     Atomic      Atomic             Coordinates (Angstroms)
 Number     Number       Type             X           Y           Z
 ---------------------------------------------------------------------
      1          7           0       -5.531896    2.350401    2.607683
      2          1           0       -6.096407    1.503631    2.539149
      3          1           0       -5.908941    2.903772    3.375987
      4          6           0       -4.157378    1.956844    2.913316
      5          1           0       -3.526344    2.852646    2.831757
      6          6           0       -3.756954    0.932941    1.846198
      7          6           0       -3.927553    1.325419    4.320399
      8          1           0       -2.870097    1.040807    4.408789
      9          1           0       -4.513179    0.400466    4.365802
     10          8           0       -4.381342   -0.117960    1.718008
     11          6           0       -4.303599    2.257029    5.449221
     12          6           0       -5.588992    2.230899    6.009946
     13          1           0       -6.308734    1.494113    5.660391
     14          6           0       -3.386279    3.199733    5.936922
     15          1           0       -2.379812    3.227924    5.523342
     16          6           0       -5.948580    3.120918    7.024610
     17          1           0       -6.947726    3.078544    7.449924
     18          6           0       -3.740145    4.088918    6.951311
     19          1           0       -3.011042    4.805242    7.321143
     20          6           0       -5.025233    4.053651    7.497651
     21          1           0       -5.301130    4.742473    8.291275
     22          7           0       -2.689766    1.263093    1.067849
     23          1           0       -2.164488    2.108620    1.248976
     24          6           0       -2.133275    0.371915    0.063441
     25          1           0       -2.480482   -0.636469    0.304860
     26          6           0       -0.609206    0.461411    0.161455
     27          6           0       -2.551547    0.752482   -1.379715
     28          1           0       -2.228047    1.789663   -1.544613
     29          1           0       -1.972779    0.136821   -2.083499
     30          8           0       -0.044670    1.535354    0.377756
     31          6           0       -4.054652    0.623897   -1.694078
     32          1           0       -4.608780    1.202206   -0.942818
     33          6           0       -4.343604    1.239084   -3.072469
     34          1           0       -3.810144    0.699398   -3.866233
     35          1           0       -5.413667    1.194857   -3.303721
     36          1           0       -4.035607    2.291498   -3.116841
     37          6           0       -4.545327   -0.830052   -1.629615
     38          1           0       -3.971374   -1.471633   -2.312625
     39          1           0       -4.472959   -1.232999   -0.615349
     40          1           0       -5.598047   -0.892297   -1.927865
     41          7           0        0.072448   -0.707243   -0.016614
     42          1           0       -0.442209   -1.476839   -0.426532
     43          6           0        1.508811   -0.671930   -0.237435
     44          1           0        1.942105   -0.046980    0.546047
     45          6           0        1.796223    0.006852   -1.601415
     46          6           0        2.105354   -2.083462   -0.119858
     47          1           0        1.586736   -2.613862    0.689337
     48          1           0        1.939605   -2.663165   -1.037701
     49          8           0        0.941996    0.058462   -2.483796
     50          6           0        3.602340   -2.051068    0.208458
     51          7           0        4.187148   -3.264622    0.353517
     52          1           0        5.169182   -3.299826    0.591661
     53          1           0        3.674541   -4.131714    0.291049
     54          8           0        4.227648   -1.001501    0.344164
     55          7           0        3.020037    0.586894   -1.709968
     56          1           0        3.735197    0.353768   -1.018982
     57          6           0        3.371487    1.348039   -2.888232
     58          1           0        2.756584    0.981354   -3.718019
     59          6           0        4.835651    1.108574   -3.235623
     60          6           0        3.096084    2.865858   -2.707040
     61          1           0        3.368799    3.371863   -3.641490
     62          1           0        3.763363    3.256497   -1.926412
     63          8           0        5.619595    0.482024   -2.564432
     64          6           0        1.638363    3.151984   -2.317192
     65          1           0        0.945807    2.714423   -3.047802
     66          1           0        1.398716    2.666406   -1.366062
     67          6           0        1.323965    4.636200   -2.135764
     68          1           0        0.318784    4.748414   -1.710347
     69          1           0        2.048374    5.102559   -1.457515
     70          7           0        1.385496    5.352897   -3.429577
     71          1           0        1.315625    4.783787   -4.264655
     72          7           0        1.194712    7.482822   -2.531974
     73          1           0        1.405112    8.469438   -2.583092
     74          1           0        0.889883    7.117144   -1.641533
     75          7           0        1.592292    7.219318   -4.796494
     76          1           0        1.352237    8.181925   -4.986771
     77          1           0        1.898083    6.657376   -5.578161
     78          6           0        1.384839    6.674211   -3.584213
     79          8           0        5.164150    1.711022   -4.403400
     80          1           0        6.108367    1.516233   -4.559643
 ---------------------------------------------------------------------

 SCF Done:  E(RB3LYP) =  -1866.60631998     A.U. after    3 cycles

 Alpha  occ. eigenvalues --  -19.28643 -19.22931 -19.20191 -19.19937 -19.19616
 Alpha  occ. eigenvalues --  -19.16661 -14.54523 -14.54349 -14.54226 -14.44194
 Alpha  occ. eigenvalues --  -14.44137 -14.43492 -14.41860 -14.35927 -10.50742
 Alpha  occ. eigenvalues --  -10.40985 -10.38007 -10.37057 -10.36617 -10.36574
 Alpha  occ. eigenvalues --  -10.33810 -10.33025 -10.31667 -10.30156 -10.29959
 Alpha  occ. eigenvalues --  -10.29731 -10.29199 -10.27406 -10.24733 -10.24224
 Alpha  occ. eigenvalues --  -10.24067 -10.23621 -10.23512 -10.23434 -10.23404
 Alpha  occ. eigenvalues --  -10.23313 -10.23260 -10.22678 -10.21564  -1.19489
 Alpha  occ. eigenvalues --   -1.19159  -1.12282  -1.11826  -1.11062  -1.10559
 Alpha  occ. eigenvalues --   -1.08586  -1.08228  -1.07383  -1.00811  -1.00585
 Alpha  occ. eigenvalues --   -0.98928  -0.98216  -0.93531  -0.92081  -0.89720
 Alpha  occ. eigenvalues --   -0.87951  -0.86530  -0.85707  -0.82147  -0.82075
 Alpha  occ. eigenvalues --   -0.81076  -0.79701  -0.78782  -0.76709  -0.76424
 Alpha  occ. eigenvalues --   -0.75798  -0.73874  -0.72997  -0.71919  -0.71063
 Alpha  occ. eigenvalues --   -0.70569  -0.68361  -0.67836  -0.67626  -0.67336
 Alpha  occ. eigenvalues --   -0.66131  -0.65692  -0.64894  -0.64322  -0.62706
 Alpha  occ. eigenvalues --   -0.62525  -0.61977  -0.61649  -0.61272  -0.61007
 Alpha  occ. eigenvalues --   -0.58429  -0.58300  -0.57601  -0.57509  -0.56818
 Alpha  occ. eigenvalues --   -0.56032  -0.55874  -0.55149  -0.54643  -0.53941
 Alpha  occ. eigenvalues --   -0.53325  -0.52904  -0.52255  -0.51755  -0.50967
 Alpha  occ. eigenvalues --   -0.50750  -0.50553  -0.50102  -0.49684  -0.49386
 Alpha  occ. eigenvalues --   -0.49060  -0.48609  -0.48291  -0.47788  -0.47348
 Alpha  occ. eigenvalues --   -0.46992  -0.46805  -0.46735  -0.46315  -0.45996
 Alpha  occ. eigenvalues --   -0.45636  -0.45523  -0.45026  -0.44897  -0.44546
 Alpha  occ. eigenvalues --   -0.44050  -0.43500  -0.43206  -0.43059  -0.42747
 Alpha  occ. eigenvalues --   -0.42427  -0.41093  -0.40774  -0.40724  -0.39878
 Alpha  occ. eigenvalues --   -0.38292  -0.38218  -0.38100  -0.37631  -0.37494
 Alpha  occ. eigenvalues --   -0.36599  -0.35333  -0.34956  -0.34234  -0.33771
 Alpha  occ. eigenvalues --   -0.33545  -0.32878  -0.30801  -0.30695  -0.29663
 Alpha  occ. eigenvalues --   -0.29254  -0.27625
 Alpha virt. eigenvalues --   -0.14474  -0.10472  -0.08002  -0.07027  -0.06617
 Alpha virt. eigenvalues --   -0.05989  -0.05679  -0.05235  -0.05067  -0.04806
 Alpha virt. eigenvalues --   -0.04595  -0.02327  -0.01714  -0.00925  -0.00038

 Mulliken charges:
               1
     1  N   -0.722727
     2  H    0.314658
     3  H    0.309422
     4  C   -0.055471
     5  H    0.123483
     6  C    0.643381
     7  C   -0.363532
     8  H    0.140547
     9  H    0.168659
    10  O   -0.537636
    11  C    0.168787
    12  C   -0.197057
    13  H    0.131163
    14  C   -0.179433
    15  H    0.116544
    16  C   -0.127057
    17  H    0.138823
    18  C   -0.127343
    19  H    0.131442
    20  C   -0.130162
    21  H    0.137021
    22  N   -0.608118
    23  H    0.335582
    24  C   -0.070607
    25  H    0.179789
    26  C    0.640310
    27  C   -0.250567
    28  H    0.119707
    29  H    0.150391
    30  O   -0.558343
    31  C   -0.070725
    32  H    0.152788
    33  C   -0.442615
    34  H    0.138156
    35  H    0.153457
    36  H    0.123688
    37  C   -0.465274
    38  H    0.125569
    39  H    0.181226
    40  H    0.150232
    41  N   -0.602729
    42  H    0.342115
    43  C   -0.037925
    44  H    0.206695
    45  C    0.608847
    46  C   -0.418164
    47  H    0.195415
    48  H    0.187956
    49  O   -0.540623
    50  C    0.628005
    51  N   -0.742171
    52  H    0.362475
    53  H    0.352075
    54  O   -0.514747
    55  N   -0.624146
    56  H    0.396848
    57  C   -0.038346
    58  H    0.202341
    59  C    0.578984
    60  C   -0.268129
    61  H    0.143810
    62  H    0.157376
    63  O   -0.438070
    64  C   -0.338675
    65  H    0.178095
    66  H    0.230949
    67  C   -0.159742
    68  H    0.196436
    69  H    0.184549
    70  N   -0.598649
    71  H    0.368661
    72  N   -0.755726
    73  H    0.388663
    74  H    0.398840
    75  N   -0.763416
    76  H    0.387893
    77  H    0.387761
    78  C    0.838909
    79  O   -0.575141
    80  H    0.424549
 Sum of Mulliken charges =   1.00000

 Dipole moment (field-independent basis, Debye):
    X=              9.6967    Y=             23.7020    Z=            -14.3249  Tot=             29.3430
 Quadrupole moment (field-independent basis, Debye-Ang):
   XX=           -206.5883   YY=              1.1838   ZZ=           -146.5013
   XY=             22.7658   XZ=            -41.5460   YZ=            -96.6336

 Normal termination of Gaussian 16 at Sun Jun 19 01:47:29 2022.
