 Gaussian 16, Revision C.01,
 Gaussian 16:  ES64L-G16RevC.01  3-Jul-2019

 -------------------------------------------------------------------
 # B3LYP/6-31G* guess=read geom=check nosymm integral(ultrafinegrid)
 -------------------------------------------------------------------

 ------------------------------------------------------
 Candidate Structure: Conf:669 Charge calc in gas phase
 ------------------------------------------------------
 Structure from the checkpoint file:  "conf-669.chk"
 Charge =  1 Multiplicity = 1

                          Input orientation:
 ---------------------------------------------------------------------
 Center     Atomic      Atomic             Coordinates (Angstroms)
 Number     Number       Type             X           Y           Z
 ---------------------------------------------------------------------
      1          7           0       -5.322256    0.094710    3.185967
      2          1           0       -6.118798    0.525813    2.719570
      3          1           0       -5.248622   -0.845372    2.794068
      4          6           0       -4.099632    0.810624    2.845214
      5          1           0       -4.292461    1.887913    2.921229
      6          6           0       -3.614791    0.485198    1.419802
      7          6           0       -2.964779    0.450064    3.849698
      8          1           0       -2.002316    0.777430    3.435677
      9          1           0       -2.924288   -0.644904    3.913264
     10          8           0       -3.875396   -0.583999    0.875457
     11          6           0       -3.147892    1.065132    5.220563
     12          6           0       -2.375033    2.169789    5.602730
     13          1           0       -1.630885    2.567103    4.914283
     14          6           0       -4.091214    0.561594    6.127884
     15          1           0       -4.705962   -0.283980    5.838204
     16          6           0       -2.537375    2.761971    6.856442
     17          1           0       -1.924361    3.615205    7.135171
     18          6           0       -4.255260    1.151605    7.381146
     19          1           0       -4.990016    0.748092    8.072929
     20          6           0       -3.479924    2.253137    7.750336
     21          1           0       -3.607107    2.708200    8.728900
     22          7           0       -2.861095    1.457879    0.810767
     23          1           0       -2.524878    2.234580    1.369689
     24          6           0       -2.091690    1.185501   -0.389985
     25          1           0       -2.205906    0.118487   -0.600502
     26          6           0       -0.621964    1.511246   -0.097659
     27          6           0       -2.564986    2.016357   -1.608627
     28          1           0       -2.416599    3.078936   -1.369530
     29          1           0       -1.902881    1.786899   -2.459137
     30          8           0       -0.299836    2.378005    0.718890
     31          6           0       -4.025750    1.788286   -2.041376
     32          1           0       -4.662939    2.003883   -1.173658
     33          6           0       -4.393793    2.781474   -3.154362
     34          1           0       -3.780201    2.612966   -4.051330
     35          1           0       -5.442410    2.669047   -3.449921
     36          1           0       -4.246170    3.820761   -2.836178
     37          6           0       -4.291955    0.340780   -2.480651
     38          1           0       -3.621862    0.047141   -3.301642
     39          1           0       -4.162242   -0.363756   -1.653884
     40          1           0       -5.320183    0.233859   -2.843954
     41          7           0        0.302280    0.818715   -0.815966
     42          1           0        0.048849    0.142510   -1.529722
     43          6           0        1.730333    1.010605   -0.580848
     44          1           0        1.839623    1.253663    0.480871
     45          6           0        2.267290    2.207760   -1.396682
     46          6           0        2.526032   -0.272881   -0.858421
     47          1           0        3.578899   -0.094948   -0.618616
     48          1           0        2.166485   -1.046076   -0.167233
     49          8           0        2.871615    2.047725   -2.471169
     50          6           0        2.387378   -0.838308   -2.268140
     51          7           0        3.474645   -1.463117   -2.761324
     52          1           0        3.408049   -1.940026   -3.650753
     53          1           0        4.356854   -1.489550   -2.271427
     54          8           0        1.317497   -0.791082   -2.895390
     55          7           0        2.009573    3.419456   -0.869981
     56          1           0        1.512335    3.467590    0.020569
     57          6           0        2.638217    4.646962   -1.348249
     58          1           0        3.578127    4.369757   -1.837330
     59          6           0        2.966059    5.482345   -0.107356
     60          6           0        1.807107    5.495798   -2.344353
     61          1           0        2.361815    6.427013   -2.491992
     62          1           0        0.854070    5.773186   -1.874052
     63          8           0        2.537599    5.254755    1.000347
     64          6           0        1.561828    4.844768   -3.722271
     65          1           0        1.485147    5.635537   -4.478441
     66          1           0        2.419701    4.223234   -4.000128
     67          6           0        0.273474    4.012123   -3.765348
     68          1           0        0.269275    3.233863   -3.000346
     69          1           0       -0.592915    4.651193   -3.565144
     70          7           0        0.024348    3.360002   -5.061527
     71          1           0       -0.385340    3.919727   -5.798406
     72          7           0        1.154733    1.371638   -4.621844
     73          1           0        1.074678    0.361766   -4.511332
     74          1           0        1.774254    1.801298   -3.926866
     75          7           0       -0.299983    1.510906   -6.416607
     76          1           0        0.027007    0.624311   -6.772833
     77          1           0       -1.170283    1.869906   -6.781705
     78          6           0        0.300335    2.078638   -5.349983
     79          8           0        3.772941    6.513771   -0.412182
     80          1           0        3.926925    7.017143    0.410956
 ---------------------------------------------------------------------

 SCF Done:  E(RB3LYP) =  -1866.63283155     A.U. after    2 cycles

 Alpha  occ. eigenvalues --  -19.30097 -19.24600 -19.24269 -19.24137 -19.22345
 Alpha  occ. eigenvalues --  -19.18670 -14.52205 -14.51939 -14.49639 -14.47941
 Alpha  occ. eigenvalues --  -14.47676 -14.46832 -14.43269 -14.36761 -10.47852
 Alpha  occ. eigenvalues --  -10.42694 -10.41894 -10.41005 -10.39082 -10.35953
 Alpha  occ. eigenvalues --  -10.35368 -10.35278 -10.35158 -10.32004 -10.31971
 Alpha  occ. eigenvalues --  -10.30917 -10.30805 -10.28343 -10.27976 -10.26981
 Alpha  occ. eigenvalues --  -10.25654 -10.24539 -10.24292 -10.23591 -10.22850
 Alpha  occ. eigenvalues --  -10.22726 -10.22550 -10.22464 -10.22179  -1.21149
 Alpha  occ. eigenvalues --   -1.16368  -1.15905  -1.15351  -1.14106  -1.12344
 Alpha  occ. eigenvalues --   -1.10378  -1.05846  -1.04423  -1.03806  -1.03173
 Alpha  occ. eigenvalues --   -1.02673  -0.99910  -0.94407  -0.92355  -0.90232
 Alpha  occ. eigenvalues --   -0.89097  -0.88939  -0.87573  -0.83799  -0.82082
 Alpha  occ. eigenvalues --   -0.81766  -0.79417  -0.77938  -0.77637  -0.76540
 Alpha  occ. eigenvalues --   -0.75836  -0.74221  -0.73481  -0.72970  -0.72749
 Alpha  occ. eigenvalues --   -0.70662  -0.70575  -0.70243  -0.69499  -0.68068
 Alpha  occ. eigenvalues --   -0.65951  -0.65630  -0.65319  -0.64637  -0.64336
 Alpha  occ. eigenvalues --   -0.64114  -0.63921  -0.61976  -0.61689  -0.61061
 Alpha  occ. eigenvalues --   -0.60237  -0.59552  -0.59359  -0.58478  -0.57837
 Alpha  occ. eigenvalues --   -0.57260  -0.56719  -0.56336  -0.55735  -0.55455
 Alpha  occ. eigenvalues --   -0.55356  -0.54940  -0.54365  -0.54105  -0.52999
 Alpha  occ. eigenvalues --   -0.52657  -0.52410  -0.51903  -0.51586  -0.51211
 Alpha  occ. eigenvalues --   -0.50475  -0.50093  -0.49998  -0.49358  -0.49187
 Alpha  occ. eigenvalues --   -0.49075  -0.48519  -0.48405  -0.47931  -0.47686
 Alpha  occ. eigenvalues --   -0.47442  -0.46674  -0.46479  -0.46199  -0.46156
 Alpha  occ. eigenvalues --   -0.45905  -0.45506  -0.44286  -0.43582  -0.42529
 Alpha  occ. eigenvalues --   -0.42261  -0.42185  -0.41584  -0.41038  -0.40818
 Alpha  occ. eigenvalues --   -0.40526  -0.40311  -0.39478  -0.39141  -0.38916
 Alpha  occ. eigenvalues --   -0.38314  -0.38159  -0.38009  -0.37602  -0.37562
 Alpha  occ. eigenvalues --   -0.36265  -0.35555  -0.33099  -0.32512  -0.29633
 Alpha  occ. eigenvalues --   -0.28411  -0.27903
 Alpha virt. eigenvalues --   -0.12598  -0.11333  -0.09733  -0.09220  -0.08035
 Alpha virt. eigenvalues --   -0.07819  -0.05069  -0.04296  -0.03884  -0.03714
 Alpha virt. eigenvalues --   -0.03355  -0.02293  -0.02010  -0.01729  -0.00638

 Mulliken charges:
               1
     1  N   -0.691814
     2  H    0.305157
     3  H    0.316677
     4  C   -0.078231
     5  H    0.148565
     6  C    0.584275
     7  C   -0.350617
     8  H    0.137142
     9  H    0.160283
    10  O   -0.519967
    11  C    0.168716
    12  C   -0.192524
    13  H    0.113265
    14  C   -0.156614
    15  H    0.145815
    16  C   -0.128441
    17  H    0.128640
    18  C   -0.133113
    19  H    0.134912
    20  C   -0.128761
    21  H    0.133615
    22  N   -0.594911
    23  H    0.347025
    24  C   -0.068888
    25  H    0.190560
    26  C    0.625166
    27  C   -0.256365
    28  H    0.138228
    29  H    0.105816
    30  O   -0.542184
    31  C   -0.065271
    32  H    0.152530
    33  C   -0.441178
    34  H    0.106910
    35  H    0.163695
    36  H    0.142055
    37  C   -0.469210
    38  H    0.113149
    39  H    0.194554
    40  H    0.155786
    41  N   -0.626589
    42  H    0.369686
    43  C   -0.060874
    44  H    0.202901
    45  C    0.626225
    46  C   -0.390486
    47  H    0.179474
    48  H    0.213994
    49  O   -0.571416
    50  C    0.649743
    51  N   -0.728304
    52  H    0.358954
    53  H    0.365333
    54  O   -0.573202
    55  N   -0.600654
    56  H    0.394223
    57  C   -0.046521
    58  H    0.205529
    59  C    0.585987
    60  C   -0.287663
    61  H    0.193654
    62  H    0.161661
    63  O   -0.442448
    64  C   -0.272668
    65  H    0.160835
    66  H    0.175190
    67  C   -0.180650
    68  H    0.193151
    69  H    0.188335
    70  N   -0.595974
    71  H    0.360719
    72  N   -0.801506
    73  H    0.390738
    74  H    0.436331
    75  N   -0.758674
    76  H    0.382650
    77  H    0.377263
    78  C    0.796129
    79  O   -0.558879
    80  H    0.433356
 Sum of Mulliken charges =   1.00000

 Dipole moment (field-independent basis, Debye):
    X=              6.1782    Y=             11.3000    Z=            -19.9981  Tot=             23.7862
 Quadrupole moment (field-independent basis, Debye-Ang):
   XX=           -190.1778   YY=           -160.8996   ZZ=           -120.7966
   XY=             -1.6615   XZ=             -0.4985   YZ=            -35.1696

 Normal termination of Gaussian 16 at Sun Jun 19 01:47:02 2022.
