 Gaussian 16, Revision C.01,
 Gaussian 16:  ES64L-G16RevC.01  3-Jul-2019

 -------------------------------------------------------------------
 # B3LYP/6-31G* guess=read geom=check nosymm integral(ultrafinegrid)
 -------------------------------------------------------------------

 ------------------------------------------------------
 Candidate Structure: Conf:746 Charge calc in gas phase
 ------------------------------------------------------
 Structure from the checkpoint file:  "conf-746.chk"
 Charge =  1 Multiplicity = 1

                          Input orientation:
 ---------------------------------------------------------------------
 Center     Atomic      Atomic             Coordinates (Angstroms)
 Number     Number       Type             X           Y           Z
 ---------------------------------------------------------------------
      1          7           0       -4.747611   -0.033576    3.684903
      2          1           0       -5.580159    0.084930    3.109627
      3          1           0       -4.637176   -1.040453    3.802584
      4          6           0       -3.584854    0.476861    2.980022
      5          1           0       -3.758729    1.542807    2.773007
      6          6           0       -3.334180   -0.228691    1.629795
      7          6           0       -2.327851    0.396734    3.897664
      8          1           0       -2.511842    1.083001    4.730383
      9          1           0       -1.461013    0.780199    3.343843
     10          8           0       -3.747245   -1.352843    1.382666
     11          6           0       -2.031615   -0.988099    4.434878
     12          6           0       -2.540538   -1.390783    5.677935
     13          1           0       -3.139611   -0.694173    6.258549
     14          6           0       -1.265885   -1.902355    3.699345
     15          1           0       -0.860081   -1.618068    2.732604
     16          6           0       -2.289747   -2.672543    6.170693
     17          1           0       -2.689467   -2.965389    7.137835
     18          6           0       -1.017598   -3.185615    4.185212
     19          1           0       -0.433027   -3.876914    3.585095
     20          6           0       -1.528274   -3.574157    5.425064
     21          1           0       -1.335153   -4.572602    5.807971
     22          7           0       -2.598215    0.497789    0.715402
     23          1           0       -2.353015    1.453965    0.938388
     24          6           0       -2.298012    0.003461   -0.623617
     25          1           0       -2.512719   -1.068658   -0.586116
     26          6           0       -0.792712    0.194122   -0.904577
     27          6           0       -3.159639    0.667252   -1.711081
     28          1           0       -2.963571    1.750218   -1.664294
     29          1           0       -2.802300    0.307927   -2.688952
     30          8           0       -0.362124    1.093180   -1.651856
     31          6           0       -4.678292    0.419348   -1.613863
     32          1           0       -5.003237    0.716624   -0.607844
     33          6           0       -5.414335    1.314031   -2.623920
     34          1           0       -5.127100    1.067058   -3.656015
     35          1           0       -6.498641    1.180298   -2.551809
     36          1           0       -5.205990    2.379102   -2.449834
     37          6           0       -5.046972   -1.057816   -1.818233
     38          1           0       -4.680825   -1.426501   -2.785824
     39          1           0       -4.638919   -1.689079   -1.024091
     40          1           0       -6.135138   -1.184084   -1.808163
     41          7           0        0.019566   -0.641059   -0.231367
     42          1           0       -0.357387   -1.469790    0.234562
     43          6           0        1.466155   -0.617219   -0.364715
     44          1           0        1.805572    0.415038   -0.219034
     45          6           0        1.894020   -1.078980   -1.778258
     46          6           0        2.126024   -1.499913    0.722700
     47          1           0        3.210570   -1.485237    0.574845
     48          1           0        1.920461   -1.058475    1.704344
     49          8           0        1.245704   -1.889575   -2.421523
     50          6           0        1.569533   -2.924639    0.753568
     51          7           0        2.464983   -3.929813    0.633062
     52          1           0        2.122801   -4.882019    0.646054
     53          1           0        3.448467   -3.774266    0.472224
     54          8           0        0.364542   -3.126292    0.912242
     55          7           0        3.051457   -0.506688   -2.234923
     56          1           0        3.503888    0.204014   -1.674987
     57          6           0        3.465420   -0.641629   -3.622462
     58          1           0        2.969561   -1.548427   -3.988871
     59          6           0        4.967215   -0.861176   -3.789576
     60          6           0        3.007002    0.564128   -4.483286
     61          1           0        3.335735    0.394811   -5.512872
     62          1           0        3.528956    1.464864   -4.128733
     63          8           0        5.535673   -0.763568   -4.851565
     64          6           0        1.492281    0.762085   -4.376973
     65          1           0        0.958590   -0.046395   -4.888974
     66          1           0        1.210173    0.702216   -3.324596
     67          6           0        0.983621    2.116408   -4.877892
     68          1           0        1.658878    2.923759   -4.563682
     69          1           0        0.908688    2.139242   -5.970751
     70          7           0       -0.354143    2.348260   -4.301506
     71          1           0       -0.523358    1.934243   -3.374156
     72          7           0       -1.080055    3.869704   -5.911803
     73          1           0       -1.840556    4.205606   -6.484852
     74          1           0       -0.141610    4.036499   -6.241360
     75          7           0       -2.564897    3.036166   -4.349895
     76          1           0       -3.219435    3.784328   -4.527546
     77          1           0       -2.799013    2.381200   -3.614310
     78          6           0       -1.314844    3.081574   -4.846221
     79          8           0        5.592942   -1.179748   -2.634500
     80          1           0        6.533572   -1.312525   -2.864354
 ---------------------------------------------------------------------

 SCF Done:  E(RB3LYP) =  -1866.61481530     A.U. after    2 cycles

 Alpha  occ. eigenvalues --  -19.29266 -19.23323 -19.23204 -19.21580 -19.21083
 Alpha  occ. eigenvalues --  -19.19235 -14.52527 -14.51721 -14.51334 -14.46610
 Alpha  occ. eigenvalues --  -14.45817 -14.45448 -14.44646 -14.37225 -10.48325
 Alpha  occ. eigenvalues --  -10.41607 -10.39566 -10.39042 -10.38842 -10.35988
 Alpha  occ. eigenvalues --  -10.35850 -10.34667 -10.34101 -10.32685 -10.30804
 Alpha  occ. eigenvalues --  -10.29739 -10.29625 -10.29332 -10.28686 -10.27657
 Alpha  occ. eigenvalues --  -10.26504 -10.25547 -10.24572 -10.24275 -10.23575
 Alpha  occ. eigenvalues --  -10.23512 -10.23470 -10.23429 -10.23414  -1.20052
 Alpha  occ. eigenvalues --   -1.16777  -1.14566  -1.13466  -1.12846  -1.11103
 Alpha  occ. eigenvalues --   -1.11010  -1.05892  -1.05077  -1.03127  -1.02855
 Alpha  occ. eigenvalues --   -1.00682  -1.00113  -0.95135  -0.91565  -0.90018
 Alpha  occ. eigenvalues --   -0.89960  -0.89176  -0.86395  -0.84173  -0.82669
 Alpha  occ. eigenvalues --   -0.81126  -0.78902  -0.78739  -0.77797  -0.77396
 Alpha  occ. eigenvalues --   -0.76273  -0.74724  -0.74389  -0.72278  -0.71168
 Alpha  occ. eigenvalues --   -0.70508  -0.69819  -0.69755  -0.68185  -0.68084
 Alpha  occ. eigenvalues --   -0.66676  -0.65847  -0.65412  -0.65078  -0.64553
 Alpha  occ. eigenvalues --   -0.63875  -0.63308  -0.62686  -0.61296  -0.60833
 Alpha  occ. eigenvalues --   -0.59850  -0.59015  -0.58770  -0.57628  -0.57405
 Alpha  occ. eigenvalues --   -0.57232  -0.56960  -0.56288  -0.55857  -0.55786
 Alpha  occ. eigenvalues --   -0.55362  -0.54836  -0.54213  -0.53410  -0.52307
 Alpha  occ. eigenvalues --   -0.52260  -0.51682  -0.51389  -0.50975  -0.50371
 Alpha  occ. eigenvalues --   -0.50225  -0.49843  -0.49514  -0.49486  -0.49222
 Alpha  occ. eigenvalues --   -0.48848  -0.48612  -0.47825  -0.47309  -0.47140
 Alpha  occ. eigenvalues --   -0.46975  -0.46857  -0.46435  -0.46217  -0.45595
 Alpha  occ. eigenvalues --   -0.45483  -0.45042  -0.44730  -0.44291  -0.43542
 Alpha  occ. eigenvalues --   -0.43377  -0.42924  -0.41478  -0.41094  -0.40973
 Alpha  occ. eigenvalues --   -0.40869  -0.40672  -0.40073  -0.38611  -0.38338
 Alpha  occ. eigenvalues --   -0.37961  -0.37684  -0.37213  -0.36243  -0.35588
 Alpha  occ. eigenvalues --   -0.34797  -0.34546  -0.33402  -0.33084  -0.30263
 Alpha  occ. eigenvalues --   -0.29480  -0.28843
 Alpha virt. eigenvalues --   -0.12364  -0.09520  -0.08646  -0.08126  -0.07948
 Alpha virt. eigenvalues --   -0.07367  -0.05756  -0.05004  -0.04804  -0.04332
 Alpha virt. eigenvalues --   -0.03048  -0.02957  -0.01761  -0.01228  -0.00726

 Mulliken charges:
               1
     1  N   -0.692395
     2  H    0.303414
     3  H    0.328143
     4  C   -0.078214
     5  H    0.132106
     6  C    0.602662
     7  C   -0.340722
     8  H    0.170293
     9  H    0.128836
    10  O   -0.505547
    11  C    0.151088
    12  C   -0.181298
    13  H    0.142636
    14  C   -0.176367
    15  H    0.111382
    16  C   -0.127789
    17  H    0.138788
    18  C   -0.133639
    19  H    0.136197
    20  C   -0.129266
    21  H    0.135065
    22  N   -0.612392
    23  H    0.328307
    24  C   -0.073163
    25  H    0.215668
    26  C    0.640779
    27  C   -0.274184
    28  H    0.116216
    29  H    0.133434
    30  O   -0.579307
    31  C   -0.064602
    32  H    0.141525
    33  C   -0.462721
    34  H    0.134209
    35  H    0.174160
    36  H    0.120366
    37  C   -0.468627
    38  H    0.136573
    39  H    0.194209
    40  H    0.157524
    41  N   -0.605874
    42  H    0.413386
    43  C   -0.067761
    44  H    0.163444
    45  C    0.632571
    46  C   -0.387308
    47  H    0.164496
    48  H    0.211818
    49  O   -0.506814
    50  C    0.631912
    51  N   -0.734609
    52  H    0.365967
    53  H    0.354502
    54  O   -0.514039
    55  N   -0.604396
    56  H    0.335151
    57  C   -0.069165
    58  H    0.228298
    59  C    0.593932
    60  C   -0.273250
    61  H    0.190998
    62  H    0.140880
    63  O   -0.445861
    64  C   -0.322506
    65  H    0.179011
    66  H    0.193554
    67  C   -0.149180
    68  H    0.178653
    69  H    0.172900
    70  N   -0.632645
    71  H    0.417646
    72  N   -0.761068
    73  H    0.382414
    74  H    0.387491
    75  N   -0.785256
    76  H    0.375582
    77  H    0.403558
    78  C    0.811797
    79  O   -0.569421
    80  H    0.425847
 Sum of Mulliken charges =   1.00000

 Dipole moment (field-independent basis, Debye):
    X=              1.6915    Y=             10.5165    Z=            -15.7394  Tot=             19.0049
 Quadrupole moment (field-independent basis, Debye-Ang):
   XX=           -173.4107   YY=           -172.2803   ZZ=           -139.7731
   XY=            -39.7433   XZ=             26.9743   YZ=            -67.9640

 Normal termination of Gaussian 16 at Sun Jun 19 01:47:07 2022.
