 Gaussian 16, Revision C.01,
 Gaussian 16:  ES64L-G16RevC.01  3-Jul-2019

 -------------------------------------------------------------------
 # B3LYP/6-31G* guess=read geom=check nosymm integral(ultrafinegrid)
 -------------------------------------------------------------------

 ------------------------------------------------------
 Candidate Structure: Conf:684 Charge calc in gas phase
 ------------------------------------------------------
 Structure from the checkpoint file:  "conf-684.chk"
 Charge =  1 Multiplicity = 1

                          Input orientation:
 ---------------------------------------------------------------------
 Center     Atomic      Atomic             Coordinates (Angstroms)
 Number     Number       Type             X           Y           Z
 ---------------------------------------------------------------------
      1          7           0       -4.428573    2.836842    3.264467
      2          1           0       -4.960141    3.069424    2.426402
      3          1           0       -4.795315    1.931199    3.558395
      4          6           0       -3.029598    2.657567    2.904201
      5          1           0       -2.678853    3.593267    2.445606
      6          6           0       -2.821590    1.525771    1.872413
      7          6           0       -2.169161    2.438803    4.181804
      8          1           0       -2.305404    3.332327    4.799721
      9          1           0       -1.110508    2.400184    3.897548
     10          8           0       -3.707013    0.724896    1.587953
     11          6           0       -2.528332    1.202575    4.980080
     12          6           0       -1.847628   -0.006905    4.783438
     13          1           0       -1.038587   -0.051791    4.057276
     14          6           0       -3.556912    1.241760    5.933193
     15          1           0       -4.088360    2.174708    6.101465
     16          6           0       -2.186504   -1.147549    5.511927
     17          1           0       -1.643111   -2.074787    5.348941
     18          6           0       -3.899820    0.101995    6.661889
     19          1           0       -4.697517    0.153068    7.398176
     20          6           0       -3.215824   -1.096817    6.453255
     21          1           0       -3.478370   -1.982899    7.024697
     22          7           0       -1.586961    1.469268    1.287537
     23          1           0       -0.873259    2.163192    1.473236
     24          6           0       -1.247204    0.441380    0.318428
     25          1           0       -1.671732   -0.503376    0.669972
     26          6           0        0.281060    0.367089    0.267565
     27          6           0       -1.833976    0.778126   -1.078981
     28          1           0       -2.893364    1.005567   -0.915028
     29          1           0       -1.349237    1.701945   -1.423917
     30          8           0        0.967715    1.393679    0.397884
     31          6           0       -1.716506   -0.315701   -2.160064
     32          1           0       -0.660631   -0.603630   -2.265141
     33          6           0       -2.524580   -1.578004   -1.821013
     34          1           0       -3.580514   -1.333330   -1.654583
     35          1           0       -2.465652   -2.310058   -2.634424
     36          1           0       -2.154384   -2.077207   -0.920773
     37          6           0       -2.172533    0.260327   -3.513433
     38          1           0       -3.226585    0.562876   -3.475125
     39          1           0       -1.579687    1.149133   -3.775312
     40          1           0       -2.069461   -0.499727   -4.303509
     41          7           0        0.814375   -0.849017    0.044195
     42          1           0        0.240883   -1.669571   -0.160069
     43          6           0        2.256270   -1.092983   -0.033695
     44          1           0        2.735150   -0.455909    0.718948
     45          6           0        2.836465   -0.703899   -1.414387
     46          6           0        2.561774   -2.564351    0.280522
     47          1           0        3.641488   -2.720627    0.222325
     48          1           0        2.252706   -2.770490    1.312345
     49          8           0        3.317074   -1.533439   -2.180195
     50          6           0        1.806425   -3.545231   -0.616819
     51          7           0        2.511159   -4.612106   -1.061836
     52          1           0        2.041200   -5.251708   -1.689462
     53          1           0        3.520324   -4.598172   -1.079315
     54          8           0        0.599802   -3.414920   -0.843975
     55          7           0        2.768377    0.630121   -1.688083
     56          1           0        2.339606    1.235687   -0.985752
     57          6           0        3.281757    1.169952   -2.930081
     58          1           0        3.789651    0.325016   -3.414815
     59          6           0        4.345592    2.246342   -2.685048
     60          6           0        2.164942    1.697635   -3.856753
     61          1           0        1.825549    2.676096   -3.495589
     62          1           0        1.321525    1.003374   -3.755635
     63          8           0        4.446736    3.267174   -3.333411
     64          6           0        2.608539    1.809996   -5.324185
     65          1           0        3.531292    2.393886   -5.373517
     66          1           0        2.834226    0.815131   -5.732311
     67          6           0        1.603856    2.517406   -6.234949
     68          1           0        1.417496    3.535547   -5.872823
     69          1           0        2.016958    2.575991   -7.250378
     70          7           0        0.314820    1.796465   -6.278827
     71          1           0        0.265854    0.899721   -5.811897
     72          7           0       -0.725834    3.282904   -7.722271
     73          1           0       -1.565769    3.714763   -8.079989
     74          1           0        0.156803    3.691801   -7.992379
     75          7           0       -1.942998    1.563548   -6.752281
     76          1           0       -2.745310    1.770872   -7.329754
     77          1           0       -2.084481    0.942928   -5.964296
     78          6           0       -0.779547    2.214120   -6.914675
     79          8           0        5.177596    1.919251   -1.682556
     80          1           0        5.835263    2.638301   -1.613721
 ---------------------------------------------------------------------

 SCF Done:  E(RB3LYP) =  -1866.60888725     A.U. after    1 cycles

 Alpha  occ. eigenvalues --  -19.28889 -19.23560 -19.20909 -19.20806 -19.20050
 Alpha  occ. eigenvalues --  -19.17024 -14.54654 -14.54278 -14.54012 -14.44737
 Alpha  occ. eigenvalues --  -14.44652 -14.43808 -14.41981 -14.35839 -10.50748
 Alpha  occ. eigenvalues --  -10.41634 -10.37761 -10.37753 -10.37676 -10.37650
 Alpha  occ. eigenvalues --  -10.33812 -10.33752 -10.32839 -10.31548 -10.30943
 Alpha  occ. eigenvalues --  -10.30586 -10.28817 -10.28669 -10.28300 -10.27615
 Alpha  occ. eigenvalues --  -10.26667 -10.24996 -10.24108 -10.23773 -10.23042
 Alpha  occ. eigenvalues --  -10.22988 -10.22832 -10.22773 -10.22617  -1.20035
 Alpha  occ. eigenvalues --   -1.19173  -1.13056  -1.12174  -1.11605  -1.11022
 Alpha  occ. eigenvalues --   -1.08892  -1.08313  -1.07339  -1.01944  -1.01163
 Alpha  occ. eigenvalues --   -0.98652  -0.98496  -0.93645  -0.92911  -0.89950
 Alpha  occ. eigenvalues --   -0.89261  -0.88044  -0.86547  -0.83091  -0.82200
 Alpha  occ. eigenvalues --   -0.81589  -0.80371  -0.78248  -0.77752  -0.76748
 Alpha  occ. eigenvalues --   -0.76353  -0.76169  -0.74791  -0.73418  -0.72065
 Alpha  occ. eigenvalues --   -0.70049  -0.68892  -0.68083  -0.67890  -0.67301
 Alpha  occ. eigenvalues --   -0.66988  -0.66554  -0.65330  -0.64430  -0.64201
 Alpha  occ. eigenvalues --   -0.63299  -0.62519  -0.62240  -0.61971  -0.61372
 Alpha  occ. eigenvalues --   -0.60153  -0.58439  -0.57857  -0.57740  -0.57241
 Alpha  occ. eigenvalues --   -0.57019  -0.56289  -0.55371  -0.54951  -0.54422
 Alpha  occ. eigenvalues --   -0.54361  -0.53878  -0.53365  -0.53259  -0.52484
 Alpha  occ. eigenvalues --   -0.51958  -0.51552  -0.50684  -0.50501  -0.49956
 Alpha  occ. eigenvalues --   -0.49642  -0.49364  -0.49081  -0.48553  -0.48365
 Alpha  occ. eigenvalues --   -0.48045  -0.47713  -0.47152  -0.46852  -0.46700
 Alpha  occ. eigenvalues --   -0.46609  -0.46008  -0.45788  -0.45558  -0.45500
 Alpha  occ. eigenvalues --   -0.45310  -0.45046  -0.44754  -0.44313  -0.43160
 Alpha  occ. eigenvalues --   -0.42919  -0.42373  -0.42177  -0.41621  -0.41182
 Alpha  occ. eigenvalues --   -0.41081  -0.40625  -0.39181  -0.37863  -0.37861
 Alpha  occ. eigenvalues --   -0.37359  -0.37039  -0.35123  -0.35046  -0.34234
 Alpha  occ. eigenvalues --   -0.33811  -0.32997  -0.31305  -0.30984  -0.29144
 Alpha  occ. eigenvalues --   -0.28870  -0.27935
 Alpha virt. eigenvalues --   -0.14444  -0.10369  -0.09051  -0.07674  -0.07312
 Alpha virt. eigenvalues --   -0.06239  -0.06128  -0.05645  -0.04936  -0.04408
 Alpha virt. eigenvalues --   -0.04210  -0.02752  -0.02630  -0.01097  -0.00927

 Mulliken charges:
               1
     1  N   -0.693391
     2  H    0.300834
     3  H    0.320226
     4  C   -0.084194
     5  H    0.139879
     6  C    0.600866
     7  C   -0.342292
     8  H    0.170644
     9  H    0.136785
    10  O   -0.529160
    11  C    0.155290
    12  C   -0.175457
    13  H    0.110673
    14  C   -0.187028
    15  H    0.147427
    16  C   -0.125669
    17  H    0.126120
    18  C   -0.127137
    19  H    0.137404
    20  C   -0.128226
    21  H    0.134874
    22  N   -0.626806
    23  H    0.346080
    24  C   -0.021952
    25  H    0.184635
    26  C    0.616852
    27  C   -0.262936
    28  H    0.177779
    29  H    0.127592
    30  O   -0.574266
    31  C   -0.092857
    32  H    0.133826
    33  C   -0.449176
    34  H    0.162638
    35  H    0.147637
    36  H    0.172209
    37  C   -0.485474
    38  H    0.170372
    39  H    0.117128
    40  H    0.131825
    41  N   -0.625354
    42  H    0.395480
    43  C   -0.081276
    44  H    0.197387
    45  C    0.634512
    46  C   -0.380782
    47  H    0.173531
    48  H    0.198180
    49  O   -0.525623
    50  C    0.633753
    51  N   -0.729382
    52  H    0.352388
    53  H    0.355336
    54  O   -0.539936
    55  N   -0.633907
    56  H    0.381189
    57  C   -0.046222
    58  H    0.213904
    59  C    0.592937
    60  C   -0.273255
    61  H    0.166047
    62  H    0.143842
    63  O   -0.467214
    64  C   -0.327713
    65  H    0.215063
    66  H    0.166535
    67  C   -0.157934
    68  H    0.197445
    69  H    0.183903
    70  N   -0.606811
    71  H    0.373852
    72  N   -0.758209
    73  H    0.388194
    74  H    0.396486
    75  N   -0.780471
    76  H    0.383936
    77  H    0.405266
    78  C    0.840048
    79  O   -0.545658
    80  H    0.426960
 Sum of Mulliken charges =   1.00000

 Dipole moment (field-independent basis, Debye):
    X=              2.2989    Y=              6.8821    Z=            -28.3861  Tot=             29.2988
 Quadrupole moment (field-independent basis, Debye-Ang):
   XX=           -197.4492   YY=           -183.5665   ZZ=            -22.1258
   XY=            -16.2201   XZ=             27.6102   YZ=            -73.5445

 Normal termination of Gaussian 16 at Sun Jun 19 01:46:46 2022.
