 Gaussian 16, Revision C.01,
 Gaussian 16:  ES64L-G16RevC.01  3-Jul-2019

 -------------------------------------------------------------------
 # B3LYP/6-31G* guess=read geom=check nosymm integral(ultrafinegrid)
 -------------------------------------------------------------------

 -----------------------------------------------------
 Candidate Structure: Conf:95 Charge calc in gas phase
 -----------------------------------------------------
 Structure from the checkpoint file:  "conf-95.chk"
 Charge =  1 Multiplicity = 1

                          Input orientation:
 ---------------------------------------------------------------------
 Center     Atomic      Atomic             Coordinates (Angstroms)
 Number     Number       Type             X           Y           Z
 ---------------------------------------------------------------------
      1          7           0       -2.175263    1.667293    3.329915
      2          1           0       -2.290257    2.000032    4.286719
      3          1           0       -2.069157    0.653513    3.369818
      4          6           0       -3.415231    1.946665    2.579091
      5          1           0       -4.299888    1.536451    3.096381
      6          6           0       -3.304807    1.144782    1.267136
      7          6           0       -3.621508    3.468213    2.429862
      8          1           0       -4.546125    3.644588    1.864694
      9          1           0       -2.787699    3.885810    1.852547
     10          8           0       -2.843803   -0.000567    1.302644
     11          6           0       -3.728523    4.177954    3.766170
     12          6           0       -4.919191    4.126977    4.505696
     13          1           0       -5.781113    3.599290    4.102049
     14          6           0       -2.638687    4.877728    4.300378
     15          1           0       -1.713013    4.937766    3.732421
     16          6           0       -5.016450    4.754877    5.747231
     17          1           0       -5.948743    4.709439    6.303271
     18          6           0       -2.732947    5.508804    5.542587
     19          1           0       -1.879447    6.052865    5.937891
     20          6           0       -3.921974    5.447496    6.269971
     21          1           0       -3.998475    5.940893    7.234672
     22          7           0       -3.737501    1.723295    0.117545
     23          1           0       -3.941003    2.714016    0.121286
     24          6           0       -3.488374    1.122449   -1.207465
     25          1           0       -3.598920    0.043001   -1.083388
     26          6           0       -2.020143    1.469617   -1.547514
     27          6           0       -4.463404    1.660006   -2.255542
     28          1           0       -4.273703    2.733770   -2.380646
     29          1           0       -4.194783    1.200859   -3.216543
     30          8           0       -1.711113    2.502056   -2.132135
     31          6           0       -5.957520    1.410581   -1.970577
     32          1           0       -6.199916    1.860312   -0.996274
     33          6           0       -6.812912    2.112888   -3.035935
     34          1           0       -6.618182    1.696751   -4.032715
     35          1           0       -7.881385    1.988028   -2.827639
     36          1           0       -6.601463    3.187993   -3.077135
     37          6           0       -6.301483   -0.084776   -1.895086
     38          1           0       -6.042776   -0.594392   -2.832500
     39          1           0       -5.774770   -0.592873   -1.079528
     40          1           0       -7.374967   -0.227033   -1.727484
     41          7           0       -1.114198    0.594712   -1.019533
     42          1           0       -1.492338   -0.153387   -0.448687
     43          6           0        0.244310    1.014671   -0.745186
     44          1           0        0.282668    2.080014   -0.999119
     45          6           0        1.282992    0.323507   -1.649075
     46          6           0        0.577680    0.826812    0.769603
     47          1           0       -0.338899    0.587178    1.311521
     48          1           0        1.271078   -0.010271    0.910316
     49          8           0        1.000742   -0.521179   -2.489787
     50          6           0        1.243940    2.069905    1.342453
     51          7           0        0.622907    2.632829    2.398804
     52          1           0        1.034840    3.470103    2.790269
     53          1           0       -0.299644    2.324037    2.730697
     54          8           0        2.284703    2.520256    0.844547
     55          7           0        2.555979    0.777418   -1.432788
     56          1           0        2.709751    1.434785   -0.657031
     57          6           0        3.673401    0.166436   -2.116477
     58          1           0        3.290721   -0.782934   -2.518938
     59          6           0        4.822843   -0.201792   -1.178427
     60          6           0        4.203977    1.011120   -3.291211
     61          1           0        5.084897    0.499363   -3.694944
     62          1           0        4.556011    1.979145   -2.910164
     63          8           0        5.982014   -0.273960   -1.526755
     64          6           0        3.136609    1.236172   -4.368542
     65          1           0        2.713361    0.280989   -4.706854
     66          1           0        2.294205    1.792952   -3.946273
     67          6           0        3.642230    2.031097   -5.573237
     68          1           0        2.815394    2.238131   -6.264176
     69          1           0        4.076970    2.983130   -5.246985
     70          7           0        4.694484    1.275184   -6.287485
     71          1           0        4.721393    0.275307   -6.127362
     72          7           0        5.435518    3.033841   -7.606149
     73          1           0        6.198849    3.512166   -8.063056
     74          1           0        4.583462    3.553913   -7.454506
     75          7           0        6.619271    1.044828   -7.562558
     76          1           0        7.154077    1.304164   -8.379222
     77          1           0        6.883736    0.194158   -7.085947
     78          6           0        5.573808    1.781515   -7.146779
     79          8           0        4.405289   -0.482290    0.070550
     80          1           0        5.200661   -0.727560    0.581444
 ---------------------------------------------------------------------

 SCF Done:  E(RB3LYP) =  -1866.61388362     A.U. after    1 cycles

 Alpha  occ. eigenvalues --  -19.27435 -19.21753 -19.19311 -19.18130 -19.18111
 Alpha  occ. eigenvalues --  -19.17707 -14.54126 -14.53875 -14.53808 -14.44052
 Alpha  occ. eigenvalues --  -14.41901 -14.41744 -14.41393 -14.40097 -10.50304
 Alpha  occ. eigenvalues --  -10.39964 -10.36761 -10.36434 -10.35607 -10.35037
 Alpha  occ. eigenvalues --  -10.34666 -10.31843 -10.30330 -10.30093 -10.30043
 Alpha  occ. eigenvalues --  -10.29805 -10.28619 -10.26735 -10.26370 -10.26100
 Alpha  occ. eigenvalues --  -10.25047 -10.24968 -10.24881 -10.24823 -10.24659
 Alpha  occ. eigenvalues --  -10.24590 -10.24383 -10.22494 -10.22411  -1.18722
 Alpha  occ. eigenvalues --   -1.18407  -1.11285  -1.10178  -1.09434  -1.09345
 Alpha  occ. eigenvalues --   -1.09281  -1.07821  -1.06934  -1.00044  -0.99313
 Alpha  occ. eigenvalues --   -0.98603  -0.96946  -0.96232  -0.91623  -0.91443
 Alpha  occ. eigenvalues --   -0.87065  -0.86400  -0.84575  -0.83917  -0.81460
 Alpha  occ. eigenvalues --   -0.81077  -0.80306  -0.78965  -0.77985  -0.76128
 Alpha  occ. eigenvalues --   -0.74848  -0.73538  -0.73368  -0.72226  -0.70933
 Alpha  occ. eigenvalues --   -0.70316  -0.67737  -0.67410  -0.66953  -0.66558
 Alpha  occ. eigenvalues --   -0.66092  -0.65816  -0.64527  -0.64131  -0.63830
 Alpha  occ. eigenvalues --   -0.62244  -0.62164  -0.60598  -0.60407  -0.59476
 Alpha  occ. eigenvalues --   -0.59223  -0.57415  -0.57025  -0.56707  -0.56576
 Alpha  occ. eigenvalues --   -0.56097  -0.55963  -0.55211  -0.54769  -0.54382
 Alpha  occ. eigenvalues --   -0.53411  -0.52849  -0.52032  -0.51643  -0.51200
 Alpha  occ. eigenvalues --   -0.51119  -0.50874  -0.49873  -0.49170  -0.48861
 Alpha  occ. eigenvalues --   -0.48630  -0.48040  -0.47889  -0.47771  -0.47388
 Alpha  occ. eigenvalues --   -0.46902  -0.46682  -0.46208  -0.46169  -0.45711
 Alpha  occ. eigenvalues --   -0.45430  -0.45184  -0.44971  -0.44912  -0.44367
 Alpha  occ. eigenvalues --   -0.43934  -0.43555  -0.43392  -0.43077  -0.42688
 Alpha  occ. eigenvalues --   -0.42260  -0.41668  -0.41507  -0.41383  -0.40269
 Alpha  occ. eigenvalues --   -0.39930  -0.39475  -0.38119  -0.37974  -0.37870
 Alpha  occ. eigenvalues --   -0.36038  -0.34771  -0.34380  -0.33180  -0.32788
 Alpha  occ. eigenvalues --   -0.32578  -0.32027  -0.31888  -0.30953  -0.30737
 Alpha  occ. eigenvalues --   -0.30390  -0.30287
 Alpha virt. eigenvalues --   -0.14104  -0.09999  -0.07018  -0.06746  -0.06301
 Alpha virt. eigenvalues --   -0.06090  -0.06045  -0.05440  -0.04595  -0.04316
 Alpha virt. eigenvalues --   -0.03804  -0.03075  -0.01292   0.00029   0.00568

 Mulliken charges:
               1
     1  N   -0.755774
     2  H    0.328836
     3  H    0.338572
     4  C   -0.058518
     5  H    0.166351
     6  C    0.643541
     7  C   -0.378278
     8  H    0.153268
     9  H    0.161444
    10  O   -0.553402
    11  C    0.148628
    12  C   -0.180224
    13  H    0.131108
    14  C   -0.183942
    15  H    0.123848
    16  C   -0.127385
    17  H    0.145522
    18  C   -0.127699
    19  H    0.141069
    20  C   -0.127721
    21  H    0.145505
    22  N   -0.606081
    23  H    0.349982
    24  C   -0.073546
    25  H    0.182633
    26  C    0.606793
    27  C   -0.279651
    28  H    0.155825
    29  H    0.152274
    30  O   -0.527309
    31  C   -0.071858
    32  H    0.121129
    33  C   -0.443368
    34  H    0.145294
    35  H    0.150565
    36  H    0.142646
    37  C   -0.453751
    38  H    0.144566
    39  H    0.150474
    40  H    0.152806
    41  N   -0.583414
    42  H    0.361840
    43  C   -0.066034
    44  H    0.206478
    45  C    0.597851
    46  C   -0.423242
    47  H    0.188166
    48  H    0.195873
    49  O   -0.524998
    50  C    0.611487
    51  N   -0.782439
    52  H    0.338051
    53  H    0.408163
    54  O   -0.541502
    55  N   -0.634147
    56  H    0.386650
    57  C   -0.049272
    58  H    0.206218
    59  C    0.590204
    60  C   -0.258403
    61  H    0.143983
    62  H    0.157422
    63  O   -0.470817
    64  C   -0.320404
    65  H    0.178978
    66  H    0.203050
    67  C   -0.158785
    68  H    0.192462
    69  H    0.184520
    70  N   -0.594228
    71  H    0.370353
    72  N   -0.754534
    73  H    0.388192
    74  H    0.396924
    75  N   -0.762638
    76  H    0.387269
    77  H    0.390170
    78  C    0.835709
    79  O   -0.552413
    80  H    0.423090
 Sum of Mulliken charges =   1.00000

 Dipole moment (field-independent basis, Debye):
    X=             16.5103    Y=             10.7658    Z=            -22.1066  Tot=             29.6175
 Quadrupole moment (field-independent basis, Debye-Ang):
   XX=            -67.9276   YY=           -195.8867   ZZ=             16.4061
   XY=             21.7293   XZ=           -181.4007   YZ=            -38.6502

 Normal termination of Gaussian 16 at Sun Jun 19 01:46:54 2022.
