 Gaussian 16, Revision C.01,
 Gaussian 16:  ES64L-G16RevC.01  3-Jul-2019

 ----------------------------------------------------------------------
 # B3LYP/6-31G* empiricaldispersion=gd3 guess=read geom=check nosymm in
 tegral(ultrafinegrid)
 ----------------------------------------------------------------------

 ------------------------------------------------------
 Candidate Structure: Conf:879 Charge calc in gas phase
 ------------------------------------------------------
 Structure from the checkpoint file:  "conf-879.chk"
 Charge =  1 Multiplicity = 1

                          Input orientation:
 ---------------------------------------------------------------------
 Center     Atomic      Atomic             Coordinates (Angstroms)
 Number     Number       Type             X           Y           Z
 ---------------------------------------------------------------------
      1          7           0        0.265116   -0.694613    3.338488
      2          1           0        1.072857    0.747141    3.003650
      3          1           0        0.119250   -0.987833    4.303147
      4          1           0        0.879925   -1.381297    2.896156
      5          6           0       -1.021520   -0.685075    2.604245
      6          1           0       -1.613071    0.153281    2.993521
      7          6           0       -0.653556   -0.431125    1.127436
      8          6           0       -1.802122   -2.003589    2.772523
      9          1           0       -1.756812   -2.300293    3.826827
     10          1           0       -1.289693   -2.792558    2.210898
     11          8           0        0.308255   -1.005417    0.624984
     12          6           0       -3.272635   -1.932119    2.350925
     13          1           0       -3.388271   -1.666024    1.295820
     14          1           0       -3.819651   -1.171388    2.924509
     15          6           0       -3.958323   -3.261938    2.584404
     16          8           0       -3.441893   -4.239605    3.072465
     17          8           0       -5.268307   -3.256273    2.199523
     18          7           0       -1.388383    0.495195    0.448894
     19          1           0       -2.270853    0.794103    0.841491
     20          6           0       -1.138020    0.806313   -0.968757
     21          1           0       -1.738941    1.700469   -1.173387
     22          6           0        0.346157    1.184661   -1.186888
     23          6           0       -1.554917   -0.319527   -1.939641
     24          1           0       -1.483860    0.082164   -2.956346
     25          1           0       -0.815650   -1.120555   -1.867912
     26          8           0        0.956770    0.851773   -2.190820
     27          6           0       -2.936596   -0.841286   -1.626765
     28          6           0       -3.127133   -2.177827   -1.262058
     29          1           0       -2.282002   -2.861795   -1.279024
     30          6           0       -4.053749    0.009101   -1.611122
     31          1           0       -3.945930    1.047117   -1.920959
     32          6           0       -4.376890   -2.647374   -0.855376
     33          1           0       -4.504622   -3.687239   -0.566802
     34          6           0       -5.300578   -0.436186   -1.183863
     35          1           0       -6.156971    0.229213   -1.140908
     36          8           0       -6.682143   -2.140500   -0.298340
     37          6           0       -5.459486   -1.764759   -0.771016
     38          7           0        0.912487    1.934219   -0.180471
     39          1           0        0.333371    2.037371    0.646280
     40          6           0        2.303400    1.650958    0.177369
     41          1           0        2.633286    0.802565   -0.430376
     42          6           0        2.389876    1.163345    1.631730
     43          6           0        3.261102    2.819922   -0.095124
     44          1           0        2.993028    3.666563    0.552768
     45          1           0        4.268868    2.491364    0.193126
     46          8           0        3.335704    0.526025    2.037204
     47          6           0        3.221185    3.225312   -1.576337
     48          1           0        2.282810    3.750832   -1.788750
     49          1           0        3.197810    2.326319   -2.200616
     50          6           0        4.418681    4.084288   -2.018997
     51          1           0        5.348579    3.518229   -1.865212
     52          1           0        4.337152    4.299968   -3.093477
     53          6           0        4.492298    5.392635   -1.243772
     54          1           0        3.608273    6.017874   -1.392975
     55          1           0        4.647523    5.241589   -0.173739
     56          7           0        5.686783    6.226729   -1.724580
     57          1           0        5.769941    7.120177   -1.224228
     58          1           0        5.607084    6.434060   -2.727907
     59          1           0        6.565507    5.710325   -1.592767
     60          8           0        1.315368    1.505791    2.359311
     61          1           0       -6.555845   -2.893467    0.300662
     62          1           0       -5.617234   -4.130214    2.462749
 ---------------------------------------------------------------------

 SCF Done:  E(RB3LYP) =  -1526.27187499     A.U. after    1 cycles

 Alpha  occ. eigenvalues --  -19.27191 -19.23828 -19.22746 -19.21331 -19.20433
 Alpha  occ. eigenvalues --  -19.20014 -19.19489 -14.65346 -14.45282 -14.42648
 Alpha  occ. eigenvalues --  -14.42436 -10.42058 -10.39525 -10.38275 -10.37511
 Alpha  occ. eigenvalues --  -10.36410 -10.34441 -10.31829 -10.31818 -10.31150
 Alpha  occ. eigenvalues --  -10.30675 -10.30058 -10.29124 -10.27710 -10.27132
 Alpha  occ. eigenvalues --  -10.25414 -10.25373 -10.25349 -10.25168 -10.24866
 Alpha  occ. eigenvalues --  -10.24700  -1.19185  -1.17789  -1.15535  -1.12618
 Alpha  occ. eigenvalues --   -1.11082  -1.11060  -1.08839  -1.07218  -1.01540
 Alpha  occ. eigenvalues --   -0.99608  -0.98733  -0.95553  -0.91556  -0.88447
 Alpha  occ. eigenvalues --   -0.87573  -0.85540  -0.83219  -0.80947  -0.80706
 Alpha  occ. eigenvalues --   -0.78868  -0.78220  -0.77781  -0.75452  -0.73463
 Alpha  occ. eigenvalues --   -0.71381  -0.69798  -0.68192  -0.67812  -0.67592
 Alpha  occ. eigenvalues --   -0.66640  -0.65912  -0.65093  -0.63746  -0.62491
 Alpha  occ. eigenvalues --   -0.62349  -0.60209  -0.60090  -0.58705  -0.57606
 Alpha  occ. eigenvalues --   -0.57213  -0.55992  -0.55687  -0.55398  -0.55396
 Alpha  occ. eigenvalues --   -0.54490  -0.53778  -0.53623  -0.52958  -0.52433
 Alpha  occ. eigenvalues --   -0.52241  -0.51659  -0.51047  -0.50223  -0.49888
 Alpha  occ. eigenvalues --   -0.49704  -0.49493  -0.48490  -0.48250  -0.47899
 Alpha  occ. eigenvalues --   -0.47291  -0.47139  -0.46568  -0.46080  -0.46035
 Alpha  occ. eigenvalues --   -0.45610  -0.44809  -0.44308  -0.43865  -0.43293
 Alpha  occ. eigenvalues --   -0.42849  -0.42171  -0.41915  -0.41108  -0.39762
 Alpha  occ. eigenvalues --   -0.39289  -0.37855  -0.37614  -0.35826  -0.35525
 Alpha  occ. eigenvalues --   -0.34947  -0.34887  -0.33820  -0.32556  -0.31879
 Alpha  occ. eigenvalues --   -0.31426  -0.27809
 Alpha virt. eigenvalues --   -0.15716  -0.09078  -0.08993  -0.07657  -0.07022
 Alpha virt. eigenvalues --   -0.06860  -0.06312  -0.06145  -0.05287  -0.04819
 Alpha virt. eigenvalues --   -0.02918  -0.01674  -0.01150  -0.00676   0.00004

 Mulliken charges:
               1
     1  N   -0.779654
     2  H    0.460324
     3  H    0.334689
     4  H    0.358192
     5  C   -0.062190
     6  H    0.148238
     7  C    0.638547
     8  C   -0.271780
     9  H    0.163659
    10  H    0.183761
    11  O   -0.526597
    12  C   -0.390351
    13  H    0.208489
    14  H    0.178918
    15  C    0.598425
    16  O   -0.442829
    17  O   -0.589623
    18  N   -0.625474
    19  H    0.342046
    20  C   -0.063980
    21  H    0.169542
    22  C    0.620828
    23  C   -0.352240
    24  H    0.173791
    25  H    0.189439
    26  O   -0.509815
    27  C    0.175801
    28  C   -0.215038
    29  H    0.145408
    30  C   -0.210149
    31  H    0.124113
    32  C   -0.200076
    33  H    0.133445
    34  C   -0.158497
    35  H    0.149708
    36  O   -0.646821
    37  C    0.358382
    38  N   -0.608713
    39  H    0.354788
    40  C   -0.060608
    41  H    0.209945
    42  C    0.592457
    43  C   -0.280991
    44  H    0.136294
    45  H    0.159262
    46  O   -0.464202
    47  C   -0.272152
    48  H    0.168028
    49  H    0.206684
    50  C   -0.299473
    51  H    0.169849
    52  H    0.168469
    53  C   -0.204903
    54  H    0.227573
    55  H    0.234202
    56  N   -0.731673
    57  H    0.431179
    58  H    0.427080
    59  H    0.428289
    60  O   -0.637342
    61  H    0.416956
    62  H    0.418371
 Sum of Mulliken charges =   1.00000

 Dipole moment (field-independent basis, Debye):
    X=             16.2141    Y=             25.2494    Z=             -3.0944  Tot=             30.1662
 Quadrupole moment (field-independent basis, Debye-Ang):
   XX=            -38.8193   YY=             -7.3289   ZZ=           -160.0168
   XY=            156.4531   XZ=            -57.6741   YZ=            -51.0961

 Normal termination of Gaussian 16 at Wed Jun  1 23:44:04 2022.
