 Gaussian 16, Revision C.01,
 Gaussian 16:  ES64L-G16RevC.01  3-Jul-2019

 ----------------------------------------------------------------------
 # B3LYP/6-31G* empiricaldispersion=gd3 guess=read geom=check nosymm in
 tegral(ultrafinegrid)
 ----------------------------------------------------------------------

 ------------------------------------------------------
 Candidate Structure: Conf:197 Charge calc in gas phase
 ------------------------------------------------------
 Structure from the checkpoint file:  "conf-197.chk"
 Charge =  1 Multiplicity = 1

                          Input orientation:
 ---------------------------------------------------------------------
 Center     Atomic      Atomic             Coordinates (Angstroms)
 Number     Number       Type             X           Y           Z
 ---------------------------------------------------------------------
      1          7           0       -3.939577   -2.514530    2.002349
      2          1           0       -3.859205   -3.440843    1.571579
      3          1           0       -4.584045   -2.563685    2.791862
      4          1           0       -4.300599   -1.867662    1.275952
      5          6           0       -2.607204   -1.953701    2.356794
      6          1           0       -1.937874   -2.759589    2.669713
      7          6           0       -2.117558   -1.290276    1.057516
      8          6           0       -2.713309   -0.903582    3.477550
      9          1           0       -3.263353   -1.335873    4.316693
     10          1           0       -3.325177   -0.072088    3.107125
     11          8           0       -2.954873   -0.908359    0.239351
     12          6           0       -1.356968   -0.343165    3.959951
     13          1           0       -1.536740    0.456963    4.684047
     14          1           0       -0.795765    0.091493    3.130397
     15          6           0       -0.477155   -1.359163    4.588017
     16          8           0        0.513024   -1.934684    4.249402
     17          8           0       -0.844227   -1.567677    6.071386
     18          7           0       -0.804515   -1.100673    0.955732
     19          1           0       -0.141038   -1.360039    1.684207
     20          6           0       -0.211336   -0.270933   -0.072191
     21          1           0       -0.893675    0.558813   -0.280561
     22          6           0        1.066712    0.285935    0.576474
     23          6           0        0.011453   -1.039639   -1.394880
     24          1           0        0.686234   -1.880352   -1.211670
     25          1           0       -0.967623   -1.442139   -1.677366
     26          8           0        1.492160   -0.205230    1.621784
     27          6           0        0.580349   -0.140666   -2.450036
     28          6           0       -0.163579    0.951442   -2.932327
     29          1           0       -1.209926    1.040687   -2.636733
     30          6           0        1.915585   -0.280473   -2.862773
     31          1           0        2.493993   -1.128607   -2.498844
     32          6           0        0.414176    1.929879   -3.704457
     33          1           0       -0.143626    2.798418   -4.034485
     34          6           0        2.520837    0.658591   -3.657945
     35          1           0        3.556558    0.563722   -3.966492
     36          8           0        2.382557    2.762258   -4.724243
     37          6           0        1.819732    1.860068   -4.076455
     38          7           0        1.624171    1.321960   -0.064704
     39          1           0        1.195779    1.663560   -0.918248
     40          6           0        2.799958    2.027676    0.394303
     41          1           0        3.340711    1.397172    1.100538
     42          6           0        2.359796    3.355780    1.126877
     43          6           0        3.640494    2.445997   -0.801471
     44          1           0        3.947256    1.563904   -1.373915
     45          1           0        2.998050    3.056337   -1.448519
     46          8           0        2.570251    3.382093    2.353114
     47          6           0        4.839643    3.280194   -0.375594
     48          1           0        5.549995    2.659124    0.184593
     49          1           0        4.471757    4.052870    0.309582
     50          6           0        5.531404    3.915379   -1.576160
     51          1           0        5.780565    3.146142   -2.314328
     52          1           0        4.832393    4.601882   -2.070369
     53          6           0        6.797150    4.667040   -1.206339
     54          1           0        7.529328    3.985532   -0.765480
     55          1           0        7.259745    5.123116   -2.084129
     56          7           0        6.490772    5.741678   -0.202935
     57          1           0        7.249960    6.419817   -0.108583
     58          1           0        6.316252    5.336971    0.719891
     59          1           0        5.640817    6.244174   -0.470581
     60          8           0        1.844225    4.214773    0.380144
     61          1           0       -1.749888   -1.777367    6.311804
     62          1           0       -0.246183   -2.258736    6.418299
 ---------------------------------------------------------------------

 SCF Done:  E(RB3LYP) =  -1525.97942176     A.U. after    3 cycles

 Alpha  occ. eigenvalues --  -19.44834 -19.29658 -19.25364 -19.16740 -19.10257
 Alpha  occ. eigenvalues --  -19.05796 -19.05697 -14.62782 -14.60246 -14.47406
 Alpha  occ. eigenvalues --  -14.39674 -10.44932 -10.42250 -10.41985 -10.37239
 Alpha  occ. eigenvalues --  -10.36695 -10.35779 -10.33434 -10.30416 -10.28167
 Alpha  occ. eigenvalues --  -10.25106 -10.24929 -10.24864 -10.24169 -10.22419
 Alpha  occ. eigenvalues --  -10.22112 -10.21616 -10.21409 -10.21231 -10.19980
 Alpha  occ. eigenvalues --  -10.19703  -1.32355  -1.19751  -1.19598  -1.15703
 Alpha  occ. eigenvalues --   -1.14828  -1.09170  -1.04144  -0.99912  -0.99833
 Alpha  occ. eigenvalues --   -0.97636  -0.96147  -0.90902  -0.90593  -0.90307
 Alpha  occ. eigenvalues --   -0.88083  -0.84513  -0.83196  -0.82578  -0.81985
 Alpha  occ. eigenvalues --   -0.78231  -0.77335  -0.76884  -0.76372  -0.76186
 Alpha  occ. eigenvalues --   -0.74657  -0.73246  -0.72793  -0.70915  -0.69983
 Alpha  occ. eigenvalues --   -0.68232  -0.67279  -0.66293  -0.64068  -0.63579
 Alpha  occ. eigenvalues --   -0.62949  -0.62862  -0.62422  -0.61972  -0.60821
 Alpha  occ. eigenvalues --   -0.59532  -0.58468  -0.57458  -0.56340  -0.56159
 Alpha  occ. eigenvalues --   -0.55214  -0.54617  -0.53905  -0.52870  -0.52586
 Alpha  occ. eigenvalues --   -0.51653  -0.51575  -0.50758  -0.50639  -0.50079
 Alpha  occ. eigenvalues --   -0.49520  -0.48367  -0.47640  -0.47129  -0.45966
 Alpha  occ. eigenvalues --   -0.44976  -0.44651  -0.44300  -0.43774  -0.42984
 Alpha  occ. eigenvalues --   -0.42380  -0.41408  -0.40969  -0.40755  -0.40220
 Alpha  occ. eigenvalues --   -0.39648  -0.38931  -0.37978  -0.37206  -0.36862
 Alpha  occ. eigenvalues --   -0.36403  -0.35499  -0.34935  -0.32866  -0.31131
 Alpha  occ. eigenvalues --   -0.30107  -0.27715  -0.23149  -0.21836  -0.20300
 Alpha  occ. eigenvalues --   -0.19611  -0.18997
 Alpha virt. eigenvalues --   -0.17744  -0.15755  -0.13190  -0.11154  -0.10208
 Alpha virt. eigenvalues --   -0.08583  -0.07382  -0.05585  -0.04235  -0.04224
 Alpha virt. eigenvalues --   -0.03615  -0.02883  -0.02479  -0.02059  -0.00594

 Mulliken charges:
               1
     1  N   -0.724026
     2  H    0.423000
     3  H    0.405676
     4  H    0.427138
     5  C   -0.128142
     6  H    0.210152
     7  C    0.634921
     8  C   -0.300849
     9  H    0.128626
    10  H    0.209147
    11  O   -0.527881
    12  C   -0.375509
    13  H    0.218193
    14  H    0.272725
    15  C    0.455289
    16  O   -0.372677
    17  O   -0.607281
    18  N   -0.605441
    19  H    0.372663
    20  C   -0.079030
    21  H    0.196035
    22  C    0.616215
    23  C   -0.338576
    24  H    0.148005
    25  H    0.154461
    26  O   -0.563883
    27  C    0.118860
    28  C   -0.202283
    29  H    0.114254
    30  C   -0.160703
    31  H    0.109412
    32  C   -0.192435
    33  H    0.132258
    34  C   -0.200003
    35  H    0.112017
    36  O   -0.577950
    37  C    0.419666
    38  N   -0.585235
    39  H    0.364591
    40  C   -0.029159
    41  H    0.144399
    42  C    0.526141
    43  C   -0.282276
    44  H    0.134832
    45  H    0.181428
    46  O   -0.598150
    47  C   -0.298274
    48  H    0.132723
    49  H    0.154213
    50  C   -0.294058
    51  H    0.200887
    52  H    0.188363
    53  C   -0.218563
    54  H    0.215509
    55  H    0.217783
    56  N   -0.720259
    57  H    0.421093
    58  H    0.438279
    59  H    0.435786
    60  O   -0.612197
    61  H    0.474447
    62  H    0.485652
 Sum of Mulliken charges =   1.00000

 Dipole moment (field-independent basis, Debye):
    X=             -0.4024    Y=             -5.8321    Z=             22.8677  Tot=             23.6031
 Quadrupole moment (field-independent basis, Debye-Ang):
   XX=             29.4353   YY=            -75.8305   ZZ=           -109.7534
   XY=            155.4414   XZ=            -63.5710   YZ=            -54.1604

 Normal termination of Gaussian 16 at Wed Jun  1 23:44:21 2022.
