 Gaussian 16, Revision C.01,
 Gaussian 16:  ES64L-G16RevC.01  3-Jul-2019

 ----------------------------------------------------------------------
 # B3LYP/6-31G* empiricaldispersion=gd3 guess=read geom=check nosymm in
 tegral(ultrafinegrid)
 ----------------------------------------------------------------------

 ------------------------------------------------------
 Candidate Structure: Conf:448 Charge calc in gas phase
 ------------------------------------------------------
 Structure from the checkpoint file:  "conf-448.chk"
 Charge =  1 Multiplicity = 1

                          Input orientation:
 ---------------------------------------------------------------------
 Center     Atomic      Atomic             Coordinates (Angstroms)
 Number     Number       Type             X           Y           Z
 ---------------------------------------------------------------------
      1          7           0        0.179926   -4.229358    2.979347
      2          1           0        1.135581   -4.034089    3.280529
      3          1           0       -0.298556   -4.777175    3.691604
      4          1           0        0.249984   -4.787908    2.125780
      5          6           0       -0.543736   -2.982497    2.666631
      6          1           0       -0.322506   -2.239174    3.440045
      7          6           0       -0.015317   -2.439888    1.334054
      8          6           0       -2.059145   -3.199813    2.646642
      9          1           0       -2.542817   -2.276251    2.329213
     10          1           0       -2.384155   -3.386281    3.673301
     11          8           0        0.580583   -3.152851    0.542385
     12          6           0       -2.510238   -4.351465    1.761213
     13          1           0       -2.069304   -5.294955    2.087868
     14          1           0       -2.217992   -4.186360    0.723332
     15          6           0       -3.991270   -4.522667    1.848417
     16          8           0       -4.620983   -5.387702    2.356123
     17          8           0       -4.712886   -3.392163    1.272562
     18          7           0       -0.303884   -1.128267    1.113572
     19          1           0       -0.697834   -0.605410    1.874990
     20          6           0        0.122967   -0.338665   -0.036040
     21          1           0       -0.530708    0.540401   -0.047816
     22          6           0        1.562471    0.159561    0.124989
     23          6           0       -0.017581   -1.040567   -1.393190
     24          1           0        0.635183   -1.905409   -1.435404
     25          1           0       -1.045684   -1.387560   -1.483838
     26          8           0        2.537415   -0.565874   -0.018092
     27          6           0        0.315907   -0.084967   -2.487596
     28          6           0       -0.611523    0.888267   -2.900253
     29          1           0       -1.608018    0.867404   -2.467098
     30          6           0        1.607902   -0.065513   -3.039231
     31          1           0        2.337982   -0.791377   -2.682797
     32          6           0       -0.283848    1.860208   -3.811812
     33          1           0       -0.990895    2.617415   -4.123959
     34          6           0        1.981235    0.873877   -3.961611
     35          1           0        2.978662    0.901015   -4.381201
     36          8           0        1.387642    2.797352   -5.182819
     37          6           0        1.057336    1.919350   -4.377626
     38          7           0        1.690540    1.472151    0.403480
     39          1           0        0.931282    2.111897    0.581445
     40          6           0        2.965036    2.121215    0.447745
     41          1           0        3.674590    1.555106    1.062307
     42          6           0        2.668468    3.515753    1.089730
     43          6           0        3.566347    2.328209   -0.954230
     44          1           0        3.512949    1.374349   -1.489627
     45          1           0        2.921088    3.020674   -1.502467
     46          8           0        3.649107    4.182181    1.451982
     47          6           0        5.020538    2.828856   -0.905182
     48          1           0        5.688620    1.976886   -1.067182
     49          1           0        5.243678    3.210638    0.091751
     50          6           0        5.312008    3.931481   -1.916521
     51          1           0        6.382105    4.157900   -1.906565
     52          1           0        5.062976    3.605165   -2.931748
     53          6           0        4.550568    5.209359   -1.609254
     54          1           0        3.479314    5.038552   -1.728007
     55          1           0        4.723892    5.485437   -0.568031
     56          7           0        4.952624    6.323641   -2.503237
     57          1           0        4.446923    7.184066   -2.293038
     58          1           0        4.772793    6.090396   -3.478970
     59          1           0        5.947813    6.520646   -2.411918
     60          8           0        1.462844    3.826063    1.152047
     61          1           0       -4.502693   -3.148350    0.343625
     62          1           0       -5.668007   -3.605016    1.315780
 ---------------------------------------------------------------------

 SCF Done:  E(RB3LYP) =  -1525.96130662     A.U. after    3 cycles

 Alpha  occ. eigenvalues --  -19.46918 -19.29904 -19.25522 -19.14973 -19.11801
 Alpha  occ. eigenvalues --  -19.07739 -19.07300 -14.64778 -14.59461 -14.48950
 Alpha  occ. eigenvalues --  -14.37873 -10.46297 -10.43100 -10.42902 -10.37888
 Alpha  occ. eigenvalues --  -10.37732 -10.33669 -10.32355 -10.31241 -10.27470
 Alpha  occ. eigenvalues --  -10.26022 -10.25765 -10.25068 -10.22996 -10.22876
 Alpha  occ. eigenvalues --  -10.22772 -10.22465 -10.21730 -10.21245 -10.20928
 Alpha  occ. eigenvalues --  -10.20616  -1.34917  -1.21020  -1.20931  -1.16946
 Alpha  occ. eigenvalues --   -1.14294  -1.07744  -1.04980  -1.02051  -1.01824
 Alpha  occ. eigenvalues --   -0.99408  -0.95212  -0.92756  -0.92479  -0.88997
 Alpha  occ. eigenvalues --   -0.88831  -0.85325  -0.84021  -0.83237  -0.81160
 Alpha  occ. eigenvalues --   -0.80368  -0.77944  -0.77861  -0.77695  -0.77557
 Alpha  occ. eigenvalues --   -0.75957  -0.72859  -0.72572  -0.71947  -0.69889
 Alpha  occ. eigenvalues --   -0.68696  -0.67340  -0.66700  -0.66688  -0.64066
 Alpha  occ. eigenvalues --   -0.63819  -0.63442  -0.62582  -0.61445  -0.61005
 Alpha  occ. eigenvalues --   -0.60373  -0.59917  -0.58944  -0.57408  -0.56758
 Alpha  occ. eigenvalues --   -0.56086  -0.54887  -0.54710  -0.53447  -0.52612
 Alpha  occ. eigenvalues --   -0.52189  -0.51510  -0.50818  -0.49960  -0.49564
 Alpha  occ. eigenvalues --   -0.48975  -0.48024  -0.47621  -0.46342  -0.45681
 Alpha  occ. eigenvalues --   -0.45437  -0.45237  -0.44978  -0.44598  -0.43114
 Alpha  occ. eigenvalues --   -0.42519  -0.42270  -0.41144  -0.40524  -0.39554
 Alpha  occ. eigenvalues --   -0.39408  -0.39011  -0.38256  -0.38199  -0.38046
 Alpha  occ. eigenvalues --   -0.37328  -0.36769  -0.35659  -0.33887  -0.29135
 Alpha  occ. eigenvalues --   -0.28525  -0.28277  -0.24500  -0.23563  -0.22796
 Alpha  occ. eigenvalues --   -0.21525  -0.19808
 Alpha virt. eigenvalues --   -0.18497  -0.15858  -0.13905  -0.12350  -0.09754
 Alpha virt. eigenvalues --   -0.08991  -0.08580  -0.08028  -0.05269  -0.03519
 Alpha virt. eigenvalues --   -0.03470  -0.03318  -0.03070  -0.02788  -0.01766

 Mulliken charges:
               1
     1  N   -0.718177
     2  H    0.446532
     3  H    0.422682
     4  H    0.426272
     5  C   -0.157129
     6  H    0.229891
     7  C    0.641479
     8  C   -0.295142
     9  H    0.201441
    10  H    0.192296
    11  O   -0.495694
    12  C   -0.368197
    13  H    0.184490
    14  H    0.197488
    15  C    0.463257
    16  O   -0.378083
    17  O   -0.554313
    18  N   -0.614692
    19  H    0.339497
    20  C   -0.058661
    21  H    0.164268
    22  C    0.631477
    23  C   -0.356633
    24  H    0.202385
    25  H    0.102732
    26  O   -0.548124
    27  C    0.131076
    28  C   -0.169276
    29  H    0.090327
    30  C   -0.161693
    31  H    0.143758
    32  C   -0.190945
    33  H    0.125453
    34  C   -0.197412
    35  H    0.117266
    36  O   -0.566575
    37  C    0.413479
    38  N   -0.601171
    39  H    0.339531
    40  C   -0.044620
    41  H    0.142604
    42  C    0.550675
    43  C   -0.286368
    44  H    0.170992
    45  H    0.131533
    46  O   -0.608334
    47  C   -0.269996
    48  H    0.146665
    49  H    0.197137
    50  C   -0.300178
    51  H    0.135008
    52  H    0.161967
    53  C   -0.233221
    54  H    0.239236
    55  H    0.259438
    56  N   -0.715313
    57  H    0.427780
    58  H    0.423773
    59  H    0.416276
    60  O   -0.602053
    61  H    0.411554
    62  H    0.470285
 Sum of Mulliken charges =   1.00000

 Dipole moment (field-independent basis, Debye):
    X=             -3.2808    Y=            -10.2190    Z=              8.0447  Tot=             13.4130
 Quadrupole moment (field-independent basis, Debye-Ang):
   XX=            -58.7232   YY=            -17.4815   ZZ=           -162.9116
   XY=            112.3281   XZ=            -51.8485   YZ=           -108.3041

 Normal termination of Gaussian 16 at Wed Jun  1 23:44:22 2022.
