 Gaussian 16, Revision C.01,
 Gaussian 16:  ES64L-G16RevC.01  3-Jul-2019

 ----------------------------------------------------------------------
 # B3LYP/6-31G* empiricaldispersion=gd3 guess=read geom=check nosymm in
 tegral(ultrafinegrid)
 ----------------------------------------------------------------------

 ------------------------------------------------------
 Candidate Structure: Conf:966 Charge calc in gas phase
 ------------------------------------------------------
 Structure from the checkpoint file:  "conf-966.chk"
 Charge =  1 Multiplicity = 1

                          Input orientation:
 ---------------------------------------------------------------------
 Center     Atomic      Atomic             Coordinates (Angstroms)
 Number     Number       Type             X           Y           Z
 ---------------------------------------------------------------------
      1          7           0       -0.382547   -3.424852    3.400278
      2          1           0        0.581215   -3.166925    3.614917
      3          1           0       -0.798429   -3.853000    4.225371
      4          1           0       -0.344384   -4.117807    2.652276
      5          6           0       -1.140655   -2.242372    2.948116
      6          1           0       -1.108477   -1.482094    3.736914
      7          6           0       -0.446522   -1.664915    1.707952
      8          6           0       -2.599378   -2.571226    2.652980
      9          1           0       -2.635870   -3.355808    1.898777
     10          1           0       -3.074185   -1.697279    2.207580
     11          8           0        0.386928   -2.294751    1.087474
     12          6           0       -3.384784   -2.989218    3.888381
     13          1           0       -3.270126   -2.265000    4.692908
     14          1           0       -3.063869   -3.969345    4.258801
     15          6           0       -4.841367   -3.061842    3.576791
     16          8           0       -5.737569   -2.399096    3.977831
     17          8           0       -5.135131   -4.073756    2.566174
     18          7           0       -0.830173   -0.407192    1.363257
     19          1           0       -1.547370    0.055619    1.896461
     20          6           0       -0.265444    0.284794    0.213824
     21          1           0       -0.664111    1.304023    0.275309
     22          6           0        1.260213    0.379872    0.331261
     23          6           0       -0.689891   -0.317906   -1.138008
     24          1           0       -0.172486   -1.260974   -1.284603
     25          1           0       -1.757814   -0.532620   -1.081390
     26          8           0        2.040948   -0.069454   -0.491215
     27          6           0       -0.422205    0.626501   -2.259996
     28          6           0       -1.135206    1.833307   -2.342607
     29          1           0       -1.896431    2.037200   -1.594938
     30          6           0        0.564239    0.358215   -3.222739
     31          1           0        1.136555   -0.563336   -3.139673
     32          6           0       -0.905369    2.743708   -3.340231
     33          1           0       -1.455204    3.673932   -3.409361
     34          6           0        0.837512    1.232811   -4.243474
     35          1           0        1.589515    1.023340   -4.992640
     36          8           0        0.335186    3.296111   -5.264487
     37          6           0        0.114045    2.491659   -4.352136
     38          7           0        1.701209    1.028728    1.436747
     39          1           0        1.138485    1.318883    2.227670
     40          6           0        3.087677    1.338735    1.617426
     41          1           0        3.699767    0.429226    1.572167
     42          6           0        3.195320    1.948211    3.059407
     43          6           0        3.676921    2.329134    0.600094
     44          1           0        4.652594    2.639866    0.986014
     45          1           0        3.856403    1.785603   -0.328137
     46          8           0        4.330826    2.202921    3.468174
     47          6           0        2.793447    3.543393    0.333741
     48          1           0        2.556654    4.038612    1.282901
     49          1           0        1.838401    3.213769   -0.086481
     50          6           0        3.414128    4.538783   -0.633362
     51          1           0        2.816648    5.454103   -0.638399
     52          1           0        4.419207    4.815355   -0.294485
     53          6           0        3.497138    4.013499   -2.053328
     54          1           0        4.118510    3.114662   -2.074408
     55          1           0        2.500678    3.735321   -2.404265
     56          7           0        4.078408    5.016218   -2.984175
     57          1           0        4.246258    4.629255   -3.912881
     58          1           0        4.966257    5.368117   -2.630785
     59          1           0        3.451187    5.812108   -3.094376
     60          8           0        2.101464    2.101002    3.649433
     61          1           0       -4.817838   -4.988037    2.735976
     62          1           0       -6.106334   -4.110144    2.453020
 ---------------------------------------------------------------------

 SCF Done:  E(RB3LYP) =  -1525.94982496     A.U. after    1 cycles

 Alpha  occ. eigenvalues --  -19.47600 -19.30642 -19.25467 -19.15855 -19.12676
 Alpha  occ. eigenvalues --  -19.07516 -19.06698 -14.64829 -14.60839 -14.48811
 Alpha  occ. eigenvalues --  -14.37961 -10.47107 -10.42929 -10.42881 -10.38594
 Alpha  occ. eigenvalues --  -10.38034 -10.35991 -10.33019 -10.31567 -10.28985
 Alpha  occ. eigenvalues --  -10.27049 -10.25400 -10.25324 -10.24647 -10.23767
 Alpha  occ. eigenvalues --  -10.23339 -10.23036 -10.22665 -10.21908 -10.21852
 Alpha  occ. eigenvalues --  -10.21495  -1.35667  -1.21621  -1.21012  -1.17226
 Alpha  occ. eigenvalues --   -1.15683  -1.08332  -1.05108  -1.02841  -1.01553
 Alpha  occ. eigenvalues --   -1.00017  -0.95232  -0.93142  -0.92131  -0.90679
 Alpha  occ. eigenvalues --   -0.89482  -0.85674  -0.84584  -0.83743  -0.82515
 Alpha  occ. eigenvalues --   -0.80829  -0.78828  -0.78601  -0.78236  -0.77174
 Alpha  occ. eigenvalues --   -0.76730  -0.74010  -0.73887  -0.72490  -0.70601
 Alpha  occ. eigenvalues --   -0.69457  -0.67959  -0.67833  -0.66894  -0.65994
 Alpha  occ. eigenvalues --   -0.64792  -0.64372  -0.63193  -0.61375  -0.61014
 Alpha  occ. eigenvalues --   -0.60802  -0.60431  -0.59494  -0.58813  -0.56576
 Alpha  occ. eigenvalues --   -0.56463  -0.55693  -0.54864  -0.54488  -0.53147
 Alpha  occ. eigenvalues --   -0.52567  -0.52403  -0.51231  -0.50857  -0.50110
 Alpha  occ. eigenvalues --   -0.50015  -0.49255  -0.48865  -0.47010  -0.46671
 Alpha  occ. eigenvalues --   -0.46278  -0.45882  -0.45770  -0.44788  -0.43685
 Alpha  occ. eigenvalues --   -0.43407  -0.42999  -0.41973  -0.41393  -0.40365
 Alpha  occ. eigenvalues --   -0.40083  -0.39397  -0.39056  -0.38482  -0.38009
 Alpha  occ. eigenvalues --   -0.37687  -0.37164  -0.35324  -0.34800  -0.30099
 Alpha  occ. eigenvalues --   -0.29299  -0.28489  -0.25480  -0.22958  -0.22541
 Alpha  occ. eigenvalues --   -0.21033  -0.20691
 Alpha virt. eigenvalues --   -0.19470  -0.16251  -0.14421  -0.11889  -0.10868
 Alpha virt. eigenvalues --   -0.09450  -0.08799  -0.08176  -0.06937  -0.05014
 Alpha virt. eigenvalues --   -0.04552  -0.04414  -0.03645  -0.03446  -0.02538

 Mulliken charges:
               1
     1  N   -0.703106
     2  H    0.448342
     3  H    0.404606
     4  H    0.421512
     5  C   -0.162445
     6  H    0.236588
     7  C    0.643211
     8  C   -0.286704
     9  H    0.174345
    10  H    0.218623
    11  O   -0.489859
    12  C   -0.367334
    13  H    0.231955
    14  H    0.131419
    15  C    0.471123
    16  O   -0.368489
    17  O   -0.549700
    18  N   -0.609036
    19  H    0.338440
    20  C   -0.073321
    21  H    0.175386
    22  C    0.633320
    23  C   -0.341560
    24  H    0.183750
    25  H    0.118849
    26  O   -0.526001
    27  C    0.152027
    28  C   -0.176441
    29  H    0.097468
    30  C   -0.150413
    31  H    0.135221
    32  C   -0.207234
    33  H    0.122631
    34  C   -0.218617
    35  H    0.118133
    36  O   -0.573622
    37  C    0.397674
    38  N   -0.613816
    39  H    0.320884
    40  C   -0.037126
    41  H    0.142496
    42  C    0.555117
    43  C   -0.290460
    44  H    0.167523
    45  H    0.135078
    46  O   -0.573978
    47  C   -0.270868
    48  H    0.190593
    49  H    0.143140
    50  C   -0.289455
    51  H    0.150120
    52  H    0.159252
    53  C   -0.230067
    54  H    0.230614
    55  H    0.248030
    56  N   -0.714362
    57  H    0.434759
    58  H    0.419895
    59  H    0.427193
    60  O   -0.622659
    61  H    0.396306
    62  H    0.471049
 Sum of Mulliken charges =   1.00000

 Dipole moment (field-independent basis, Debye):
    X=            -10.3715    Y=            -12.7310    Z=              6.2335  Tot=             17.5643
 Quadrupole moment (field-independent basis, Debye-Ang):
   XX=            -92.9202   YY=            -14.2540   ZZ=           -173.7536
   XY=            121.2551   XZ=           -115.5872   YZ=           -127.3609

 Normal termination of Gaussian 16 at Wed Jun  1 23:53:07 2022.
