 Gaussian 16, Revision C.01,
 Gaussian 16:  ES64L-G16RevC.01  3-Jul-2019

 ----------------------------------------------------------------------
 # B3LYP/6-31G* empiricaldispersion=gd3 guess=read geom=check nosymm in
 tegral(ultrafinegrid)
 ----------------------------------------------------------------------

 ------------------------------------------------------
 Candidate Structure: Conf:234 Charge calc in gas phase
 ------------------------------------------------------
 Structure from the checkpoint file:  "conf-234.chk"
 Charge =  1 Multiplicity = 1

                          Input orientation:
 ---------------------------------------------------------------------
 Center     Atomic      Atomic             Coordinates (Angstroms)
 Number     Number       Type             X           Y           Z
 ---------------------------------------------------------------------
      1          7           0       -0.577838   -4.035111    2.854808
      2          1           0        0.426426   -4.094567    2.686315
      3          1           0       -0.751883   -4.313398    3.818278
      4          1           0       -1.021530   -4.693475    2.219185
      5          6           0       -1.056218   -2.667599    2.587757
      6          1           0       -0.708428   -2.015756    3.392880
      7          6           0       -0.429352   -2.195338    1.269242
      8          6           0       -2.582057   -2.573898    2.524882
      9          1           0       -2.927702   -3.030312    1.595956
     10          1           0       -2.851231   -1.516864    2.472851
     11          8           0        0.173211   -2.973223    0.545567
     12          6           0       -3.305516   -3.223008    3.692904
     13          1           0       -3.185444   -4.307814    3.669464
     14          1           0       -4.365076   -2.986561    3.690179
     15          6           0       -2.677177   -2.714992    4.931152
     16          8           0       -1.779260   -3.221318    5.504815
     17          8           0       -3.151531   -1.414620    5.381049
     18          7           0       -0.633639   -0.884048    0.972383
     19          1           0       -1.059427   -0.309979    1.677389
     20          6           0       -0.092031   -0.180671   -0.183675
     21          1           0       -0.685011    0.733989   -0.279464
     22          6           0        1.366110    0.235849    0.036892
     23          6           0       -0.203875   -0.951041   -1.507221
     24          1           0        0.397715   -1.851923   -1.465020
     25          1           0       -1.244870   -1.247156   -1.626626
     26          8           0        2.303072   -0.540773   -0.089925
     27          6           0        0.233602   -0.083587   -2.639656
     28          6           0        1.551101   -0.156677   -3.119975
     29          1           0        2.226344   -0.886379   -2.678994
     30          6           0       -0.623260    0.899093   -3.167408
     31          1           0       -1.640613    0.955174   -2.789385
     32          6           0        2.018154    0.699166   -4.082421
     33          1           0        3.041448    0.659747   -4.435106
     34          6           0       -0.202639    1.786575   -4.126020
     35          1           0       -0.855285    2.548686   -4.531487
     36          8           0        1.564728    2.541374   -5.487277
     37          6           0        1.164821    1.746420   -4.627655
     38          7           0        1.563897    1.535764    0.341360
     39          1           0        0.858158    2.197238    0.635685
     40          6           0        2.879718    2.105144    0.382281
     41          1           0        3.569660    1.450153    0.929571
     42          6           0        2.703661    3.464232    1.121539
     43          6           0        3.442863    2.349157   -1.025536
     44          1           0        3.277778    1.438336   -1.609902
     45          1           0        2.855216    3.134773   -1.510238
     46          8           0        3.734966    4.071805    1.436279
     47          6           0        4.931063    2.678197   -1.032194
     48          1           0        5.474253    1.770984   -0.747001
     49          1           0        5.164157    3.432378   -0.272220
     50          6           0        5.392762    3.157388   -2.400444
     51          1           0        6.477620    3.058802   -2.493090
     52          1           0        4.940855    2.527506   -3.177450
     53          6           0        5.009089    4.601129   -2.659035
     54          1           0        3.930497    4.720588   -2.543404
     55          1           0        5.481302    5.233012   -1.902721
     56          7           0        5.404905    5.061789   -4.013825
     57          1           0        5.158015    6.038510   -4.174410
     58          1           0        4.946737    4.506440   -4.735673
     59          1           0        6.410600    4.971501   -4.151417
     60          8           0        1.520231    3.807605    1.320595
     61          1           0       -3.263473   -0.708375    4.701509
     62          1           0       -2.555304   -1.071335    6.080801
 ---------------------------------------------------------------------

 SCF Done:  E(RB3LYP) =  -1525.95331943     A.U. after    3 cycles

 Alpha  occ. eigenvalues --  -19.47178 -19.31170 -19.25074 -19.15241 -19.13318
 Alpha  occ. eigenvalues --  -19.07568 -19.07163 -14.63400 -14.60631 -14.48835
 Alpha  occ. eigenvalues --  -14.38024 -10.46621 -10.42888 -10.42565 -10.37709
 Alpha  occ. eigenvalues --  -10.37590 -10.35722 -10.32582 -10.31369 -10.28404
 Alpha  occ. eigenvalues --  -10.27302 -10.25548 -10.25058 -10.23983 -10.23533
 Alpha  occ. eigenvalues --  -10.23216 -10.22958 -10.22632 -10.21948 -10.21861
 Alpha  occ. eigenvalues --  -10.21781  -1.35090  -1.22868  -1.20056  -1.16353
 Alpha  occ. eigenvalues --   -1.15465  -1.07947  -1.04932  -1.03204  -1.01895
 Alpha  occ. eigenvalues --   -0.99671  -0.95254  -0.92500  -0.92268  -0.90260
 Alpha  occ. eigenvalues --   -0.89499  -0.85679  -0.84479  -0.83201  -0.82264
 Alpha  occ. eigenvalues --   -0.79871  -0.78604  -0.78416  -0.77615  -0.76678
 Alpha  occ. eigenvalues --   -0.76217  -0.73687  -0.73585  -0.72313  -0.70288
 Alpha  occ. eigenvalues --   -0.69432  -0.67979  -0.67151  -0.65576  -0.64883
 Alpha  occ. eigenvalues --   -0.64619  -0.63957  -0.63058  -0.62715  -0.61430
 Alpha  occ. eigenvalues --   -0.60934  -0.60687  -0.59604  -0.58308  -0.56614
 Alpha  occ. eigenvalues --   -0.56213  -0.55423  -0.54981  -0.53685  -0.53209
 Alpha  occ. eigenvalues --   -0.52607  -0.52126  -0.51281  -0.50897  -0.50249
 Alpha  occ. eigenvalues --   -0.49431  -0.48982  -0.48662  -0.46501  -0.46474
 Alpha  occ. eigenvalues --   -0.46281  -0.45569  -0.45380  -0.45259  -0.43513
 Alpha  occ. eigenvalues --   -0.43318  -0.42848  -0.42165  -0.40382  -0.40227
 Alpha  occ. eigenvalues --   -0.40022  -0.39184  -0.38858  -0.38415  -0.38321
 Alpha  occ. eigenvalues --   -0.37745  -0.37032  -0.35583  -0.34814  -0.29364
 Alpha  occ. eigenvalues --   -0.29326  -0.28523  -0.25927  -0.23218  -0.22690
 Alpha  occ. eigenvalues --   -0.21258  -0.20773
 Alpha virt. eigenvalues --   -0.19626  -0.17021  -0.12304  -0.11405  -0.10655
 Alpha virt. eigenvalues --   -0.09686  -0.07135  -0.06118  -0.05660  -0.04489
 Alpha virt. eigenvalues --   -0.04018  -0.03943  -0.03538  -0.02893  -0.02024

 Mulliken charges:
               1
     1  N   -0.718479
     2  H    0.439698
     3  H    0.424274
     4  H    0.423382
     5  C   -0.141514
     6  H    0.212028
     7  C    0.648719
     8  C   -0.322142
     9  H    0.211829
    10  H    0.168518
    11  O   -0.492844
    12  C   -0.360174
    13  H    0.202330
    14  H    0.222317
    15  C    0.472640
    16  O   -0.429351
    17  O   -0.540835
    18  N   -0.609723
    19  H    0.323632
    20  C   -0.057928
    21  H    0.166990
    22  C    0.628440
    23  C   -0.360695
    24  H    0.206116
    25  H    0.130395
    26  O   -0.543829
    27  C    0.132982
    28  C   -0.158566
    29  H    0.151541
    30  C   -0.168412
    31  H    0.107093
    32  C   -0.198930
    33  H    0.108558
    34  C   -0.188095
    35  H    0.132210
    36  O   -0.573812
    37  C    0.414324
    38  N   -0.606126
    39  H    0.333844
    40  C   -0.043994
    41  H    0.144469
    42  C    0.556386
    43  C   -0.280759
    44  H    0.165401
    45  H    0.126270
    46  O   -0.582398
    47  C   -0.279139
    48  H    0.154605
    49  H    0.198448
    50  C   -0.294729
    51  H    0.144577
    52  H    0.164701
    53  C   -0.227121
    54  H    0.243800
    55  H    0.232072
    56  N   -0.715546
    57  H    0.427700
    58  H    0.436334
    59  H    0.418638
    60  O   -0.605683
    61  H    0.370015
    62  H    0.455546
 Sum of Mulliken charges =   1.00000

 Dipole moment (field-independent basis, Debye):
    X=             -1.4690    Y=             -7.3766    Z=              8.1526  Tot=             11.0922
 Quadrupole moment (field-independent basis, Debye-Ang):
   XX=            -59.9275   YY=            -85.3793   ZZ=            -91.2066
   XY=             92.5238   XZ=           -127.5282   YZ=           -121.6290

 Normal termination of Gaussian 16 at Wed Jun  1 23:44:21 2022.
