 Gaussian 16, Revision C.01,
 Gaussian 16:  ES64L-G16RevC.01  3-Jul-2019

 ----------------------------------------------------------------------
 # B3LYP/6-31G* empiricaldispersion=gd3 guess=read geom=check nosymm in
 tegral(ultrafinegrid)
 ----------------------------------------------------------------------

 ------------------------------------------------------
 Candidate Structure: Conf:883 Charge calc in gas phase
 ------------------------------------------------------
 Structure from the checkpoint file:  "conf-883.chk"
 Charge =  1 Multiplicity = 1

                          Input orientation:
 ---------------------------------------------------------------------
 Center     Atomic      Atomic             Coordinates (Angstroms)
 Number     Number       Type             X           Y           Z
 ---------------------------------------------------------------------
      1          7           0       -0.770142   -3.673763    2.144467
      2          1           0        0.248502   -3.531284    2.145453
      3          1           0       -1.002748   -4.429437    2.799446
      4          1           0       -1.006316   -3.893301    1.149393
      5          6           0       -1.494173   -2.350214    2.394276
      6          1           0       -0.892425   -1.810762    3.129093
      7          6           0       -1.464166   -1.697576    0.967034
      8          6           0       -2.936510   -2.591329    2.851247
      9          1           0       -3.449526   -3.243040    2.132999
     10          1           0       -3.445004   -1.622054    2.790315
     11          8           0       -1.438080   -2.467975    0.008370
     12          6           0       -3.075760   -3.143276    4.294511
     13          1           0       -2.474835   -2.527893    4.994851
     14          1           0       -2.694956   -4.172256    4.391492
     15          6           0       -4.494592   -3.101991    4.676415
     16          8           0       -5.587267   -2.824365    4.340604
     17          8           0       -4.512389   -4.240795    6.233814
     18          7           0       -1.524176   -0.358391    0.986818
     19          1           0       -1.449025    0.036885    1.920408
     20          6           0       -0.732370    0.460101    0.029076
     21          1           0       -1.145864    1.470452    0.075508
     22          6           0        0.699240    0.376798    0.660348
     23          6           0       -0.762326    0.017637   -1.454173
     24          1           0       -0.442307   -1.019745   -1.557448
     25          1           0       -1.799567    0.082264   -1.809614
     26          8           0        1.087038   -0.698439    1.134066
     27          6           0        0.162469    0.960281   -2.191007
     28          6           0       -0.209206    2.312126   -2.391873
     29          1           0       -1.229689    2.619331   -2.160927
     30          6           0        1.473478    0.566245   -2.534736
     31          1           0        1.763630   -0.473254   -2.388060
     32          6           0        0.696286    3.248184   -2.845305
     33          1           0        0.420676    4.290730   -2.974625
     34          6           0        2.390543    1.475932   -3.017000
     35          1           0        3.401560    1.172435   -3.273203
     36          8           0        2.949790    3.753632   -3.413609
     37          6           0        2.076336    2.890334   -3.132125
     38          7           0        1.302941    1.562283    0.760859
     39          1           0        0.972848    2.325333    0.172503
     40          6           0        2.592070    1.858374    1.399865
     41          1           0        2.708465    1.222206    2.279997
     42          6           0        2.493689    3.351584    1.829193
     43          6           0        3.728202    1.675205    0.388247
     44          1           0        3.800328    0.621983    0.088947
     45          1           0        3.405620    2.235237   -0.489048
     46          8           0        2.509157    3.654415    3.012415
     47          6           0        5.089304    2.218080    0.851698
     48          1           0        5.672031    1.474363    1.407382
     49          1           0        4.924064    3.029675    1.574530
     50          6           0        5.926161    2.760652   -0.323216
     51          1           0        6.853838    3.198959    0.070703
     52          1           0        6.236145    1.944907   -0.989742
     53          6           0        5.206877    3.770262   -1.230866
     54          1           0        5.924890    4.266785   -1.893095
     55          1           0        4.430133    3.316217   -1.864672
     56          7           0        4.478864    4.852879   -0.470211
     57          1           0        4.157314    5.575427   -1.119376
     58          1           0        5.079598    5.309497    0.221508
     59          1           0        3.517618    4.487750    0.095255
     60          8           0        2.386631    4.140345    0.788195
     61          1           0       -4.092798   -3.822720    7.035104
     62          1           0       -5.457696   -4.333356    6.466628
 ---------------------------------------------------------------------

 SCF Done:  E(RB3LYP) =  -1526.06666655     A.U. after    3 cycles

 Alpha  occ. eigenvalues --  -19.38197 -19.36313 -19.27133 -19.20567 -19.14379
 Alpha  occ. eigenvalues --  -19.14304 -19.13949 -14.62116 -14.49371 -14.47427
 Alpha  occ. eigenvalues --  -14.43674 -10.47955 -10.44132 -10.42785 -10.40936
 Alpha  occ. eigenvalues --  -10.38482 -10.37260 -10.33624 -10.32150 -10.29436
 Alpha  occ. eigenvalues --  -10.28464 -10.27607 -10.27337 -10.25931 -10.25506
 Alpha  occ. eigenvalues --  -10.24859 -10.24604 -10.24463 -10.23843 -10.23209
 Alpha  occ. eigenvalues --  -10.23078  -1.26324  -1.22351  -1.19817  -1.15439
 Alpha  occ. eigenvalues --   -1.12057  -1.07414  -1.06176  -1.03139  -1.02350
 Alpha  occ. eigenvalues --   -1.00289  -0.99602  -0.98404  -0.92400  -0.90526
 Alpha  occ. eigenvalues --   -0.87043  -0.85909  -0.81857  -0.81599  -0.79634
 Alpha  occ. eigenvalues --   -0.78555  -0.76342  -0.75876  -0.74494  -0.73948
 Alpha  occ. eigenvalues --   -0.73071  -0.71857  -0.70641  -0.68531  -0.67498
 Alpha  occ. eigenvalues --   -0.66744  -0.65937  -0.65809  -0.65200  -0.64501
 Alpha  occ. eigenvalues --   -0.63451  -0.62830  -0.62426  -0.61714  -0.61249
 Alpha  occ. eigenvalues --   -0.60540  -0.58798  -0.58387  -0.57668  -0.56666
 Alpha  occ. eigenvalues --   -0.56389  -0.55778  -0.54671  -0.54362  -0.53879
 Alpha  occ. eigenvalues --   -0.53413  -0.53124  -0.52489  -0.52200  -0.51521
 Alpha  occ. eigenvalues --   -0.50431  -0.50108  -0.49799  -0.49326  -0.48292
 Alpha  occ. eigenvalues --   -0.47772  -0.47156  -0.47033  -0.45790  -0.45513
 Alpha  occ. eigenvalues --   -0.45192  -0.44240  -0.44019  -0.42441  -0.42190
 Alpha  occ. eigenvalues --   -0.41645  -0.41588  -0.40551  -0.40130  -0.39623
 Alpha  occ. eigenvalues --   -0.39381  -0.39119  -0.38828  -0.35819  -0.34318
 Alpha  occ. eigenvalues --   -0.33517  -0.30630  -0.30431  -0.29071  -0.27118
 Alpha  occ. eigenvalues --   -0.27023  -0.22253
 Alpha virt. eigenvalues --   -0.21201  -0.17510  -0.13957  -0.12954  -0.11098
 Alpha virt. eigenvalues --   -0.08034  -0.07351  -0.05938  -0.05160  -0.04943
 Alpha virt. eigenvalues --   -0.03872  -0.03724  -0.03375  -0.03031  -0.01652

 Mulliken charges:
               1
     1  N   -0.743274
     2  H    0.437776
     3  H    0.393037
     4  H    0.429794
     5  C   -0.134922
     6  H    0.218627
     7  C    0.672185
     8  C   -0.309510
     9  H    0.214643
    10  H    0.227329
    11  O   -0.518249
    12  C   -0.350051
    13  H    0.213869
    14  H    0.199966
    15  C    0.465559
    16  O   -0.300668
    17  O   -0.700576
    18  N   -0.575711
    19  H    0.342283
    20  C   -0.086825
    21  H    0.182295
    22  C    0.612810
    23  C   -0.351746
    24  H    0.187055
    25  H    0.165697
    26  O   -0.589274
    27  C    0.121438
    28  C   -0.199450
    29  H    0.123954
    30  C   -0.161646
    31  H    0.124954
    32  C   -0.172749
    33  H    0.141269
    34  C   -0.201839
    35  H    0.130879
    36  O   -0.588819
    37  C    0.421666
    38  N   -0.584910
    39  H    0.368383
    40  C   -0.020982
    41  H    0.150405
    42  C    0.550060
    43  C   -0.281005
    44  H    0.146176
    45  H    0.161752
    46  O   -0.505357
    47  C   -0.289061
    48  H    0.152373
    49  H    0.155650
    50  C   -0.281559
    51  H    0.147186
    52  H    0.165269
    53  C   -0.190275
    54  H    0.175553
    55  H    0.241656
    56  N   -0.784624
    57  H    0.390751
    58  H    0.368609
    59  H    0.477434
    60  O   -0.666510
    61  H    0.451616
    62  H    0.459636
 Sum of Mulliken charges =   1.00000

 Dipole moment (field-independent basis, Debye):
    X=             -9.4084    Y=            -18.0412    Z=             21.1594  Tot=             29.3551
 Quadrupole moment (field-independent basis, Debye-Ang):
   XX=            -95.0903   YY=           -101.1974   ZZ=            -91.3773
   XY=             64.2888   XZ=            -77.7671   YZ=            -90.7974

 Normal termination of Gaussian 16 at Wed Jun  1 23:53:26 2022.
