 Gaussian 16, Revision C.01,
 Gaussian 16:  ES64L-G16RevC.01  3-Jul-2019

 ----------------------------------------------------------------------
 # B3LYP/6-31G* empiricaldispersion=gd3 guess=read geom=check nosymm in
 tegral(ultrafinegrid)
 ----------------------------------------------------------------------

 -----------------------------------------------------
 Candidate Structure: Conf:81 Charge calc in gas phase
 -----------------------------------------------------
 Structure from the checkpoint file:  "conf-81.chk"
 Charge =  1 Multiplicity = 1

                          Input orientation:
 ---------------------------------------------------------------------
 Center     Atomic      Atomic             Coordinates (Angstroms)
 Number     Number       Type             X           Y           Z
 ---------------------------------------------------------------------
      1          7           0       -0.078421   -4.094705    2.555879
      2          1           0        0.902697   -3.870429    2.747861
      3          1           0       -0.440281   -4.668869    3.318635
      4          1           0       -0.086244   -4.637293    1.684159
      5          6           0       -0.870730   -2.855367    2.337831
      6          1           0       -0.744011   -2.201384    3.206039
      7          6           0       -0.277972   -2.194890    1.081926
      8          6           0       -2.361505   -3.181791    2.171763
      9          1           0       -2.679443   -3.761706    3.040191
     10          1           0       -2.470157   -3.838689    1.299551
     11          8           0        0.293186   -2.899836    0.257816
     12          6           0       -3.268201   -1.957112    1.976493
     13          1           0       -4.301436   -2.290175    1.832942
     14          1           0       -2.962813   -1.417668    1.076593
     15          6           0       -3.227438   -0.976518    3.089435
     16          8           0       -2.709774    0.095493    3.220918
     17          8           0       -4.218878   -1.326202    4.218392
     18          7           0       -0.464150   -0.864188    0.987657
     19          1           0       -0.893327   -0.375894    1.764972
     20          6           0       -0.001939   -0.015276   -0.109635
     21          1           0       -0.547139    0.924837    0.015359
     22          6           0        1.494241    0.294785    0.068246
     23          6           0       -0.299368   -0.544901   -1.518240
     24          1           0        0.234039   -1.476359   -1.690507
     25          1           0       -1.371519   -0.760379   -1.568379
     26          8           0        2.383450   -0.405921   -0.397737
     27          6           0        0.089500    0.497158   -2.527510
     28          6           0       -0.662127    1.669907   -2.667321
     29          1           0       -1.567860    1.791746   -2.078953
     30          6           0        1.261068    0.366529   -3.280280
     31          1           0        1.881566   -0.514193   -3.140385
     32          6           0       -0.271339    2.681428   -3.528134
     33          1           0       -0.846033    3.596481   -3.622295
     34          6           0        1.677255    1.354148   -4.153975
     35          1           0        2.598082    1.256564   -4.718470
     36          8           0        1.334190    3.519133   -5.051697
     37          6           0        0.932951    2.574422   -4.304723
     38          7           0        1.705112    1.449852    0.740163
     39          1           0        1.037285    1.806058    1.426971
     40          6           0        3.009672    1.960541    1.067241
     41          1           0        3.763340    1.166250    1.021793
     42          6           0        2.895305    2.531897    2.522043
     43          6           0        3.402111    3.113250    0.130506
     44          1           0        2.614304    3.875717    0.176265
     45          1           0        4.319355    3.570969    0.513185
     46          8           0        3.954216    2.868035    3.064474
     47          6           0        3.572573    2.647020   -1.312932
     48          1           0        2.715311    2.027404   -1.590327
     49          1           0        4.454884    2.000121   -1.381350
     50          6           0        3.675827    3.772384   -2.342261
     51          1           0        4.559214    4.394543   -2.157157
     52          1           0        3.809662    3.322549   -3.331956
     53          6           0        2.429454    4.662034   -2.332599
     54          1           0        1.549692    4.070822   -2.061557
     55          1           0        2.538504    5.424374   -1.555909
     56          7           0        2.175984    5.308475   -3.646431
     57          1           0        1.505206    6.074530   -3.562859
     58          1           0        1.777922    4.589030   -4.327598
     59          1           0        3.039815    5.691843   -4.031631
     60          8           0        1.719638    2.593732    2.966863
     61          1           0       -4.175893   -2.178307    4.602865
     62          1           0       -4.124465   -0.643742    4.908862
 ---------------------------------------------------------------------

 SCF Done:  E(RB3LYP) =  -1526.02030463     A.U. after    3 cycles

 Alpha  occ. eigenvalues --  -19.48327 -19.34337 -19.26571 -19.16726 -19.14506
 Alpha  occ. eigenvalues --  -19.10958 -19.10116 -14.65702 -14.50297 -14.49470
 Alpha  occ. eigenvalues --  -14.39241 -10.49755 -10.44437 -10.44246 -10.40163
 Alpha  occ. eigenvalues --  -10.39923 -10.33871 -10.32197 -10.30767 -10.28277
 Alpha  occ. eigenvalues --  -10.28045 -10.26175 -10.25152 -10.24208 -10.24089
 Alpha  occ. eigenvalues --  -10.24013 -10.23150 -10.22619 -10.22370 -10.21980
 Alpha  occ. eigenvalues --  -10.21850  -1.36446  -1.24267  -1.21734  -1.17663
 Alpha  occ. eigenvalues --   -1.08939  -1.06901  -1.06377  -1.04105  -1.03698
 Alpha  occ. eigenvalues --   -1.01043  -0.97070  -0.94617  -0.93759  -0.90228
 Alpha  occ. eigenvalues --   -0.87115  -0.86642  -0.86079  -0.84848  -0.81595
 Alpha  occ. eigenvalues --   -0.80644  -0.79231  -0.78942  -0.78436  -0.77224
 Alpha  occ. eigenvalues --   -0.74739  -0.73692  -0.71036  -0.70525  -0.69392
 Alpha  occ. eigenvalues --   -0.68276  -0.67178  -0.66528  -0.65755  -0.65251
 Alpha  occ. eigenvalues --   -0.64448  -0.64008  -0.62560  -0.62156  -0.61639
 Alpha  occ. eigenvalues --   -0.61320  -0.60018  -0.59676  -0.57768  -0.57072
 Alpha  occ. eigenvalues --   -0.56956  -0.56694  -0.55246  -0.54623  -0.53956
 Alpha  occ. eigenvalues --   -0.53412  -0.53051  -0.51804  -0.51020  -0.50016
 Alpha  occ. eigenvalues --   -0.49637  -0.49217  -0.48537  -0.47601  -0.47178
 Alpha  occ. eigenvalues --   -0.46204  -0.46046  -0.45323  -0.44368  -0.44062
 Alpha  occ. eigenvalues --   -0.43770  -0.42845  -0.42386  -0.41917  -0.41080
 Alpha  occ. eigenvalues --   -0.40917  -0.40359  -0.39638  -0.39286  -0.38902
 Alpha  occ. eigenvalues --   -0.37688  -0.37273  -0.36785  -0.35737  -0.30659
 Alpha  occ. eigenvalues --   -0.30227  -0.29503  -0.28596  -0.25764  -0.24825
 Alpha  occ. eigenvalues --   -0.23558  -0.23410
 Alpha virt. eigenvalues --   -0.22142  -0.18127  -0.15225  -0.13433  -0.10105
 Alpha virt. eigenvalues --   -0.09900  -0.08834  -0.08338  -0.06605  -0.04811
 Alpha virt. eigenvalues --   -0.04331  -0.04188  -0.03626  -0.03119  -0.02218

 Mulliken charges:
               1
     1  N   -0.710152
     2  H    0.447711
     3  H    0.414251
     4  H    0.431823
     5  C   -0.149494
     6  H    0.217215
     7  C    0.649625
     8  C   -0.287060
     9  H    0.142217
    10  H    0.210423
    11  O   -0.498908
    12  C   -0.368512
    13  H    0.221321
    14  H    0.250565
    15  C    0.463129
    16  O   -0.372079
    17  O   -0.600834
    18  N   -0.631764
    19  H    0.363689
    20  C   -0.071678
    21  H    0.170930
    22  C    0.625351
    23  C   -0.356086
    24  H    0.200175
    25  H    0.119034
    26  O   -0.522539
    27  C    0.145137
    28  C   -0.176148
    29  H    0.100864
    30  C   -0.170149
    31  H    0.147478
    32  C   -0.209800
    33  H    0.108328
    34  C   -0.188134
    35  H    0.129846
    36  O   -0.689643
    37  C    0.407239
    38  N   -0.587788
    39  H    0.331791
    40  C   -0.078535
    41  H    0.161641
    42  C    0.585253
    43  C   -0.261662
    44  H    0.124668
    45  H    0.166978
    46  O   -0.515678
    47  C   -0.281152
    48  H    0.176615
    49  H    0.151023
    50  C   -0.288894
    51  H    0.149703
    52  H    0.165310
    53  C   -0.195146
    54  H    0.207576
    55  H    0.187215
    56  N   -0.752093
    57  H    0.379917
    58  H    0.458104
    59  H    0.382530
    60  O   -0.608457
    61  H    0.480168
    62  H    0.497544
 Sum of Mulliken charges =   1.00000

 Dipole moment (field-independent basis, Debye):
    X=            -17.9302    Y=            -15.4536    Z=             13.8893  Tot=             27.4448
 Quadrupole moment (field-independent basis, Debye-Ang):
   XX=           -138.1179   YY=            -62.4304   ZZ=           -127.6571
   XY=             35.9432   XZ=            -92.4606   YZ=           -116.4927

 Normal termination of Gaussian 16 at Wed Jun  1 23:44:24 2022.
