 Gaussian 16, Revision C.01,
 Gaussian 16:  ES64L-G16RevC.01  3-Jul-2019

 ----------------------------------------------------------------------
 # B3LYP/6-31G* empiricaldispersion=gd3 guess=read geom=check nosymm in
 tegral(ultrafinegrid)
 ----------------------------------------------------------------------

 ------------------------------------------------------
 Candidate Structure: Conf:746 Charge calc in gas phase
 ------------------------------------------------------
 Structure from the checkpoint file:  "conf-746.chk"
 Charge =  1 Multiplicity = 1

                          Input orientation:
 ---------------------------------------------------------------------
 Center     Atomic      Atomic             Coordinates (Angstroms)
 Number     Number       Type             X           Y           Z
 ---------------------------------------------------------------------
      1          7           0       -0.812298   -3.841667    1.936379
      2          1           0        0.069322   -3.923347    1.385761
      3          1           0       -0.906393   -4.583835    2.633340
      4          1           0       -1.582429   -3.902005    1.239328
      5          6           0       -0.754714   -2.445125    2.523384
      6          1           0       -0.062485   -2.505895    3.368950
      7          6           0       -0.086080   -1.664965    1.346463
      8          6           0       -2.140127   -1.941277    2.955406
      9          1           0       -2.662929   -1.540041    2.084620
     10          1           0       -1.984952   -1.120615    3.665248
     11          8           0        0.656615   -2.303545    0.597224
     12          6           0       -3.040922   -3.006585    3.615565
     13          1           0       -2.550223   -3.456673    4.484363
     14          1           0       -3.312504   -3.786491    2.896678
     15          6           0       -4.313361   -2.349974    4.123778
     16          8           0       -4.432920   -1.827439    5.201223
     17          8           0       -5.307036   -2.356170    3.186596
     18          7           0       -0.481814   -0.407237    1.138606
     19          1           0       -0.996937    0.076582    1.858386
     20          6           0       -0.217117    0.295731   -0.117592
     21          1           0       -0.768480    1.237615   -0.035593
     22          6           0        1.292937    0.654412   -0.192745
     23          6           0       -0.763431   -0.496396   -1.357761
     24          1           0       -1.024531    0.238023   -2.129044
     25          1           0        0.037851   -1.120108   -1.760053
     26          8           0        1.999081    0.585406    0.804064
     27          6           0       -1.953485   -1.370626   -1.016016
     28          6           0       -1.851493   -2.764995   -1.091158
     29          1           0       -0.963995   -3.208377   -1.533650
     30          6           0       -3.137091   -0.836390   -0.484597
     31          1           0       -3.272212    0.242629   -0.453595
     32          6           0       -2.836078   -3.602689   -0.554416
     33          1           0       -2.770871   -4.684813   -0.644141
     34          6           0       -4.132120   -1.651146    0.056124
     35          1           0       -5.022203   -1.212108    0.497520
     36          8           0       -4.807139   -3.896593    0.709191
     37          6           0       -3.958094   -3.043038    0.076494
     38          7           0        1.713966    1.086792   -1.399349
     39          1           0        1.127947    1.046792   -2.225240
     40          6           0        3.103218    1.461547   -1.658976
     41          1           0        3.475895    2.062273   -0.826851
     42          6           0        3.097049    2.252337   -2.964029
     43          6           0        3.962982    0.175811   -1.845288
     44          1           0        3.706148   -0.477716   -1.004416
     45          1           0        3.594008   -0.319679   -2.752000
     46          8           0        2.392246    1.903152   -3.898256
     47          6           0        5.502249    0.293792   -1.874083
     48          1           0        5.880224   -0.723751   -2.042758
     49          1           0        5.848298    0.578621   -0.872197
     50          6           0        6.169350    1.258153   -2.879613
     51          1           0        5.995458    2.281493   -2.541343
     52          1           0        7.253156    1.097720   -2.826331
     53          6           0        5.705380    1.141691   -4.350241
     54          1           0        6.396237    0.506351   -4.921526
     55          1           0        4.719570    0.673815   -4.418257
     56          7           0        5.556585    2.488577   -4.964867
     57          1           0        5.249842    2.403762   -5.933037
     58          1           0        6.456117    2.969186   -4.983207
     59          1           0        4.430093    3.236696   -3.920448
     60          8           0        3.983037    3.235297   -2.994978
     61          1           0       -5.397212   -3.397992    1.302306
     62          1           0       -6.071512   -1.893669    3.583280
 ---------------------------------------------------------------------

 SCF Done:  E(RB3LYP) =  -1526.27419693     A.U. after    1 cycles

 Alpha  occ. eigenvalues --  -19.32916 -19.29222 -19.26806 -19.26605 -19.23332
 Alpha  occ. eigenvalues --  -19.20227 -19.20188 -14.60312 -14.50476 -14.44613
 Alpha  occ. eigenvalues --  -14.41615 -10.45108 -10.44011 -10.41657 -10.38165
 Alpha  occ. eigenvalues --  -10.37966 -10.37365 -10.35762 -10.35374 -10.34701
 Alpha  occ. eigenvalues --  -10.31509 -10.31414 -10.31269 -10.31049 -10.30997
 Alpha  occ. eigenvalues --  -10.30976 -10.30885 -10.28583 -10.26215 -10.25605
 Alpha  occ. eigenvalues --  -10.24939  -1.23193  -1.19614  -1.17483  -1.15639
 Alpha  occ. eigenvalues --   -1.14455  -1.14404  -1.12389  -1.07202  -1.06873
 Alpha  occ. eigenvalues --   -1.01115  -0.97617  -0.96933  -0.95969  -0.91029
 Alpha  occ. eigenvalues --   -0.88738  -0.87245  -0.87091  -0.84981  -0.81866
 Alpha  occ. eigenvalues --   -0.79885  -0.78109  -0.76689  -0.75439  -0.74321
 Alpha  occ. eigenvalues --   -0.73570  -0.73202  -0.71721  -0.70882  -0.70590
 Alpha  occ. eigenvalues --   -0.68634  -0.66766  -0.66464  -0.66080  -0.64584
 Alpha  occ. eigenvalues --   -0.63979  -0.62615  -0.61756  -0.61080  -0.60047
 Alpha  occ. eigenvalues --   -0.59662  -0.59181  -0.58116  -0.57634  -0.57399
 Alpha  occ. eigenvalues --   -0.56779  -0.56312  -0.55878  -0.55633  -0.54767
 Alpha  occ. eigenvalues --   -0.54494  -0.54200  -0.53610  -0.52804  -0.52440
 Alpha  occ. eigenvalues --   -0.52069  -0.51753  -0.51526  -0.51333  -0.51212
 Alpha  occ. eigenvalues --   -0.50681  -0.50312  -0.49391  -0.49000  -0.48548
 Alpha  occ. eigenvalues --   -0.47062  -0.46712  -0.46561  -0.45314  -0.45019
 Alpha  occ. eigenvalues --   -0.44638  -0.44244  -0.43746  -0.43140  -0.41190
 Alpha  occ. eigenvalues --   -0.40378  -0.40268  -0.39945  -0.39900  -0.39366
 Alpha  occ. eigenvalues --   -0.37627  -0.36808  -0.34999  -0.34336  -0.34163
 Alpha  occ. eigenvalues --   -0.33407  -0.32838
 Alpha virt. eigenvalues --   -0.13971  -0.13660  -0.12217  -0.11624  -0.09390
 Alpha virt. eigenvalues --   -0.07541  -0.06489  -0.05290  -0.05006  -0.04263
 Alpha virt. eigenvalues --   -0.02880  -0.02450  -0.01393  -0.00808  -0.00091

 Mulliken charges:
               1
     1  N   -0.761007
     2  H    0.429321
     3  H    0.410172
     4  H    0.412129
     5  C   -0.122583
     6  H    0.237687
     7  C    0.678428
     8  C   -0.335301
     9  H    0.203953
    10  H    0.204760
    11  O   -0.531496
    12  C   -0.375878
    13  H    0.196639
    14  H    0.181161
    15  C    0.583328
    16  O   -0.409171
    17  O   -0.586810
    18  N   -0.575125
    19  H    0.357412
    20  C   -0.071210
    21  H    0.187913
    22  C    0.654550
    23  C   -0.391998
    24  H    0.184660
    25  H    0.192291
    26  O   -0.524687
    27  C    0.166005
    28  C   -0.183958
    29  H    0.165327
    30  C   -0.185928
    31  H    0.151484
    32  C   -0.268091
    33  H    0.173120
    34  C   -0.198558
    35  H    0.152778
    36  O   -0.648784
    37  C    0.372090
    38  N   -0.626093
    39  H    0.353171
    40  C   -0.007423
    41  H    0.186721
    42  C    0.582157
    43  C   -0.285931
    44  H    0.172312
    45  H    0.146909
    46  O   -0.496089
    47  C   -0.270771
    48  H    0.144852
    49  H    0.153814
    50  C   -0.293234
    51  H    0.176103
    52  H    0.147455
    53  C   -0.159905
    54  H    0.152378
    55  H    0.171778
    56  N   -0.773041
    57  H    0.336426
    58  H    0.330952
    59  H    0.451942
    60  O   -0.593617
    61  H    0.438452
    62  H    0.436054
 Sum of Mulliken charges =   1.00000

 Dipole moment (field-independent basis, Debye):
    X=             -4.0763    Y=            -10.6030    Z=              3.6612  Tot=             11.9350
 Quadrupole moment (field-independent basis, Debye-Ang):
   XX=           -103.0774   YY=           -131.4528   ZZ=           -142.7020
   XY=             23.3092   XZ=            -51.5449   YZ=            -36.5724

 Normal termination of Gaussian 16 at Wed Jun  1 23:44:06 2022.
