 Gaussian 16, Revision C.01,
 Gaussian 16:  ES64L-G16RevC.01  3-Jul-2019

 ----------------------------------------------------------------------
 # B3LYP/6-31G* empiricaldispersion=gd3 guess=read geom=check nosymm in
 tegral(ultrafinegrid)
 ----------------------------------------------------------------------

 ------------------------------------------------------
 Candidate Structure: Conf:156 Charge calc in gas phase
 ------------------------------------------------------
 Structure from the checkpoint file:  "conf-156.chk"
 Charge =  1 Multiplicity = 1

                          Input orientation:
 ---------------------------------------------------------------------
 Center     Atomic      Atomic             Coordinates (Angstroms)
 Number     Number       Type             X           Y           Z
 ---------------------------------------------------------------------
      1          7           0       -0.508236   -2.975427    3.558235
      2          1           0        0.323686   -2.590238    4.007674
      3          1           0       -1.100198   -3.417276    4.258856
      4          1           0       -0.188310   -3.691194    2.902496
      5          6           0       -1.238037   -1.932453    2.811574
      6          1           0       -1.272521   -1.022349    3.419705
      7          6           0       -0.469800   -1.603905    1.524660
      8          6           0       -2.675132   -2.359180    2.514066
      9          1           0       -3.158698   -1.586325    1.917768
     10          1           0       -3.220599   -2.408113    3.457336
     11          8           0        0.311581   -2.383232    1.013646
     12          6           0       -2.786221   -3.704876    1.803086
     13          1           0       -2.402190   -4.508683    2.436704
     14          1           0       -2.198305   -3.722608    0.885864
     15          6           0       -4.196300   -4.062212    1.444952
     16          8           0       -5.204711   -3.482322    1.665613
     17          8           0       -4.293174   -5.328715    0.689925
     18          7           0       -0.749283   -0.386050    0.991073
     19          1           0       -1.427736    0.206466    1.439733
     20          6           0       -0.129298    0.090389   -0.235508
     21          1           0       -0.415194    1.147339   -0.294373
     22          6           0        1.400788    0.040064   -0.130552
     23          6           0       -0.631893   -0.611043   -1.510858
     24          1           0       -0.262756   -1.633233   -1.516979
     25          1           0       -1.721538   -0.644127   -1.469536
     26          8           0        2.123650   -0.593920   -0.878685
     27          6           0       -0.176859    0.134409   -2.726685
     28          6           0       -0.680123    1.412821   -3.002444
     29          1           0       -1.485377    1.802599   -2.389471
     30          6           0        0.824343   -0.374489   -3.555330
     31          1           0        1.211544   -1.372676   -3.381233
     32          6           0       -0.176910    2.191730   -4.027842
     33          1           0       -0.559488    3.184402   -4.224815
     34          6           0        1.379220    0.382510   -4.565224
     35          1           0        2.182637   -0.006988   -5.178581
     36          8           0        1.529994    2.468623   -5.633343
     37          6           0        0.941627    1.735406   -4.820813
     38          7           0        1.908872    0.816848    0.862583
     39          1           0        1.416117    1.064952    1.713178
     40          6           0        3.319235    1.022184    0.994120
     41          1           0        3.869655    0.149006    0.622583
     42          6           0        3.587528    1.239726    2.519344
     43          6           0        3.833771    2.282654    0.280865
     44          1           0        3.335451    3.159513    0.708445
     45          1           0        4.898346    2.368617    0.510077
     46          8           0        2.553020    1.398717    3.207061
     47          6           0        3.600514    2.255587   -1.223580
     48          1           0        2.531464    2.156775   -1.413533
     49          1           0        4.077524    1.369030   -1.648956
     50          6           0        4.078800    3.516351   -1.936589
     51          1           0        3.780253    4.389907   -1.347239
     52          1           0        5.170060    3.532811   -2.005481
     53          6           0        3.455834    3.654742   -3.321213
     54          1           0        2.369437    3.529353   -3.224425
     55          1           0        3.615955    4.660553   -3.719289
     56          7           0        3.962169    2.664150   -4.296030
     57          1           0        3.251696    2.507779   -5.024476
     58          1           0        4.172148    1.778511   -3.828736
     59          1           0        4.825428    2.997847   -4.728354
     60          8           0        4.766443    1.243010    2.878076
     61          1           0       -3.850181   -6.123889    1.065735
     62          1           0       -5.251103   -5.512765    0.584530
 ---------------------------------------------------------------------

 SCF Done:  E(RB3LYP) =  -1526.00187230     A.U. after    1 cycles

 Alpha  occ. eigenvalues --  -19.49492 -19.33634 -19.26801 -19.16498 -19.13965
 Alpha  occ. eigenvalues --  -19.08987 -19.08853 -14.65650 -14.53852 -14.49892
 Alpha  occ. eigenvalues --  -14.38527 -10.49944 -10.44071 -10.43960 -10.40459
 Alpha  occ. eigenvalues --  -10.39110 -10.33741 -10.32466 -10.32186 -10.27746
 Alpha  occ. eigenvalues --  -10.26697 -10.26638 -10.26226 -10.23957 -10.23669
 Alpha  occ. eigenvalues --  -10.23601 -10.23398 -10.23048 -10.21978 -10.21937
 Alpha  occ. eigenvalues --  -10.21693  -1.37119  -1.24421  -1.21911  -1.18405
 Alpha  occ. eigenvalues --   -1.09554  -1.09038  -1.06125  -1.04294  -1.03050
 Alpha  occ. eigenvalues --   -1.00803  -0.96145  -0.94464  -0.93568  -0.89940
 Alpha  occ. eigenvalues --   -0.87831  -0.87391  -0.86077  -0.84974  -0.81475
 Alpha  occ. eigenvalues --   -0.81202  -0.78849  -0.78713  -0.78650  -0.78155
 Alpha  occ. eigenvalues --   -0.75551  -0.73348  -0.71195  -0.70316  -0.69588
 Alpha  occ. eigenvalues --   -0.69298  -0.68744  -0.67972  -0.66374  -0.66242
 Alpha  occ. eigenvalues --   -0.65064  -0.64526  -0.63905  -0.62550  -0.61702
 Alpha  occ. eigenvalues --   -0.61372  -0.60233  -0.58855  -0.58810  -0.57421
 Alpha  occ. eigenvalues --   -0.56920  -0.56212  -0.55211  -0.54377  -0.54112
 Alpha  occ. eigenvalues --   -0.53556  -0.52881  -0.52154  -0.50687  -0.50058
 Alpha  occ. eigenvalues --   -0.49724  -0.49417  -0.48877  -0.48744  -0.47158
 Alpha  occ. eigenvalues --   -0.46927  -0.45980  -0.45386  -0.44492  -0.44003
 Alpha  occ. eigenvalues --   -0.43674  -0.43263  -0.42775  -0.42184  -0.41183
 Alpha  occ. eigenvalues --   -0.40527  -0.40053  -0.39304  -0.39104  -0.38940
 Alpha  occ. eigenvalues --   -0.38374  -0.37971  -0.36252  -0.35739  -0.30781
 Alpha  occ. eigenvalues --   -0.29631  -0.28984  -0.27367  -0.24524  -0.23706
 Alpha  occ. eigenvalues --   -0.22352  -0.22187
 Alpha virt. eigenvalues --   -0.21007  -0.17848  -0.15408  -0.13435  -0.10797
 Alpha virt. eigenvalues --   -0.09563  -0.09183  -0.06913  -0.06280  -0.05599
 Alpha virt. eigenvalues --   -0.04378  -0.03899  -0.03754  -0.03089  -0.02231

 Mulliken charges:
               1
     1  N   -0.717409
     2  H    0.457197
     3  H    0.416626
     4  H    0.423841
     5  C   -0.159129
     6  H    0.245956
     7  C    0.645332
     8  C   -0.294514
     9  H    0.230173
    10  H    0.199492
    11  O   -0.491693
    12  C   -0.377362
    13  H    0.137568
    14  H    0.246462
    15  C    0.498135
    16  O   -0.363990
    17  O   -0.570517
    18  N   -0.608561
    19  H    0.342741
    20  C   -0.065310
    21  H    0.179692
    22  C    0.629591
    23  C   -0.342635
    24  H    0.169451
    25  H    0.115776
    26  O   -0.522505
    27  C    0.147001
    28  C   -0.182167
    29  H    0.100463
    30  C   -0.133228
    31  H    0.128146
    32  C   -0.204251
    33  H    0.123352
    34  C   -0.249541
    35  H    0.103354
    36  O   -0.639346
    37  C    0.415176
    38  N   -0.601020
    39  H    0.318864
    40  C   -0.065537
    41  H    0.155194
    42  C    0.571979
    43  C   -0.257561
    44  H    0.136564
    45  H    0.169016
    46  O   -0.621063
    47  C   -0.279207
    48  H    0.152834
    49  H    0.135610
    50  C   -0.291703
    51  H    0.177317
    52  H    0.149547
    53  C   -0.204587
    54  H    0.230371
    55  H    0.196195
    56  N   -0.739879
    57  H    0.432016
    58  H    0.410340
    59  H    0.397419
    60  O   -0.540776
    61  H    0.446388
    62  H    0.488312
 Sum of Mulliken charges =   1.00000

 Dipole moment (field-independent basis, Debye):
    X=            -16.0707    Y=            -21.8772    Z=              6.1026  Tot=             27.8230
 Quadrupole moment (field-independent basis, Debye-Ang):
   XX=           -124.2024   YY=            -39.0657   ZZ=           -156.3784
   XY=             94.2155   XZ=            -94.1894   YZ=            -82.1343

 Normal termination of Gaussian 16 at Wed Jun  1 23:44:02 2022.
