 Gaussian 16, Revision C.01,
 Gaussian 16:  ES64L-G16RevC.01  3-Jul-2019

 ----------------------------------------------------------------------
 # B3LYP/6-31G* empiricaldispersion=gd3 guess=read geom=check nosymm in
 tegral(ultrafinegrid)
 ----------------------------------------------------------------------

 ------------------------------------------------------
 Candidate Structure: Conf:610 Charge calc in gas phase
 ------------------------------------------------------
 Structure from the checkpoint file:  "conf-610.chk"
 Charge =  1 Multiplicity = 1

                          Input orientation:
 ---------------------------------------------------------------------
 Center     Atomic      Atomic             Coordinates (Angstroms)
 Number     Number       Type             X           Y           Z
 ---------------------------------------------------------------------
      1          7           0       -0.746598   -3.359732    3.332752
      2          1           0        0.200541   -3.184861    3.680818
      3          1           0       -1.287282   -3.825211    4.062819
      4          1           0       -0.659795   -3.982963    2.518443
      5          6           0       -1.395547   -2.110137    2.856296
      6          1           0       -1.305380   -1.340131    3.629065
      7          6           0       -0.665206   -1.701009    1.576595
      8          6           0       -2.881853   -2.349393    2.552410
      9          1           0       -3.349040   -2.808206    3.430747
     10          1           0       -2.920360   -3.077782    1.737017
     11          8           0       -0.268356   -2.584980    0.822095
     12          6           0       -3.635997   -1.073835    2.168784
     13          1           0       -3.303927   -0.737043    1.175456
     14          1           0       -3.449144   -0.269374    2.881281
     15          6           0       -5.112717   -1.234260    2.127503
     16          8           0       -6.016763   -0.630735    2.620713
     17          8           0       -5.530243   -2.289098    1.099836
     18          7           0       -0.569297   -0.371606    1.364517
     19          1           0       -0.887418    0.243293    2.095336
     20          6           0       -0.006234    0.275204    0.180544
     21          1           0       -0.311355    1.322709    0.249316
     22          6           0        1.534766    0.310603    0.148561
     23          6           0       -0.522669   -0.314335   -1.144623
     24          1           0       -0.328567   -1.382133   -1.176057
     25          1           0       -1.610904   -0.173836   -1.148146
     26          8           0        2.237452   -0.602454   -0.267061
     27          6           0        0.179484    0.307497   -2.306874
     28          6           0        0.104017    1.663642   -2.661117
     29          1           0       -0.561499    2.318376   -2.102692
     30          6           0        1.057323   -0.520151   -3.019279
     31          1           0        1.149780   -1.563261   -2.727007
     32          6           0        0.872056    2.183546   -3.688328
     33          1           0        0.824993    3.232502   -3.953748
     34          6           0        1.792218   -0.054043   -4.074750
     35          1           0        2.434621   -0.714541   -4.643249
     36          8           0        2.516653    1.772942   -5.369729
     37          6           0        1.786104    1.342271   -4.449577
     38          7           0        2.012880    1.504417    0.540486
     39          1           0        1.490197    2.203876    1.065430
     40          6           0        3.356782    1.959096    0.336415
     41          1           0        4.071352    1.190356    0.652832
     42          6           0        3.505855    3.218744    1.256376
     43          6           0        3.603828    2.395307   -1.127355
     44          1           0        3.077211    1.716399   -1.808132
     45          1           0        3.137577    3.377635   -1.255317
     46          8           0        4.638785    3.718974    1.320848
     47          6           0        5.089660    2.467824   -1.487916
     48          1           0        5.602999    3.038605   -0.710767
     49          1           0        5.219166    3.033649   -2.419048
     50          6           0        5.740414    1.096331   -1.651257
     51          1           0        6.789964    1.222378   -1.940461
     52          1           0        5.750538    0.560884   -0.695588
     53          6           0        5.038413    0.233685   -2.701434
     54          1           0        5.622826   -0.664298   -2.915000
     55          1           0        4.061214   -0.094897   -2.341962
     56          7           0        4.832467    0.998799   -3.969387
     57          1           0        4.545088    0.393817   -4.736986
     58          1           0        5.689860    1.485985   -4.241416
     59          1           0        4.100796    1.706516   -3.863153
     60          8           0        2.448233    3.588151    1.818744
     61          1           0       -5.081038   -3.124172    1.158520
     62          1           0       -6.489701   -2.419946    1.191591
 ---------------------------------------------------------------------

 SCF Done:  E(RB3LYP) =  -1525.99525644     A.U. after    3 cycles

 Alpha  occ. eigenvalues --  -19.48302 -19.33249 -19.27655 -19.16958 -19.13609
 Alpha  occ. eigenvalues --  -19.08789 -19.08571 -14.66602 -14.54177 -14.51666
 Alpha  occ. eigenvalues --  -14.39298 -10.49192 -10.45445 -10.45216 -10.41065
 Alpha  occ. eigenvalues --  -10.40182 -10.34222 -10.32959 -10.32266 -10.27922
 Alpha  occ. eigenvalues --  -10.26965 -10.26734 -10.26206 -10.24162 -10.24033
 Alpha  occ. eigenvalues --  -10.23902 -10.23536 -10.23327 -10.22427 -10.22151
 Alpha  occ. eigenvalues --  -10.22150  -1.36295  -1.23334  -1.22665  -1.18666
 Alpha  occ. eigenvalues --   -1.09407  -1.09317  -1.07401  -1.03404  -1.02725
 Alpha  occ. eigenvalues --   -1.01797  -0.96722  -0.94487  -0.93432  -0.90476
 Alpha  occ. eigenvalues --   -0.87589  -0.87124  -0.86136  -0.84989  -0.82212
 Alpha  occ. eigenvalues --   -0.81187  -0.80131  -0.79288  -0.79059  -0.78320
 Alpha  occ. eigenvalues --   -0.75902  -0.74074  -0.71990  -0.71315  -0.69493
 Alpha  occ. eigenvalues --   -0.68950  -0.68276  -0.67336  -0.67193  -0.66552
 Alpha  occ. eigenvalues --   -0.65165  -0.64738  -0.63637  -0.62658  -0.61986
 Alpha  occ. eigenvalues --   -0.61301  -0.60945  -0.59979  -0.58820  -0.57752
 Alpha  occ. eigenvalues --   -0.57311  -0.56813  -0.55697  -0.54494  -0.53969
 Alpha  occ. eigenvalues --   -0.53864  -0.53767  -0.52977  -0.51214  -0.50787
 Alpha  occ. eigenvalues --   -0.49692  -0.49499  -0.48349  -0.47906  -0.47794
 Alpha  occ. eigenvalues --   -0.46434  -0.46336  -0.45618  -0.45332  -0.44783
 Alpha  occ. eigenvalues --   -0.44276  -0.43156  -0.42781  -0.41502  -0.41022
 Alpha  occ. eigenvalues --   -0.40856  -0.40314  -0.39993  -0.38951  -0.38696
 Alpha  occ. eigenvalues --   -0.38517  -0.37889  -0.36368  -0.35605  -0.30996
 Alpha  occ. eigenvalues --   -0.30527  -0.29035  -0.26851  -0.24170  -0.23777
 Alpha  occ. eigenvalues --   -0.22362  -0.22210
 Alpha virt. eigenvalues --   -0.20851  -0.18012  -0.16270  -0.14462  -0.10909
 Alpha virt. eigenvalues --   -0.10455  -0.09771  -0.07811  -0.07133  -0.06146
 Alpha virt. eigenvalues --   -0.05386  -0.04892  -0.04108  -0.03351  -0.03104

 Mulliken charges:
               1
     1  N   -0.715441
     2  H    0.446858
     3  H    0.421644
     4  H    0.427134
     5  C   -0.148725
     6  H    0.222455
     7  C    0.646245
     8  C   -0.313411
     9  H    0.177971
    10  H    0.170123
    11  O   -0.505165
    12  C   -0.354366
    13  H    0.229458
    14  H    0.231040
    15  C    0.467271
    16  O   -0.359675
    17  O   -0.595226
    18  N   -0.604594
    19  H    0.346374
    20  C   -0.074020
    21  H    0.178959
    22  C    0.635888
    23  C   -0.370441
    24  H    0.193541
    25  H    0.113779
    26  O   -0.545369
    27  C    0.139039
    28  C   -0.171101
    29  H    0.113319
    30  C   -0.134642
    31  H    0.123896
    32  C   -0.198526
    33  H    0.134913
    34  C   -0.240625
    35  H    0.091434
    36  O   -0.637676
    37  C    0.393722
    38  N   -0.600705
    39  H    0.337216
    40  C   -0.059319
    41  H    0.141244
    42  C    0.580638
    43  C   -0.280812
    44  H    0.132346
    45  H    0.165924
    46  O   -0.552278
    47  C   -0.303304
    48  H    0.223111
    49  H    0.103201
    50  C   -0.289232
    51  H    0.147480
    52  H    0.189005
    53  C   -0.226467
    54  H    0.185484
    55  H    0.254096
    56  N   -0.719237
    57  H    0.414794
    58  H    0.400132
    59  H    0.441732
    60  O   -0.600074
    61  H    0.482186
    62  H    0.496779
 Sum of Mulliken charges =   1.00000

 Dipole moment (field-independent basis, Debye):
    X=            -16.8815    Y=            -26.2495    Z=             10.5359  Tot=             32.9397
 Quadrupole moment (field-independent basis, Debye-Ang):
   XX=            -69.1968   YY=           -157.9888   ZZ=           -136.9452
   XY=             26.5939   XZ=            -81.3685   YZ=            -69.1602

 Normal termination of Gaussian 16 at Wed Jun  1 23:44:23 2022.
