 Gaussian 16, Revision C.01,
 Gaussian 16:  ES64L-G16RevC.01  3-Jul-2019

 ----------------------------------------------------------------------
 # B3LYP/6-31G* empiricaldispersion=gd3 guess=read geom=check nosymm in
 tegral(ultrafinegrid)
 ----------------------------------------------------------------------

 ------------------------------------------------------
 Candidate Structure: Conf:304 Charge calc in gas phase
 ------------------------------------------------------
 Structure from the checkpoint file:  "conf-304.chk"
 Charge =  1 Multiplicity = 1

                          Input orientation:
 ---------------------------------------------------------------------
 Center     Atomic      Atomic             Coordinates (Angstroms)
 Number     Number       Type             X           Y           Z
 ---------------------------------------------------------------------
      1          7           0        0.505401   -2.436470    3.489025
      2          1           0        1.177458   -1.715057    3.758029
      3          1           0        0.133566   -2.869843    4.332533
      4          1           0        1.012585   -3.141362    2.949592
      5          6           0       -0.571452   -1.877147    2.644702
      6          1           0       -1.008351   -1.017207    3.157842
      7          6           0        0.038031   -1.430626    1.315633
      8          6           0       -1.663439   -2.918477    2.412605
      9          1           0       -1.973750   -3.288312    3.393929
     10          1           0       -1.213565   -3.758481    1.875125
     11          8           0        0.971068   -2.028515    0.809998
     12          6           0       -2.889636   -2.424896    1.650414
     13          1           0       -3.593698   -3.246696    1.497690
     14          1           0       -2.622093   -2.028656    0.670707
     15          6           0       -3.571054   -1.344591    2.425253
     16          8           0       -3.560310   -0.170987    2.242992
     17          8           0       -4.258333   -1.843996    3.612512
     18          7           0       -0.541531   -0.349965    0.744578
     19          1           0       -1.358177    0.065228    1.169810
     20          6           0       -0.068559    0.188580   -0.517513
     21          1           0       -0.647742    1.108790   -0.654742
     22          6           0        1.418568    0.569201   -0.423006
     23          6           0       -0.341563   -0.743307   -1.715438
     24          1           0        0.405116   -1.528989   -1.741197
     25          1           0       -1.313320   -1.214766   -1.551208
     26          8           0        2.264153    0.195556   -1.219415
     27          6           0       -0.375905    0.012253   -2.993927
     28          6           0        0.671456   -0.079334   -3.933062
     29          1           0        1.520001   -0.718980   -3.702794
     30          6           0       -1.461085    0.870337   -3.258472
     31          1           0       -2.254645    0.941966   -2.518113
     32          6           0        0.652291    0.630528   -5.099921
     33          1           0        1.449839    0.568061   -5.829388
     34          6           0       -1.538052    1.598831   -4.408607
     35          1           0       -2.367342    2.260776   -4.624673
     36          8           0       -0.510809    2.167755   -6.442252
     37          6           0       -0.467397    1.517362   -5.400284
     38          7           0        1.730112    1.377230    0.619604
     39          1           0        1.144199    1.496078    1.439298
     40          6           0        3.092028    1.738232    0.892363
     41          1           0        3.745248    0.860660    0.773321
     42          6           0        3.107049    2.190608    2.384395
     43          6           0        3.606057    2.853727   -0.022075
     44          1           0        3.310246    2.606811   -1.041493
     45          1           0        3.102296    3.790426    0.236301
     46          8           0        4.195515    2.553068    2.848484
     47          6           0        5.121178    3.009578    0.033514
     48          1           0        5.558868    2.053076   -0.271953
     49          1           0        5.448722    3.187563    1.059775
     50          6           0        5.605190    4.124183   -0.875986
     51          1           0        5.292603    3.923729   -1.905174
     52          1           0        5.122364    5.060005   -0.575624
     53          6           0        7.107388    4.334967   -0.840174
     54          1           0        7.371900    5.246903   -1.378212
     55          1           0        7.419090    4.474256    0.198611
     56          7           0        7.859008    3.190362   -1.416656
     57          1           0        8.868308    3.334271   -1.376881
     58          1           0        7.603620    3.034786   -2.391616
     59          1           0        7.656684    2.328578   -0.911936
     60          8           0        2.009651    2.121476    2.982294
     61          1           0       -4.917333   -2.563569    3.481163
     62          1           0       -4.722058   -1.082826    4.021372
 ---------------------------------------------------------------------

 SCF Done:  E(RB3LYP) =  -1525.96068306     A.U. after    3 cycles

 Alpha  occ. eigenvalues --  -19.45774 -19.28611 -19.24348 -19.15608 -19.11461
 Alpha  occ. eigenvalues --  -19.08516 -19.07636 -14.63374 -14.62235 -14.47596
 Alpha  occ. eigenvalues --  -14.37751 -10.44379 -10.41642 -10.41320 -10.37883
 Alpha  occ. eigenvalues --  -10.36318 -10.35849 -10.32710 -10.30511 -10.29570
 Alpha  occ. eigenvalues --  -10.26422 -10.25563 -10.25356 -10.24399 -10.23795
 Alpha  occ. eigenvalues --  -10.22781 -10.22748 -10.21974 -10.21332 -10.20595
 Alpha  occ. eigenvalues --  -10.20214  -1.33691  -1.19683  -1.19446  -1.17116
 Alpha  occ. eigenvalues --   -1.16007  -1.07975  -1.04095  -1.02556  -1.01732
 Alpha  occ. eigenvalues --   -0.97895  -0.95349  -0.92991  -0.91788  -0.90733
 Alpha  occ. eigenvalues --   -0.88277  -0.84703  -0.84031  -0.82859  -0.81986
 Alpha  occ. eigenvalues --   -0.79190  -0.78368  -0.77406  -0.77000  -0.76339
 Alpha  occ. eigenvalues --   -0.75354  -0.74622  -0.74396  -0.71678  -0.70566
 Alpha  occ. eigenvalues --   -0.68386  -0.67723  -0.66504  -0.65301  -0.64848
 Alpha  occ. eigenvalues --   -0.64123  -0.63202  -0.62666  -0.61388  -0.60780
 Alpha  occ. eigenvalues --   -0.59590  -0.58674  -0.57731  -0.57256  -0.56713
 Alpha  occ. eigenvalues --   -0.55233  -0.54247  -0.54059  -0.53610  -0.52473
 Alpha  occ. eigenvalues --   -0.52245  -0.52016  -0.51217  -0.50548  -0.50049
 Alpha  occ. eigenvalues --   -0.49647  -0.48754  -0.47498  -0.47066  -0.46441
 Alpha  occ. eigenvalues --   -0.45679  -0.45588  -0.44687  -0.44018  -0.43204
 Alpha  occ. eigenvalues --   -0.42507  -0.41704  -0.41656  -0.41176  -0.40520
 Alpha  occ. eigenvalues --   -0.40141  -0.39439  -0.38983  -0.38269  -0.37898
 Alpha  occ. eigenvalues --   -0.37228  -0.36623  -0.36294  -0.33461  -0.29687
 Alpha  occ. eigenvalues --   -0.28852  -0.28074  -0.24043  -0.23923  -0.23692
 Alpha  occ. eigenvalues --   -0.22104  -0.19027
 Alpha virt. eigenvalues --   -0.17583  -0.14628  -0.12861  -0.12190  -0.11023
 Alpha virt. eigenvalues --   -0.07861  -0.06884  -0.05993  -0.05906  -0.05608
 Alpha virt. eigenvalues --   -0.04251  -0.03249  -0.02744  -0.01904  -0.01393

 Mulliken charges:
               1
     1  N   -0.712113
     2  H    0.453676
     3  H    0.414954
     4  H    0.426520
     5  C   -0.148135
     6  H    0.226624
     7  C    0.640629
     8  C   -0.278095
     9  H    0.148994
    10  H    0.191075
    11  O   -0.500628
    12  C   -0.350330
    13  H    0.174889
    14  H    0.230277
    15  C    0.436766
    16  O   -0.413490
    17  O   -0.552952
    18  N   -0.618353
    19  H    0.360135
    20  C   -0.065838
    21  H    0.186775
    22  C    0.628907
    23  C   -0.352436
    24  H    0.186187
    25  H    0.118871
    26  O   -0.532815
    27  C    0.145530
    28  C   -0.150812
    29  H    0.131831
    30  C   -0.170347
    31  H    0.093365
    32  C   -0.195554
    33  H    0.125477
    34  C   -0.187879
    35  H    0.131234
    36  O   -0.534110
    37  C    0.414954
    38  N   -0.610965
    39  H    0.322882
    40  C   -0.042700
    41  H    0.126615
    42  C    0.549888
    43  C   -0.255453
    44  H    0.152219
    45  H    0.147949
    46  O   -0.592301
    47  C   -0.288563
    48  H    0.093902
    49  H    0.207512
    50  C   -0.290578
    51  H    0.155834
    52  H    0.201670
    53  C   -0.229366
    54  H    0.218375
    55  H    0.231629
    56  N   -0.714208
    57  H    0.426256
    58  H    0.425838
    59  H    0.432078
    60  O   -0.623862
    61  H    0.395292
    62  H    0.456276
 Sum of Mulliken charges =   1.00000

 Dipole moment (field-independent basis, Debye):
    X=             10.3654    Y=             -9.1214    Z=             15.5206  Tot=             20.7733
 Quadrupole moment (field-independent basis, Debye-Ang):
   XX=             88.4979   YY=           -119.2891   ZZ=           -186.0015
   XY=            107.7907   XZ=           -111.7183   YZ=            -71.6063

 Normal termination of Gaussian 16 at Wed Jun  1 23:44:18 2022.
