 Gaussian 16, Revision C.01,
 Gaussian 16:  ES64L-G16RevC.01  3-Jul-2019

 ----------------------------------------------------------------------
 # B3LYP/6-31G* empiricaldispersion=gd3 guess=read geom=check nosymm in
 tegral(ultrafinegrid)
 ----------------------------------------------------------------------

 ------------------------------------------------------
 Candidate Structure: Conf:123 Charge calc in gas phase
 ------------------------------------------------------
 Structure from the checkpoint file:  "conf-123.chk"
 Charge =  1 Multiplicity = 1

                          Input orientation:
 ---------------------------------------------------------------------
 Center     Atomic      Atomic             Coordinates (Angstroms)
 Number     Number       Type             X           Y           Z
 ---------------------------------------------------------------------
      1          7           0        0.435332   -1.456643    3.183120
      2          1           0        1.499123   -0.111685    2.855334
      3          1           0        0.179204   -1.667954    4.145850
      4          1           0        0.990500   -2.239541    2.832572
      5          6           0       -0.767923   -1.315458    2.336357
      6          1           0       -1.312785   -0.431974    2.691468
      7          6           0       -0.275820   -1.077202    0.899227
      8          6           0       -1.709540   -2.538802    2.333322
      9          1           0       -1.101124   -3.432820    2.148369
     10          1           0       -2.403636   -2.454537    1.495176
     11          8           0        0.602980   -1.776973    0.405346
     12          6           0       -2.523239   -2.689497    3.630040
     13          1           0       -3.236911   -1.860044    3.712886
     14          1           0       -1.885615   -2.683827    4.518230
     15          6           0       -3.286817   -3.996220    3.679109
     16          8           0       -3.115176   -4.877376    4.483152
     17          8           0       -4.214479   -4.115055    2.672796
     18          7           0       -0.833801   -0.017711    0.237594
     19          1           0       -1.697846    0.360170    0.604107
     20          6           0       -0.567552    0.243190   -1.182767
     21          1           0       -1.031090    1.216408   -1.384286
     22          6           0        0.950480    0.398749   -1.422721
     23          6           0       -1.188711   -0.808277   -2.151017
     24          1           0       -1.275090   -0.340851   -3.138037
     25          1           0       -0.492768   -1.643800   -2.251545
     26          8           0        1.436107    0.099978   -2.526555
     27          6           0       -2.514394   -1.296263   -1.616509
     28          6           0       -2.643005   -2.609068   -1.155983
     29          1           0       -1.833901   -3.316055   -1.321402
     30          6           0       -3.584591   -0.413493   -1.393863
     31          1           0       -3.530444    0.606481   -1.771492
     32          6           0       -3.765780   -3.018351   -0.435587
     33          1           0       -3.832572   -4.033719   -0.056336
     34          6           0       -4.697292   -0.796292   -0.650840
     35          1           0       -5.503999   -0.101577   -0.439568
     36          8           0       -5.812486   -2.390050    0.699949
     37          6           0       -4.766694   -2.092613   -0.119439
     38          7           0        1.647056    0.898372   -0.369322
     39          1           0        1.069302    1.090780    0.444254
     40          6           0        2.971697    0.400318    0.051983
     41          1           0        3.125565   -0.563502   -0.446160
     42          6           0        2.924929    0.026288    1.541817
     43          6           0        4.143501    1.324057   -0.356245
     44          1           0        4.096882    2.283026    0.170997
     45          1           0        5.082514    0.828589   -0.088476
     46          8           0        3.743986   -0.716588    2.027419
     47          6           0        3.959484    1.480078   -1.863208
     48          1           0        3.026737    2.042399   -1.995272
     49          1           0        3.745339    0.464005   -2.202653
     50          6           0        4.979798    2.047975   -2.843582
     51          1           0        5.343237    3.043214   -2.564206
     52          1           0        5.857975    1.398153   -2.939711
     53          6           0        4.256738    2.191593   -4.195470
     54          1           0        3.567361    3.039438   -4.180999
     55          1           0        4.935387    2.299956   -5.044411
     56          7           0        3.371864    0.973053   -4.498384
     57          1           0        2.877157    1.095059   -5.387831
     58          1           0        2.653037    0.776354   -3.751495
     59          1           0        3.935933    0.119918   -4.580863
     60          8           0        1.870366    0.555388    2.183869
     61          1           0       -5.553498   -3.125625    1.283713
     62          1           0       -4.618640   -4.995536    2.801853
 ---------------------------------------------------------------------

 SCF Done:  E(RB3LYP) =  -1526.28126865     A.U. after    2 cycles

 Alpha  occ. eigenvalues --  -19.29062 -19.26042 -19.24750 -19.24444 -19.22833
 Alpha  occ. eigenvalues --  -19.22776 -19.21921 -14.60551 -14.47315 -14.46162
 Alpha  occ. eigenvalues --  -14.44402 -10.41236 -10.41120 -10.40382 -10.40028
 Alpha  occ. eigenvalues --  -10.39677 -10.34861 -10.33930 -10.33711 -10.33200
 Alpha  occ. eigenvalues --  -10.32671 -10.30787 -10.29970 -10.29706 -10.29026
 Alpha  occ. eigenvalues --  -10.28500 -10.27489 -10.27437 -10.27139 -10.26688
 Alpha  occ. eigenvalues --  -10.26664  -1.19328  -1.17675  -1.15706  -1.14754
 Alpha  occ. eigenvalues --   -1.14408  -1.12770  -1.10416  -1.09351  -1.04520
 Alpha  occ. eigenvalues --   -1.02662  -1.00577  -0.94329  -0.93597  -0.89988
 Alpha  occ. eigenvalues --   -0.89220  -0.87767  -0.83853  -0.82936  -0.82520
 Alpha  occ. eigenvalues --   -0.80731  -0.77851  -0.75373  -0.74150  -0.73134
 Alpha  occ. eigenvalues --   -0.72695  -0.70404  -0.70171  -0.69820  -0.69169
 Alpha  occ. eigenvalues --   -0.68983  -0.67800  -0.66357  -0.64286  -0.64107
 Alpha  occ. eigenvalues --   -0.62403  -0.62091  -0.61836  -0.60872  -0.58905
 Alpha  occ. eigenvalues --   -0.58407  -0.57526  -0.57152  -0.57098  -0.56450
 Alpha  occ. eigenvalues --   -0.55735  -0.55492  -0.55309  -0.54844  -0.54281
 Alpha  occ. eigenvalues --   -0.54104  -0.53827  -0.53601  -0.52543  -0.52400
 Alpha  occ. eigenvalues --   -0.51427  -0.51084  -0.50878  -0.50191  -0.49924
 Alpha  occ. eigenvalues --   -0.49438  -0.48847  -0.48115  -0.48046  -0.47616
 Alpha  occ. eigenvalues --   -0.46973  -0.46753  -0.46015  -0.45928  -0.45352
 Alpha  occ. eigenvalues --   -0.45117  -0.44612  -0.44089  -0.43264  -0.41517
 Alpha  occ. eigenvalues --   -0.40901  -0.39958  -0.39834  -0.38960  -0.38130
 Alpha  occ. eigenvalues --   -0.37338  -0.36712  -0.36357  -0.35533  -0.34541
 Alpha  occ. eigenvalues --   -0.33298  -0.29735
 Alpha virt. eigenvalues --   -0.11776  -0.11105  -0.10013  -0.08518  -0.08004
 Alpha virt. eigenvalues --   -0.07250  -0.07026  -0.05736  -0.04025  -0.03271
 Alpha virt. eigenvalues --   -0.02622  -0.02302  -0.01010  -0.00597  -0.00248

 Mulliken charges:
               1
     1  N   -0.774268
     2  H    0.461305
     3  H    0.341699
     4  H    0.354275
     5  C   -0.068879
     6  H    0.156206
     7  C    0.644386
     8  C   -0.299942
     9  H    0.171056
    10  H    0.197847
    11  O   -0.535125
    12  C   -0.349713
    13  H    0.183852
    14  H    0.175876
    15  C    0.578798
    16  O   -0.423397
    17  O   -0.589992
    18  N   -0.632795
    19  H    0.349390
    20  C   -0.053011
    21  H    0.181067
    22  C    0.639979
    23  C   -0.349137
    24  H    0.157930
    25  H    0.181878
    26  O   -0.577106
    27  C    0.168375
    28  C   -0.197473
    29  H    0.146629
    30  C   -0.215653
    31  H    0.127184
    32  C   -0.199859
    33  H    0.138763
    34  C   -0.159191
    35  H    0.156508
    36  O   -0.651391
    37  C    0.350424
    38  N   -0.603824
    39  H    0.381386
    40  C   -0.071471
    41  H    0.204871
    42  C    0.599204
    43  C   -0.264439
    44  H    0.168528
    45  H    0.182380
    46  O   -0.448510
    47  C   -0.292304
    48  H    0.159781
    49  H    0.137752
    50  C   -0.280262
    51  H    0.196390
    52  H    0.176679
    53  C   -0.196015
    54  H    0.218922
    55  H    0.215026
    56  N   -0.775895
    57  H    0.414534
    58  H    0.459020
    59  H    0.412728
    60  O   -0.632013
    61  H    0.425972
    62  H    0.425068
 Sum of Mulliken charges =   1.00000

 Dipole moment (field-independent basis, Debye):
    X=              7.5534    Y=              3.8241    Z=            -12.3499  Tot=             14.9732
 Quadrupole moment (field-independent basis, Debye-Ang):
   XX=           -124.8402   YY=           -158.4272   ZZ=           -101.5136
   XY=             31.9552   XZ=            -71.4773   YZ=            -24.5847

 Normal termination of Gaussian 16 at Wed Jun  1 23:44:13 2022.
