 Gaussian 16, Revision C.01,
 Gaussian 16:  ES64L-G16RevC.01  3-Jul-2019

 ----------------------------------------------------------------------
 # B3LYP/6-31G* empiricaldispersion=gd3 guess=read geom=check nosymm in
 tegral(ultrafinegrid)
 ----------------------------------------------------------------------

 ------------------------------------------------------
 Candidate Structure: Conf:876 Charge calc in gas phase
 ------------------------------------------------------
 Structure from the checkpoint file:  "conf-876.chk"
 Charge =  1 Multiplicity = 1

                          Input orientation:
 ---------------------------------------------------------------------
 Center     Atomic      Atomic             Coordinates (Angstroms)
 Number     Number       Type             X           Y           Z
 ---------------------------------------------------------------------
      1          7           0        0.409593   -2.886600    3.515210
      2          1           0        1.239144   -2.293191    3.536482
      3          1           0        0.103548   -3.041594    4.473523
      4          1           0        0.684981   -3.773838    3.098965
      5          6           0       -0.643501   -2.261779    2.692365
      6          1           0       -1.049042   -1.405129    3.229558
      7          6           0        0.001267   -1.791841    1.382536
      8          6           0       -1.796294   -3.218242    2.383165
      9          1           0       -1.454231   -3.972113    1.670249
     10          1           0       -2.578732   -2.642973    1.885988
     11          8           0        0.984997   -2.342049    0.929012
     12          6           0       -2.380113   -3.917131    3.607640
     13          1           0       -1.675221   -4.645064    4.014731
     14          1           0       -3.305410   -4.437445    3.360423
     15          6           0       -2.636002   -2.884617    4.638281
     16          8           0       -1.937640   -2.582548    5.547668
     17          8           0       -3.813846   -2.064896    4.372192
     18          7           0       -0.606620   -0.745118    0.767081
     19          1           0       -1.425592   -0.325749    1.176568
     20          6           0       -0.046636   -0.130332   -0.428162
     21          1           0       -0.600355    0.808007   -0.543619
     22          6           0        1.432677    0.225659   -0.215740
     23          6           0       -0.248656   -0.970064   -1.704997
     24          1           0        0.451921   -1.798677   -1.699606
     25          1           0       -1.257778   -1.381352   -1.678595
     26          8           0        2.339075   -0.158404   -0.935681
     27          6           0       -0.086050   -0.126449   -2.920585
     28          6           0       -1.051322    0.856351   -3.211814
     29          1           0       -1.922205    0.933719   -2.565217
     30          6           0        1.044598   -0.240044   -3.752725
     31          1           0        1.794182   -0.990203   -3.511713
     32          6           0       -0.920373    1.701754   -4.275866
     33          1           0       -1.655951    2.462080   -4.505682
     34          6           0        1.232700    0.582320   -4.828798
     35          1           0        2.101224    0.502582   -5.470297
     36          8           0        0.408370    2.388888   -6.089385
     37          6           0        0.255116    1.620134   -5.140512
     38          7           0        1.668259    1.020262    0.858760
     39          1           0        1.046887    1.115423    1.655411
     40          6           0        2.994309    1.457421    1.174568
     41          1           0        3.683123    0.602340    1.201824
     42          6           0        2.899597    2.058109    2.614067
     43          6           0        3.576210    2.489104    0.206974
     44          1           0        4.583412    2.737882    0.553922
     45          1           0        3.680751    2.002571   -0.763007
     46          8           0        3.892107    2.646826    3.047741
     47          6           0        2.738867    3.757422    0.065347
     48          1           0        2.819287    4.353933    0.979686
     49          1           0        1.688465    3.491568   -0.046290
     50          6           0        3.179248    4.573453   -1.138067
     51          1           0        4.250972    4.779292   -1.063291
     52          1           0        3.027629    3.973442   -2.044162
     53          6           0        2.445855    5.892586   -1.290290
     54          1           0        2.650311    6.521585   -0.420490
     55          1           0        2.818070    6.427274   -2.165828
     56          7           0        0.976808    5.702394   -1.411696
     57          1           0        0.504294    6.538972   -1.753986
     58          1           0        0.564287    5.463129   -0.511502
     59          1           0        0.771105    4.934212   -2.048351
     60          8           0        1.812961    1.837477    3.198182
     61          1           0       -4.661718   -2.542328    4.223762
     62          1           0       -3.933772   -1.448242    5.124888
 ---------------------------------------------------------------------

 SCF Done:  E(RB3LYP) =  -1525.95427212     A.U. after    3 cycles

 Alpha  occ. eigenvalues --  -19.48301 -19.30839 -19.25170 -19.16589 -19.13205
 Alpha  occ. eigenvalues --  -19.08643 -19.07404 -14.63178 -14.61969 -14.49043
 Alpha  occ. eigenvalues --  -14.38686 -10.46440 -10.42699 -10.42106 -10.37917
 Alpha  occ. eigenvalues --  -10.37744 -10.37130 -10.33704 -10.32143 -10.29544
 Alpha  occ. eigenvalues --  -10.27411 -10.26268 -10.26069 -10.25649 -10.24375
 Alpha  occ. eigenvalues --  -10.24035 -10.23675 -10.22817 -10.22616 -10.22368
 Alpha  occ. eigenvalues --  -10.21752  -1.36076  -1.22301  -1.19862  -1.16908
 Alpha  occ. eigenvalues --   -1.16711  -1.08964  -1.05254  -1.03479  -1.02612
 Alpha  occ. eigenvalues --   -0.99381  -0.96068  -0.93139  -0.92356  -0.91740
 Alpha  occ. eigenvalues --   -0.89874  -0.85943  -0.85055  -0.84283  -0.83904
 Alpha  occ. eigenvalues --   -0.79794  -0.79201  -0.78904  -0.77619  -0.76986
 Alpha  occ. eigenvalues --   -0.75911  -0.75125  -0.74475  -0.72662  -0.71432
 Alpha  occ. eigenvalues --   -0.69357  -0.68861  -0.68239  -0.66743  -0.65791
 Alpha  occ. eigenvalues --   -0.64876  -0.64459  -0.63813  -0.62357  -0.61624
 Alpha  occ. eigenvalues --   -0.60992  -0.60478  -0.59849  -0.58567  -0.57525
 Alpha  occ. eigenvalues --   -0.56322  -0.55686  -0.54667  -0.54093  -0.53829
 Alpha  occ. eigenvalues --   -0.53017  -0.52926  -0.52551  -0.51618  -0.50769
 Alpha  occ. eigenvalues --   -0.50435  -0.50278  -0.49298  -0.47942  -0.46952
 Alpha  occ. eigenvalues --   -0.46577  -0.46406  -0.46275  -0.45364  -0.44119
 Alpha  occ. eigenvalues --   -0.43856  -0.43243  -0.42649  -0.42366  -0.41084
 Alpha  occ. eigenvalues --   -0.40509  -0.40238  -0.39245  -0.39015  -0.38691
 Alpha  occ. eigenvalues --   -0.38185  -0.37913  -0.36334  -0.35221  -0.30658
 Alpha  occ. eigenvalues --   -0.29927  -0.29324  -0.25767  -0.24049  -0.23783
 Alpha  occ. eigenvalues --   -0.21961  -0.20824
 Alpha virt. eigenvalues --   -0.19669  -0.16970  -0.12666  -0.11882  -0.11059
 Alpha virt. eigenvalues --   -0.09743  -0.07757  -0.06212  -0.06008  -0.05793
 Alpha virt. eigenvalues --   -0.05271  -0.04064  -0.03854  -0.03594  -0.03051

 Mulliken charges:
               1
     1  N   -0.722995
     2  H    0.454107
     3  H    0.432918
     4  H    0.425790
     5  C   -0.142031
     6  H    0.220874
     7  C    0.638586
     8  C   -0.290074
     9  H    0.204398
    10  H    0.187891
    11  O   -0.484943
    12  C   -0.362345
    13  H    0.197764
    14  H    0.189743
    15  C    0.446897
    16  O   -0.432895
    17  O   -0.563434
    18  N   -0.611959
    19  H    0.328551
    20  C   -0.056899
    21  H    0.152409
    22  C    0.619998
    23  C   -0.340008
    24  H    0.190407
    25  H    0.125428
    26  O   -0.510589
    27  C    0.145525
    28  C   -0.177274
    29  H    0.087034
    30  C   -0.147871
    31  H    0.146159
    32  C   -0.211883
    33  H    0.113518
    34  C   -0.200241
    35  H    0.139645
    36  O   -0.542712
    37  C    0.404621
    38  N   -0.613981
    39  H    0.309617
    40  C   -0.055951
    41  H    0.149718
    42  C    0.550353
    43  C   -0.264105
    44  H    0.174537
    45  H    0.153596
    46  O   -0.581970
    47  C   -0.284626
    48  H    0.176801
    49  H    0.095449
    50  C   -0.300157
    51  H    0.202780
    52  H    0.174980
    53  C   -0.225673
    54  H    0.225263
    55  H    0.223787
    56  N   -0.715848
    57  H    0.426865
    58  H    0.430029
    59  H    0.433554
    60  O   -0.639938
    61  H    0.429992
    62  H    0.470818
 Sum of Mulliken charges =   1.00000

 Dipole moment (field-independent basis, Debye):
    X=            -17.9566    Y=             -1.4343    Z=             15.0474  Tot=             23.4717
 Quadrupole moment (field-independent basis, Debye-Ang):
   XX=           -145.6518   YY=            -20.5875   ZZ=           -186.4074
   XY=             29.1538   XZ=            -77.8480   YZ=            -91.2519

 Normal termination of Gaussian 16 at Wed Jun  1 23:44:19 2022.
