 Gaussian 16, Revision C.01,
 Gaussian 16:  ES64L-G16RevC.01  3-Jul-2019

 ----------------------------------------------------------------------
 # B3LYP/6-31G* empiricaldispersion=gd3 guess=read geom=check nosymm in
 tegral(ultrafinegrid)
 ----------------------------------------------------------------------

 ------------------------------------------------------
 Candidate Structure: Conf:977 Charge calc in gas phase
 ------------------------------------------------------
 Structure from the checkpoint file:  "conf-977.chk"
 Charge =  1 Multiplicity = 1

                          Input orientation:
 ---------------------------------------------------------------------
 Center     Atomic      Atomic             Coordinates (Angstroms)
 Number     Number       Type             X           Y           Z
 ---------------------------------------------------------------------
      1          7           0       -0.779754   -4.445726    2.902420
      2          1           0        0.476134   -3.810532    3.925292
      3          1           0       -1.344970   -5.225952    3.232354
      4          1           0       -0.237111   -4.775257    2.101717
      5          6           0       -1.635716   -3.323796    2.462407
      6          1           0       -2.162507   -2.950505    3.349375
      7          6           0       -0.697043   -2.233745    1.918481
      8          6           0       -2.659362   -3.676854    1.362662
      9          1           0       -2.123751   -4.188819    0.553513
     10          1           0       -3.058489   -2.753332    0.938954
     11          8           0        0.204075   -2.509182    1.132235
     12          6           0       -3.835187   -4.534002    1.864317
     13          1           0       -4.447885   -3.948456    2.560299
     14          1           0       -3.492805   -5.437134    2.376765
     15          6           0       -4.703200   -5.009003    0.718273
     16          8           0       -4.795155   -6.147369    0.333348
     17          8           0       -5.384490   -3.985415    0.106439
     18          7           0       -0.894299   -0.968865    2.399981
     19          1           0       -1.776322   -0.773317    2.855318
     20          6           0       -0.171074    0.191306    1.863573
     21          1           0       -0.435959    1.023721    2.526416
     22          6           0        1.353687   -0.026619    1.983214
     23          6           0       -0.574781    0.572368    0.407244
     24          1           0       -0.289948    1.617718    0.245586
     25          1           0        0.013241   -0.031684   -0.286841
     26          8           0        2.120852    0.517498    1.171323
     27          6           0       -2.049366    0.327601    0.192439
     28          6           0       -2.471222   -0.705199   -0.648644
     29          1           0       -1.740657   -1.231732   -1.257628
     30          6           0       -3.022284    0.992486    0.957487
     31          1           0       -2.730518    1.824785    1.596200
     32          6           0       -3.804648   -1.115042   -0.680865
     33          1           0       -4.108909   -1.941217   -1.316933
     34          6           0       -4.350470    0.577282    0.959682
     35          1           0       -5.094780    1.061532    1.583775
     36          8           0       -6.017653   -0.967476    0.293751
     37          6           0       -4.737547   -0.519696    0.175739
     38          7           0        1.739912   -0.805011    3.026814
     39          1           0        0.963233   -1.149482    3.584400
     40          6           0        2.799933   -1.829498    2.943197
     41          1           0        2.987542   -2.010970    1.878921
     42          6           0        2.247941   -3.174678    3.441111
     43          6           0        4.140068   -1.394602    3.581812
     44          1           0        4.043391   -1.273251    4.666135
     45          1           0        4.883579   -2.174443    3.387021
     46          8           0        2.785131   -4.217317    3.153131
     47          6           0        4.455354   -0.078706    2.876372
     48          1           0        3.681369    0.627563    3.201319
     49          1           0        4.242703   -0.291298    1.825888
     50          6           0        5.788015    0.661810    2.898907
     51          1           0        6.157283    0.859825    3.911353
     52          1           0        6.572394    0.105574    2.371620
     53          6           0        5.543029    2.026751    2.229474
     54          1           0        4.985397    2.692182    2.893201
     55          1           0        6.459817    2.528356    1.911834
     56          7           0        4.662638    1.895435    0.977633
     57          1           0        4.486265    2.814408    0.559177
     58          1           0        3.729331    1.438638    1.162993
     59          1           0        5.122781    1.321098    0.262650
     60          8           0        1.112461   -3.048221    4.147813
     61          1           0       -6.044381   -1.902143    0.027476
     62          1           0       -5.893040   -4.409924   -0.612158
 ---------------------------------------------------------------------

 SCF Done:  E(RB3LYP) =  -1526.28134983     A.U. after    1 cycles

 Alpha  occ. eigenvalues --  -19.29005 -19.26019 -19.24753 -19.24481 -19.22796
 Alpha  occ. eigenvalues --  -19.22783 -19.21919 -14.60544 -14.47343 -14.46161
 Alpha  occ. eigenvalues --  -14.44443 -10.41237 -10.41078 -10.40378 -10.40023
 Alpha  occ. eigenvalues --  -10.39694 -10.34877 -10.33931 -10.33738 -10.33197
 Alpha  occ. eigenvalues --  -10.32701 -10.30787 -10.29965 -10.29666 -10.29054
 Alpha  occ. eigenvalues --  -10.28505 -10.27505 -10.27453 -10.27166 -10.26712
 Alpha  occ. eigenvalues --  -10.26704  -1.19270  -1.17656  -1.15704  -1.14753
 Alpha  occ. eigenvalues --   -1.14411  -1.12859  -1.10384  -1.09340  -1.04530
 Alpha  occ. eigenvalues --   -1.02671  -1.00609  -0.94324  -0.93625  -0.89988
 Alpha  occ. eigenvalues --   -0.89218  -0.87781  -0.83859  -0.82964  -0.82538
 Alpha  occ. eigenvalues --   -0.80749  -0.77849  -0.75387  -0.74146  -0.73127
 Alpha  occ. eigenvalues --   -0.72701  -0.70418  -0.70160  -0.69838  -0.69148
 Alpha  occ. eigenvalues --   -0.68915  -0.67808  -0.66372  -0.64307  -0.64113
 Alpha  occ. eigenvalues --   -0.62420  -0.62120  -0.61842  -0.60881  -0.58909
 Alpha  occ. eigenvalues --   -0.58416  -0.57478  -0.57146  -0.57098  -0.56443
 Alpha  occ. eigenvalues --   -0.55743  -0.55520  -0.55376  -0.54844  -0.54301
 Alpha  occ. eigenvalues --   -0.54098  -0.53841  -0.53519  -0.52549  -0.52370
 Alpha  occ. eigenvalues --   -0.51441  -0.51091  -0.50898  -0.50233  -0.49913
 Alpha  occ. eigenvalues --   -0.49470  -0.48845  -0.48134  -0.48084  -0.47614
 Alpha  occ. eigenvalues --   -0.46973  -0.46746  -0.46013  -0.45871  -0.45350
 Alpha  occ. eigenvalues --   -0.45143  -0.44640  -0.44098  -0.43290  -0.41574
 Alpha  occ. eigenvalues --   -0.40826  -0.39977  -0.39849  -0.38973  -0.38132
 Alpha  occ. eigenvalues --   -0.37359  -0.36691  -0.36362  -0.35542  -0.34548
 Alpha  occ. eigenvalues --   -0.33322  -0.29760
 Alpha virt. eigenvalues --   -0.11775  -0.11110  -0.10040  -0.08532  -0.07990
 Alpha virt. eigenvalues --   -0.07232  -0.07020  -0.05732  -0.04019  -0.03266
 Alpha virt. eigenvalues --   -0.02645  -0.02297  -0.01023  -0.00589  -0.00243

 Mulliken charges:
               1
     1  N   -0.774697
     2  H    0.461589
     3  H    0.342090
     4  H    0.354653
     5  C   -0.068173
     6  H    0.156057
     7  C    0.645023
     8  C   -0.301386
     9  H    0.172551
    10  H    0.196684
    11  O   -0.535573
    12  C   -0.345730
    13  H    0.182221
    14  H    0.175106
    15  C    0.576709
    16  O   -0.423661
    17  O   -0.589881
    18  N   -0.632974
    19  H    0.349556
    20  C   -0.053068
    21  H    0.181184
    22  C    0.640106
    23  C   -0.349298
    24  H    0.158134
    25  H    0.182109
    26  O   -0.577110
    27  C    0.168217
    28  C   -0.197462
    29  H    0.147127
    30  C   -0.214824
    31  H    0.127430
    32  C   -0.202022
    33  H    0.137848
    34  C   -0.158989
    35  H    0.156809
    36  O   -0.649844
    37  C    0.350915
    38  N   -0.604067
    39  H    0.381522
    40  C   -0.071355
    41  H    0.204845
    42  C    0.599232
    43  C   -0.264443
    44  H    0.168440
    45  H    0.182541
    46  O   -0.448555
    47  C   -0.292383
    48  H    0.159791
    49  H    0.137690
    50  C   -0.280175
    51  H    0.196388
    52  H    0.176725
    53  C   -0.196058
    54  H    0.218903
    55  H    0.214995
    56  N   -0.775967
    57  H    0.414508
    58  H    0.459049
    59  H    0.412683
    60  O   -0.632510
    61  H    0.426179
    62  H    0.424599
 Sum of Mulliken charges =   1.00000

 Dipole moment (field-independent basis, Debye):
    X=             11.1478    Y=              4.2363    Z=              8.4858  Tot=             14.6365
 Quadrupole moment (field-independent basis, Debye-Ang):
   XX=            -71.7981   YY=           -160.7954   ZZ=           -153.1064
   XY=             59.0719   XZ=             14.0643   YZ=              5.2754

 Normal termination of Gaussian 16 at Wed Jun  1 23:53:08 2022.
