 Gaussian 16, Revision C.01,
 Gaussian 16:  ES64L-G16RevC.01  3-Jul-2019

 ----------------------------------------------------------------------
 # B3LYP/6-31G* empiricaldispersion=gd3 guess=read geom=check nosymm in
 tegral(ultrafinegrid)
 ----------------------------------------------------------------------

 ------------------------------------------------------
 Candidate Structure: Conf:584 Charge calc in gas phase
 ------------------------------------------------------
 Structure from the checkpoint file:  "conf-584.chk"
 Charge =  1 Multiplicity = 1

                          Input orientation:
 ---------------------------------------------------------------------
 Center     Atomic      Atomic             Coordinates (Angstroms)
 Number     Number       Type             X           Y           Z
 ---------------------------------------------------------------------
      1          7           0        0.029777   -1.694940    3.055280
      2          1           0        0.518728   -0.832558    2.790676
      3          1           0        0.016258   -1.775507    4.071225
      4          1           0        0.567472   -2.473547    2.666986
      5          6           0       -1.337876   -1.735361    2.476124
      6          1           0       -1.925513   -0.911876    2.899269
      7          6           0       -1.145241   -1.533531    0.981597
      8          6           0       -2.030178   -3.058398    2.773121
      9          1           0       -2.041773   -3.179066    3.857612
     10          1           0       -1.414586   -3.859764    2.361198
     11          8           0       -0.719950   -2.440611    0.277755
     12          6           0       -3.443654   -3.137395    2.209288
     13          1           0       -3.427634   -3.085560    1.121779
     14          1           0       -4.055581   -2.317080    2.583415
     15          6           0       -4.102682   -4.426181    2.586153
     16          8           0       -4.308323   -5.390643    1.929869
     17          8           0       -4.537328   -4.432552    3.975961
     18          7           0       -1.403735   -0.273008    0.517096
     19          1           0       -1.580740    0.414104    1.229102
     20          6           0       -0.642892    0.287883   -0.598006
     21          1           0       -1.083190    1.274573   -0.770758
     22          6           0        0.822603    0.522188   -0.163237
     23          6           0       -0.782424   -0.520294   -1.900267
     24          1           0       -0.271237   -1.471895   -1.800486
     25          1           0       -1.845629   -0.723591   -2.022196
     26          8           0        1.263950    0.120329    0.910831
     27          6           0       -0.256658    0.222417   -3.086231
     28          6           0       -0.845136    1.435826   -3.470651
     29          1           0       -1.765290    1.743530   -2.975159
     30          6           0        0.891782   -0.214795   -3.760485
     31          1           0        1.340473   -1.165318   -3.477210
     32          6           0       -0.263894    2.256329   -4.395026
     33          1           0       -0.688154    3.216879   -4.656145
     34          6           0        1.500389    0.559265   -4.704820
     35          1           0        2.404025    0.244131   -5.212802
     36          8           0        1.557629    2.618743   -5.841329
     37          6           0        0.983874    1.877027   -5.036593
     38          7           0        1.585347    1.220085   -1.042499
     39          1           0        1.160118    1.657870   -1.850602
     40          6           0        2.969341    1.505494   -0.793384
     41          1           0        3.366774    0.765905   -0.101130
     42          6           0        3.165561    2.926635   -0.171162
     43          6           0        3.762803    1.519004   -2.104692
     44          1           0        3.613625    0.548134   -2.590156
     45          1           0        3.311249    2.262802   -2.765552
     46          8           0        4.059640    2.973137    0.698016
     47          6           0        5.266549    1.809443   -1.923163
     48          1           0        5.838853    0.975272   -2.340957
     49          1           0        5.521049    1.839065   -0.861352
     50          6           0        5.739044    3.095091   -2.613841
     51          1           0        6.827265    3.174891   -2.520470
     52          1           0        5.537483    3.006676   -3.687461
     53          6           0        5.116204    4.410576   -2.151467
     54          1           0        5.462992    5.206014   -2.817511
     55          1           0        4.034307    4.365553   -2.267313
     56          7           0        5.435863    4.781261   -0.752897
     57          1           0        5.053493    5.707000   -0.542840
     58          1           0        6.450385    4.834616   -0.623246
     59          1           0        5.039629    4.125865   -0.043389
     60          8           0        2.472186    3.851883   -0.612524
     61          1           0       -3.899545   -4.170871    4.682706
     62          1           0       -4.874763   -5.331742    4.171238
 ---------------------------------------------------------------------

 SCF Done:  E(RB3LYP) =  -1526.02818122     A.U. after    3 cycles

 Alpha  occ. eigenvalues --  -19.47143 -19.30992 -19.26011 -19.20767 -19.13147
 Alpha  occ. eigenvalues --  -19.12125 -19.11475 -14.63808 -14.52262 -14.49100
 Alpha  occ. eigenvalues --  -14.42347 -10.47397 -10.43450 -10.43126 -10.38087
 Alpha  occ. eigenvalues --  -10.37451 -10.36914 -10.32934 -10.31369 -10.30215
 Alpha  occ. eigenvalues --  -10.26521 -10.25970 -10.25966 -10.25907 -10.24296
 Alpha  occ. eigenvalues --  -10.23470 -10.23186 -10.22763 -10.22474 -10.21118
 Alpha  occ. eigenvalues --  -10.20821  -1.35182  -1.21736  -1.20174  -1.17082
 Alpha  occ. eigenvalues --   -1.12357  -1.08314  -1.06603  -1.05508  -1.01619
 Alpha  occ. eigenvalues --   -0.99582  -0.99198  -0.97806  -0.92582  -0.89734
 Alpha  occ. eigenvalues --   -0.87440  -0.86387  -0.84676  -0.83258  -0.81873
 Alpha  occ. eigenvalues --   -0.80630  -0.78369  -0.78109  -0.77749  -0.76217
 Alpha  occ. eigenvalues --   -0.75157  -0.72223  -0.70963  -0.69942  -0.68264
 Alpha  occ. eigenvalues --   -0.67692  -0.66532  -0.66074  -0.65919  -0.65225
 Alpha  occ. eigenvalues --   -0.64523  -0.64287  -0.63904  -0.62534  -0.60884
 Alpha  occ. eigenvalues --   -0.60422  -0.59801  -0.57934  -0.57743  -0.57040
 Alpha  occ. eigenvalues --   -0.56584  -0.55247  -0.54994  -0.53631  -0.53079
 Alpha  occ. eigenvalues --   -0.53010  -0.52384  -0.52232  -0.51604  -0.50994
 Alpha  occ. eigenvalues --   -0.50340  -0.49752  -0.48539  -0.48324  -0.47994
 Alpha  occ. eigenvalues --   -0.46898  -0.46233  -0.45820  -0.45642  -0.44866
 Alpha  occ. eigenvalues --   -0.44043  -0.43792  -0.42805  -0.42613  -0.41378
 Alpha  occ. eigenvalues --   -0.40875  -0.40348  -0.39814  -0.39334  -0.39148
 Alpha  occ. eigenvalues --   -0.38871  -0.38199  -0.37731  -0.35255  -0.33893
 Alpha  occ. eigenvalues --   -0.33521  -0.29234  -0.28958  -0.26910  -0.26123
 Alpha  occ. eigenvalues --   -0.24267  -0.20053
 Alpha virt. eigenvalues --   -0.19017  -0.16871  -0.15206  -0.12103  -0.09489
 Alpha virt. eigenvalues --   -0.08193  -0.06658  -0.05722  -0.04440  -0.04324
 Alpha virt. eigenvalues --   -0.03280  -0.03169  -0.02117  -0.01353  -0.00918

 Mulliken charges:
               1
     1  N   -0.718377
     2  H    0.449022
     3  H    0.413719
     4  H    0.432796
     5  C   -0.141467
     6  H    0.203710
     7  C    0.617500
     8  C   -0.297017
     9  H    0.117025
    10  H    0.218621
    11  O   -0.481267
    12  C   -0.352617
    13  H    0.257923
    14  H    0.196980
    15  C    0.481572
    16  O   -0.357280
    17  O   -0.546739
    18  N   -0.567107
    19  H    0.333003
    20  C   -0.110305
    21  H    0.190815
    22  C    0.629281
    23  C   -0.342250
    24  H    0.186024
    25  H    0.155452
    26  O   -0.589788
    27  C    0.105179
    28  C   -0.187724
    29  H    0.105739
    30  C   -0.162987
    31  H    0.111922
    32  C   -0.192969
    33  H    0.134870
    34  C   -0.200493
    35  H    0.126320
    36  O   -0.555085
    37  C    0.411433
    38  N   -0.565998
    39  H    0.371812
    40  C   -0.038148
    41  H    0.156078
    42  C    0.563733
    43  C   -0.308399
    44  H    0.154133
    45  H    0.169104
    46  O   -0.605818
    47  C   -0.284505
    48  H    0.151524
    49  H    0.164102
    50  C   -0.291974
    51  H    0.136531
    52  H    0.189330
    53  C   -0.215605
    54  H    0.183593
    55  H    0.253343
    56  N   -0.730885
    57  H    0.402781
    58  H    0.380773
    59  H    0.428720
    60  O   -0.585560
    61  H    0.378633
    62  H    0.467265
 Sum of Mulliken charges =   1.00000

 Dipole moment (field-independent basis, Debye):
    X=             -4.2808    Y=            -10.4236    Z=             24.8844  Tot=             27.3168
 Quadrupole moment (field-independent basis, Debye-Ang):
   XX=            -67.2206   YY=           -100.1197   ZZ=           -139.9865
   XY=             86.5348   XZ=            -61.2732   YZ=            -63.4319

 Normal termination of Gaussian 16 at Wed Jun  1 23:44:20 2022.
