 Gaussian 16, Revision C.01,
 Gaussian 16:  ES64L-G16RevC.01  3-Jul-2019

 ----------------------------------------------------------------------
 # B3LYP/6-31G* empiricaldispersion=gd3 guess=read geom=check nosymm in
 tegral(ultrafinegrid)
 ----------------------------------------------------------------------

 ------------------------------------------------------
 Candidate Structure: Conf:727 Charge calc in gas phase
 ------------------------------------------------------
 Structure from the checkpoint file:  "conf-727.chk"
 Charge =  1 Multiplicity = 1

                          Input orientation:
 ---------------------------------------------------------------------
 Center     Atomic      Atomic             Coordinates (Angstroms)
 Number     Number       Type             X           Y           Z
 ---------------------------------------------------------------------
      1          7           0       -0.469212   -4.138396    2.858001
      2          1           0        0.550556   -4.144657    2.868054
      3          1           0       -0.805367   -4.549490    3.727496
      4          1           0       -0.760439   -4.734601    2.083376
      5          6           0       -0.973116   -2.766078    2.656601
      6          1           0       -0.603639   -2.130205    3.468051
      7          6           0       -0.404718   -2.240098    1.332984
      8          6           0       -2.496060   -2.700407    2.651254
      9          1           0       -2.870073   -3.402549    1.904210
     10          1           0       -2.787541   -1.704010    2.324518
     11          8           0        0.121770   -2.993054    0.529329
     12          6           0       -3.110249   -2.984703    4.014286
     13          1           0       -2.886583   -2.168051    4.703330
     14          1           0       -2.731202   -3.904902    4.457143
     15          6           0       -4.595411   -3.131010    3.978941
     16          8           0       -5.266922   -4.011111    4.404155
     17          8           0       -5.262085   -1.995201    3.361463
     18          7           0       -0.565249   -0.903549    1.132523
     19          1           0       -0.907858   -0.351858    1.898593
     20          6           0       -0.091589   -0.159284   -0.027675
     21          1           0       -0.653387    0.779958   -0.027322
     22          6           0        1.394721    0.192236    0.093641
     23          6           0       -0.340452   -0.851643   -1.375648
     24          1           0        0.224632   -1.775000   -1.430417
     25          1           0       -1.398772   -1.102310   -1.424887
     26          8           0        2.286908   -0.609560   -0.147437
     27          6           0        0.040386    0.059618   -2.494043
     28          6           0       -0.815040    1.099755   -2.900109
     29          1           0       -1.796241    1.172665   -2.438566
     30          6           0        1.311615   -0.035471   -3.083068
     31          1           0        1.989572   -0.811877   -2.735891
     32          6           0       -0.436056    2.021277   -3.843868
     33          1           0       -1.087428    2.827143   -4.156096
     34          6           0        1.735285    0.853079   -4.035885
     35          1           0        2.724854    0.795166   -4.472338
     36          8           0        1.246798    2.782909   -5.304743
     37          6           0        0.884517    1.958291   -4.456450
     38          7           0        1.667983    1.466476    0.445077
     39          1           0        1.014674    2.137862    0.825361
     40          6           0        3.004926    1.984403    0.408817
     41          1           0        3.708247    1.277289    0.866963
     42          6           0        2.941931    3.309113    1.224954
     43          6           0        3.466703    2.280178   -1.025665
     44          1           0        3.220502    1.407433   -1.638942
     45          1           0        2.875369    3.110573   -1.423446
     46          8           0        4.018418    3.860468    1.487593
     47          6           0        4.962010    2.554963   -1.133682
     48          1           0        5.488714    1.615165   -0.936615
     49          1           0        5.282927    3.259950   -0.358619
     50          6           0        5.335811    3.087216   -2.509084
     51          1           0        6.405683    2.955409   -2.691288
     52          1           0        4.801443    2.514237   -3.277736
     53          6           0        4.990075    4.554966   -2.666291
     54          1           0        3.929231    4.706377   -2.459752
     55          1           0        5.543832    5.130105   -1.920081
     56          7           0        5.297360    5.070518   -4.024258
     57          1           0        5.076543    6.062148   -4.117257
     58          1           0        4.763693    4.569113   -4.733611
     59          1           0        6.285179    4.952679   -4.245210
     60          8           0        1.792209    3.685775    1.532093
     61          1           0       -4.899442   -1.680430    2.500327
     62          1           0       -6.203328   -2.229288    3.241753
 ---------------------------------------------------------------------

 SCF Done:  E(RB3LYP) =  -1525.94394259     A.U. after    1 cycles

 Alpha  occ. eigenvalues --  -19.47338 -19.30222 -19.25299 -19.14816 -19.12016
 Alpha  occ. eigenvalues --  -19.06793 -19.06249 -14.65365 -14.60220 -14.48958
 Alpha  occ. eigenvalues --  -14.37523 -10.46718 -10.43662 -10.43105 -10.39035
 Alpha  occ. eigenvalues --  -10.38591 -10.35264 -10.32167 -10.31084 -10.27926
 Alpha  occ. eigenvalues --  -10.26229 -10.24788 -10.24738 -10.23009 -10.22930
 Alpha  occ. eigenvalues --  -10.22420 -10.22346 -10.21769 -10.21193 -10.20908
 Alpha  occ. eigenvalues --  -10.20813  -1.35391  -1.21434  -1.21202  -1.16913
 Alpha  occ. eigenvalues --   -1.15051  -1.07573  -1.05014  -1.02029  -1.01121
 Alpha  occ. eigenvalues --   -1.00446  -0.94692  -0.93268  -0.91579  -0.89786
 Alpha  occ. eigenvalues --   -0.88845  -0.85701  -0.84356  -0.83477  -0.81747
 Alpha  occ. eigenvalues --   -0.81367  -0.79081  -0.77959  -0.77707  -0.77622
 Alpha  occ. eigenvalues --   -0.76235  -0.73334  -0.73185  -0.72094  -0.70310
 Alpha  occ. eigenvalues --   -0.69576  -0.67915  -0.66846  -0.66751  -0.64122
 Alpha  occ. eigenvalues --   -0.63836  -0.63731  -0.63218  -0.62609  -0.61564
 Alpha  occ. eigenvalues --   -0.60606  -0.59968  -0.59050  -0.58291  -0.56747
 Alpha  occ. eigenvalues --   -0.56053  -0.55777  -0.55460  -0.54261  -0.52325
 Alpha  occ. eigenvalues --   -0.51963  -0.51896  -0.50991  -0.50673  -0.49700
 Alpha  occ. eigenvalues --   -0.48904  -0.48316  -0.48008  -0.46094  -0.45700
 Alpha  occ. eigenvalues --   -0.45526  -0.44955  -0.44797  -0.44715  -0.43001
 Alpha  occ. eigenvalues --   -0.42654  -0.42351  -0.41238  -0.39756  -0.39546
 Alpha  occ. eigenvalues --   -0.39494  -0.38970  -0.38300  -0.38037  -0.37647
 Alpha  occ. eigenvalues --   -0.37249  -0.36398  -0.34874  -0.33949  -0.28951
 Alpha  occ. eigenvalues --   -0.28505  -0.27984  -0.24813  -0.22428  -0.21965
 Alpha  occ. eigenvalues --   -0.20490  -0.19936
 Alpha virt. eigenvalues --   -0.18820  -0.16769  -0.14592  -0.12085  -0.10266
 Alpha virt. eigenvalues --   -0.10029  -0.08964  -0.08344  -0.07512  -0.04682
 Alpha virt. eigenvalues --   -0.04114  -0.03502  -0.02951  -0.02666  -0.02333

 Mulliken charges:
               1
     1  N   -0.706885
     2  H    0.446857
     3  H    0.418787
     4  H    0.429898
     5  C   -0.153791
     6  H    0.228145
     7  C    0.641932
     8  C   -0.327295
     9  H    0.194754
    10  H    0.178242
    11  O   -0.491225
    12  C   -0.353690
    13  H    0.220450
    14  H    0.187859
    15  C    0.468193
    16  O   -0.381208
    17  O   -0.550977
    18  N   -0.615790
    19  H    0.333965
    20  C   -0.061038
    21  H    0.166043
    22  C    0.631287
    23  C   -0.357908
    24  H    0.203593
    25  H    0.116699
    26  O   -0.545004
    27  C    0.129982
    28  C   -0.167828
    29  H    0.094134
    30  C   -0.159715
    31  H    0.145841
    32  C   -0.193006
    33  H    0.124703
    34  C   -0.203619
    35  H    0.102526
    36  O   -0.585514
    37  C    0.414034
    38  N   -0.604398
    39  H    0.333826
    40  C   -0.043924
    41  H    0.142392
    42  C    0.554910
    43  C   -0.280397
    44  H    0.165953
    45  H    0.126820
    46  O   -0.588530
    47  C   -0.278716
    48  H    0.152813
    49  H    0.198231
    50  C   -0.294800
    51  H    0.142832
    52  H    0.165675
    53  C   -0.227091
    54  H    0.244672
    55  H    0.231420
    56  N   -0.715573
    57  H    0.427071
    58  H    0.436591
    59  H    0.417815
    60  O   -0.607466
    61  H    0.408281
    62  H    0.468161
 Sum of Mulliken charges =   1.00000

 Dipole moment (field-independent basis, Debye):
    X=             -5.3077    Y=            -10.8655    Z=              6.3237  Tot=             13.6463
 Quadrupole moment (field-independent basis, Debye-Ang):
   XX=            -38.1267   YY=            -78.7356   ZZ=           -121.1004
   XY=             89.9628   XZ=           -120.8640   YZ=           -130.2676

 Normal termination of Gaussian 16 at Wed Jun  1 23:44:01 2022.
