 Gaussian 16, Revision C.01,
 Gaussian 16:  ES64L-G16RevC.01  3-Jul-2019

 ----------------------------------------------------------------------
 # B3LYP/6-31G* empiricaldispersion=gd3 guess=read geom=check nosymm in
 tegral(ultrafinegrid)
 ----------------------------------------------------------------------

 -----------------------------------------------------
 Candidate Structure: Conf:34 Charge calc in gas phase
 -----------------------------------------------------
 Structure from the checkpoint file:  "conf-34.chk"
 Charge =  1 Multiplicity = 1

                          Input orientation:
 ---------------------------------------------------------------------
 Center     Atomic      Atomic             Coordinates (Angstroms)
 Number     Number       Type             X           Y           Z
 ---------------------------------------------------------------------
      1          7           0       -3.200955   -0.590169    3.315841
      2          1           0       -4.642128   -1.736278    2.408411
      3          1           0       -3.246817   -0.926526    4.276211
      4          1           0       -3.285060    0.426063    3.342276
      5          6           0       -1.906613   -0.945888    2.714257
      6          1           0       -2.015993   -1.937639    2.260035
      7          6           0       -1.592939    0.077589    1.617400
      8          6           0       -0.708537   -1.026240    3.696198
      9          1           0        0.146951   -1.431788    3.142586
     10          1           0       -0.951668   -1.775850    4.457826
     11          8           0       -1.817416    1.281152    1.781904
     12          6           0       -0.323340    0.313031    4.395177
     13          1           0       -0.412536    0.228577    5.479660
     14          1           0       -0.957094    1.135553    4.054552
     15          6           0        1.102878    0.698032    4.111826
     16          8           0        2.058324    0.621956    4.822976
     17          8           0        0.616373    3.274210    4.868859
     18          7           0       -0.983409   -0.405257    0.506316
     19          1           0       -0.985392   -1.409039    0.375998
     20          6           0       -0.888300    0.410008   -0.715979
     21          1           0       -1.547130    1.267339   -0.545470
     22          6           0        0.555040    0.922847   -0.767673
     23          6           0       -1.412755   -0.368363   -1.953867
     24          1           0       -1.586636    0.352884   -2.760885
     25          1           0       -0.651140   -1.073437   -2.302802
     26          8           0        1.415988    0.517519   -1.538141
     27          6           0       -2.669065   -1.072333   -1.474750
     28          6           0       -2.611770   -2.422628   -1.098904
     29          1           0       -1.839536   -3.063351   -1.521386
     30          6           0       -3.713883   -0.291304   -0.957217
     31          1           0       -3.811517    0.748562   -1.262773
     32          6           0       -3.433128   -2.924276   -0.085587
     33          1           0       -3.329737   -3.944379    0.271580
     34          6           0       -4.522635   -0.772045    0.066312
     35          1           0       -5.265929   -0.134257    0.535033
     36          8           0       -4.870413   -2.448745    1.763568
     37          6           0       -4.305399   -2.058064    0.583366
     38          7           0        0.795302    1.848918    0.220623
     39          1           0        0.021067    2.012603    0.862709
     40          6           0        2.138957    2.018959    0.760230
     41          1           0        2.722723    1.140923    0.447558
     42          6           0        2.097401    2.000845    2.294213
     43          6           0        2.844442    3.283267    0.251724
     44          1           0        2.277927    4.164896    0.576242
     45          1           0        3.828833    3.346515    0.729011
     46          8           0        2.739222    2.750699    2.990501
     47          6           0        2.982562    3.269464   -1.273869
     48          1           0        1.986115    3.237054   -1.728738
     49          1           0        3.489218    2.350968   -1.593031
     50          6           0        3.749031    4.497704   -1.789902
     51          1           0        3.229612    5.416598   -1.482957
     52          1           0        4.752746    4.524288   -1.342488
     53          6           0        3.861837    4.448972   -3.306622
     54          1           0        4.410226    3.570695   -3.655965
     55          1           0        2.886928    4.477567   -3.799344
     56          7           0        4.635656    5.665404   -3.832155
     57          1           0        4.727818    5.658399   -4.855547
     58          1           0        5.581918    5.696479   -3.432603
     59          1           0        4.166751    6.540042   -3.565499
     60          8           0        1.220046    1.062576    2.732822
     61          1           0        0.740736    3.060677    5.806118
     62          1           0        1.525664    3.324355    4.525332
 ---------------------------------------------------------------------

 SCF Done:  E(RB3LYP) =  -1526.23569131     A.U. after    3 cycles

 Alpha  occ. eigenvalues --  -19.29008 -19.24135 -19.23093 -19.20926 -19.20620
 Alpha  occ. eigenvalues --  -19.20510 -19.19906 -14.65813 -14.44543 -14.44309
 Alpha  occ. eigenvalues --  -14.40873 -10.42639 -10.42128 -10.40931 -10.37421
 Alpha  occ. eigenvalues --  -10.37244 -10.35097 -10.33491 -10.31656 -10.31006
 Alpha  occ. eigenvalues --  -10.30963 -10.30070 -10.29340 -10.28190 -10.27536
 Alpha  occ. eigenvalues --  -10.27159 -10.25664 -10.25475 -10.25229 -10.24747
 Alpha  occ. eigenvalues --  -10.24674  -1.20940  -1.19641  -1.14415  -1.12804
 Alpha  occ. eigenvalues --   -1.12036  -1.10707  -1.09055  -1.05757  -1.01982
 Alpha  occ. eigenvalues --   -1.00822  -0.97500  -0.96193  -0.91631  -0.89648
 Alpha  occ. eigenvalues --   -0.87717  -0.86399  -0.84230  -0.81062  -0.80893
 Alpha  occ. eigenvalues --   -0.79251  -0.79053  -0.78241  -0.76772  -0.74149
 Alpha  occ. eigenvalues --   -0.72461  -0.70434  -0.69737  -0.67869  -0.67022
 Alpha  occ. eigenvalues --   -0.66646  -0.66280  -0.64466  -0.63630  -0.62797
 Alpha  occ. eigenvalues --   -0.60876  -0.59284  -0.59029  -0.58712  -0.58052
 Alpha  occ. eigenvalues --   -0.57882  -0.57506  -0.57058  -0.56607  -0.56007
 Alpha  occ. eigenvalues --   -0.54998  -0.54274  -0.53632  -0.53276  -0.52995
 Alpha  occ. eigenvalues --   -0.52611  -0.52471  -0.50999  -0.50637  -0.50292
 Alpha  occ. eigenvalues --   -0.50131  -0.49288  -0.48679  -0.48406  -0.48044
 Alpha  occ. eigenvalues --   -0.47747  -0.47419  -0.46618  -0.46019  -0.45869
 Alpha  occ. eigenvalues --   -0.45783  -0.45387  -0.44815  -0.44176  -0.43927
 Alpha  occ. eigenvalues --   -0.43365  -0.43063  -0.42766  -0.40948  -0.40409
 Alpha  occ. eigenvalues --   -0.38972  -0.38390  -0.36253  -0.35453  -0.35375
 Alpha  occ. eigenvalues --   -0.35277  -0.34633  -0.34325  -0.33704  -0.32746
 Alpha  occ. eigenvalues --   -0.31338  -0.27747
 Alpha virt. eigenvalues --   -0.16172  -0.11041  -0.09465  -0.09446  -0.07691
 Alpha virt. eigenvalues --   -0.07111  -0.06908  -0.06694  -0.06400  -0.05700
 Alpha virt. eigenvalues --   -0.03580  -0.02177  -0.01171  -0.00376   0.01385

 Mulliken charges:
               1
     1  N   -0.759567
     2  H    0.439815
     3  H    0.320932
     4  H    0.341773
     5  C   -0.054118
     6  H    0.162340
     7  C    0.651722
     8  C   -0.306711
     9  H    0.167790
    10  H    0.173241
    11  O   -0.553403
    12  C   -0.355609
    13  H    0.179274
    14  H    0.221279
    15  C    0.608626
    16  O   -0.402235
    17  O   -0.803367
    18  N   -0.596831
    19  H    0.348833
    20  C   -0.081125
    21  H    0.191299
    22  C    0.616489
    23  C   -0.370724
    24  H    0.159008
    25  H    0.173299
    26  O   -0.525553
    27  C    0.147700
    28  C   -0.230874
    29  H    0.137584
    30  C   -0.180858
    31  H    0.131908
    32  C   -0.161333
    33  H    0.150478
    34  C   -0.168701
    35  H    0.146216
    36  O   -0.681396
    37  C    0.345854
    38  N   -0.618108
    39  H    0.377236
    40  C   -0.059140
    41  H    0.201375
    42  C    0.646563
    43  C   -0.257454
    44  H    0.158178
    45  H    0.166926
    46  O   -0.459761
    47  C   -0.272980
    48  H    0.172355
    49  H    0.175914
    50  C   -0.294127
    51  H    0.169164
    52  H    0.168841
    53  C   -0.206424
    54  H    0.234334
    55  H    0.232240
    56  N   -0.732167
    57  H    0.432771
    58  H    0.428444
    59  H    0.428217
    60  O   -0.489034
    61  H    0.396886
    62  H    0.416694
 Sum of Mulliken charges =   1.00000

 Dipole moment (field-independent basis, Debye):
    X=             17.9362    Y=             22.3426    Z=            -13.0352  Tot=             31.4773
 Quadrupole moment (field-independent basis, Debye-Ang):
   XX=            -99.8694   YY=            -47.1244   ZZ=           -100.9529
   XY=            103.6038   XZ=            -84.5410   YZ=            -98.2920

 Normal termination of Gaussian 16 at Wed Jun  1 23:44:24 2022.
