 Gaussian 16, Revision C.01,
 Gaussian 16:  ES64L-G16RevC.01  3-Jul-2019

 ----------------------------------------------------------------------
 # B3LYP/6-31G* empiricaldispersion=gd3 guess=read geom=check nosymm in
 tegral(ultrafinegrid)
 ----------------------------------------------------------------------

 ------------------------------------------------------
 Candidate Structure: Conf:472 Charge calc in gas phase
 ------------------------------------------------------
 Structure from the checkpoint file:  "conf-472.chk"
 Charge =  1 Multiplicity = 1

                          Input orientation:
 ---------------------------------------------------------------------
 Center     Atomic      Atomic             Coordinates (Angstroms)
 Number     Number       Type             X           Y           Z
 ---------------------------------------------------------------------
      1          7           0        0.227245   -3.647760    2.442140
      2          1           0        1.188484   -3.282014    2.495937
      3          1           0        0.085415   -4.321988    3.196972
      4          1           0        0.072044   -4.107797    1.480201
      5          6           0       -0.787060   -2.519383    2.344253
      6          1           0       -0.459117   -1.696007    2.987429
      7          6           0       -0.644090   -2.165077    0.824900
      8          6           0       -2.201634   -2.994040    2.711375
      9          1           0       -2.443701   -3.893819    2.135907
     10          1           0       -2.883836   -2.208082    2.378114
     11          8           0       -0.338439   -3.135925    0.116867
     12          6           0       -2.411557   -3.214204    4.240578
     13          1           0       -2.233203   -2.264661    4.769521
     14          1           0       -1.706598   -3.952294    4.645643
     15          6           0       -3.697419   -3.772212    4.631197
     16          8           0       -4.384407   -4.619067    5.048059
     17          8           0       -4.920642   -2.292292    4.126327
     18          7           0       -0.827788   -0.896359    0.477096
     19          1           0       -1.032859   -0.248166    1.229221
     20          6           0       -0.167869   -0.219739   -0.685053
     21          1           0       -0.640852    0.764893   -0.741872
     22          6           0        1.309235   -0.070796   -0.218886
     23          6           0       -0.302483   -0.914596   -2.049763
     24          1           0        0.119631   -1.918485   -1.980846
     25          1           0       -1.369541   -1.005653   -2.289266
     26          8           0        2.082470   -1.025906   -0.307684
     27          6           0        0.436078   -0.095657   -3.089263
     28          6           0       -0.121938    1.057919   -3.669475
     29          1           0       -1.143666    1.342803   -3.419407
     30          6           0        1.744572   -0.448953   -3.465403
     31          1           0        2.193057   -1.339930   -3.034165
     32          6           0        0.609367    1.858980   -4.536388
     33          1           0        0.184268    2.765308   -4.957212
     34          6           0        2.478886    0.330565   -4.347600
     35          1           0        3.479088    0.025370   -4.641969
     36          8           0        2.669092    2.388892   -5.586199
     37          6           0        1.959592    1.549864   -4.866239
     38          7           0        1.553924    1.120226    0.339007
     39          1           0        0.859805    1.872604    0.446651
     40          6           0        2.869216    1.685249    0.631901
     41          1           0        3.493235    0.964622    1.166031
     42          6           0        2.577675    2.953768    1.532737
     43          6           0        3.482636    2.093271   -0.718667
     44          1           0        3.429132    1.205446   -1.359193
     45          1           0        2.792723    2.832535   -1.152864
     46          8           0        3.590513    3.424393    2.087858
     47          6           0        4.910367    2.659265   -0.733344
     48          1           0        5.630261    1.844744   -0.573284
     49          1           0        5.038627    3.365272    0.092361
     50          6           0        5.210135    3.363855   -2.080822
     51          1           0        4.645664    4.307111   -2.122548
     52          1           0        6.274599    3.619492   -2.157228
     53          6           0        4.761639    2.477971   -3.242685
     54          1           0        5.336799    1.549379   -3.290512
     55          1           0        3.723164    2.200694   -3.091578
     56          7           0        4.783108    3.074584   -4.613480
     57          1           0        3.852668    2.557078   -5.224882
     58          1           0        5.702056    3.032553   -5.056212
     59          1           0        4.504162    4.057837   -4.581319
     60          8           0        1.377589    3.329676    1.534409
     61          1           0       -5.031807   -2.074587    3.204602
     62          1           0       -5.790163   -2.591418    4.447465
 ---------------------------------------------------------------------

 SCF Done:  E(RB3LYP) =  -1526.04146047     A.U. after    3 cycles

 Alpha  occ. eigenvalues --  -19.39860 -19.38406 -19.28408 -19.18647 -19.16633
 Alpha  occ. eigenvalues --  -19.12634 -19.11908 -14.63273 -14.51828 -14.46133
 Alpha  occ. eigenvalues --  -14.41849 -10.51548 -10.45612 -10.44917 -10.43474
 Alpha  occ. eigenvalues --  -10.41146 -10.36054 -10.33856 -10.29994 -10.29351
 Alpha  occ. eigenvalues --  -10.29276 -10.27252 -10.26685 -10.25299 -10.25108
 Alpha  occ. eigenvalues --  -10.24621 -10.24282 -10.23436 -10.23322 -10.23303
 Alpha  occ. eigenvalues --  -10.23158  -1.29901  -1.23958  -1.21475  -1.16278
 Alpha  occ. eigenvalues --   -1.10664  -1.07761  -1.05491  -1.05290  -1.02109
 Alpha  occ. eigenvalues --   -1.00993  -0.98914  -0.96479  -0.94574  -0.90769
 Alpha  occ. eigenvalues --   -0.87400  -0.85926  -0.84111  -0.81217  -0.79553
 Alpha  occ. eigenvalues --   -0.78972  -0.77237  -0.76543  -0.75944  -0.74922
 Alpha  occ. eigenvalues --   -0.74693  -0.73813  -0.71019  -0.70416  -0.69565
 Alpha  occ. eigenvalues --   -0.68294  -0.67248  -0.66376  -0.65144  -0.64884
 Alpha  occ. eigenvalues --   -0.64217  -0.63545  -0.63125  -0.62528  -0.62030
 Alpha  occ. eigenvalues --   -0.61343  -0.59627  -0.58924  -0.58614  -0.58396
 Alpha  occ. eigenvalues --   -0.57825  -0.56894  -0.55515  -0.54937  -0.54608
 Alpha  occ. eigenvalues --   -0.54065  -0.53366  -0.52462  -0.51768  -0.51695
 Alpha  occ. eigenvalues --   -0.51377  -0.50028  -0.48856  -0.48749  -0.47513
 Alpha  occ. eigenvalues --   -0.47255  -0.46896  -0.46571  -0.45319  -0.44679
 Alpha  occ. eigenvalues --   -0.44422  -0.43911  -0.43217  -0.42629  -0.42460
 Alpha  occ. eigenvalues --   -0.41789  -0.40997  -0.40668  -0.40135  -0.39600
 Alpha  occ. eigenvalues --   -0.39190  -0.38158  -0.37890  -0.36327  -0.32402
 Alpha  occ. eigenvalues --   -0.31990  -0.31007  -0.30200  -0.27308  -0.26530
 Alpha  occ. eigenvalues --   -0.25025  -0.24643
 Alpha virt. eigenvalues --   -0.23537  -0.20031  -0.15683  -0.13560  -0.12586
 Alpha virt. eigenvalues --   -0.09499  -0.08828  -0.06510  -0.06262  -0.05817
 Alpha virt. eigenvalues --   -0.05298  -0.05038  -0.04074  -0.03618  -0.02720

 Mulliken charges:
               1
     1  N   -0.743961
     2  H    0.443042
     3  H    0.403150
     4  H    0.439020
     5  C   -0.142311
     6  H    0.221883
     7  C    0.674249
     8  C   -0.298979
     9  H    0.213065
    10  H    0.197570
    11  O   -0.523198
    12  C   -0.359985
    13  H    0.250889
    14  H    0.220618
    15  C    0.512771
    16  O   -0.271585
    17  O   -0.726886
    18  N   -0.601551
    19  H    0.352200
    20  C   -0.074371
    21  H    0.176058
    22  C    0.634981
    23  C   -0.353969
    24  H    0.195058
    25  H    0.149209
    26  O   -0.559525
    27  C    0.130641
    28  C   -0.184172
    29  H    0.116875
    30  C   -0.162701
    31  H    0.145866
    32  C   -0.169676
    33  H    0.138341
    34  C   -0.214276
    35  H    0.122541
    36  O   -0.701190
    37  C    0.403293
    38  N   -0.601136
    39  H    0.347873
    40  C   -0.078382
    41  H    0.150200
    42  C    0.599417
    43  C   -0.284789
    44  H    0.163116
    45  H    0.144491
    46  O   -0.518389
    47  C   -0.269135
    48  H    0.135425
    49  H    0.199611
    50  C   -0.281273
    51  H    0.149468
    52  H    0.147321
    53  C   -0.170453
    54  H    0.170860
    55  H    0.210197
    56  N   -0.783795
    57  H    0.464457
    58  H    0.360273
    59  H    0.369026
    60  O   -0.591160
    61  H    0.450333
    62  H    0.463461
 Sum of Mulliken charges =   1.00000

 Dipole moment (field-independent basis, Debye):
    X=            -10.8482    Y=            -19.5514    Z=             12.8025  Tot=             25.7651
 Quadrupole moment (field-independent basis, Debye-Ang):
   XX=            -86.2223   YY=           -135.8366   ZZ=           -118.9293
   XY=             37.1151   XZ=            -86.8446   YZ=            -98.9220

 Normal termination of Gaussian 16 at Wed Jun  1 23:44:23 2022.
