 Gaussian 16, Revision C.01,
 Gaussian 16:  ES64L-G16RevC.01  3-Jul-2019

 ----------------------------------------------------------------------
 # B3LYP/6-31G* empiricaldispersion=gd3 guess=read geom=check nosymm in
 tegral(ultrafinegrid)
 ----------------------------------------------------------------------

 ------------------------------------------------------
 Candidate Structure: Conf:549 Charge calc in gas phase
 ------------------------------------------------------
 Structure from the checkpoint file:  "conf-549.chk"
 Charge =  1 Multiplicity = 1

                          Input orientation:
 ---------------------------------------------------------------------
 Center     Atomic      Atomic             Coordinates (Angstroms)
 Number     Number       Type             X           Y           Z
 ---------------------------------------------------------------------
      1          7           0       -1.640399   -3.498562    3.854737
      2          1           0       -0.912566   -3.303333    4.597694
      3          1           0       -2.449820   -3.947569    4.284720
      4          1           0       -1.208544   -4.143794    3.178787
      5          6           0       -2.008703   -2.255763    3.123512
      6          1           0       -2.101966   -1.438721    3.849039
      7          6           0       -0.910985   -1.941876    2.095697
      8          6           0       -3.341310   -2.407077    2.369980
      9          1           0       -3.538056   -1.467395    1.849452
     10          1           0       -4.150505   -2.539260    3.096779
     11          8           0       -0.295535   -2.876884    1.584932
     12          6           0       -3.355859   -3.567494    1.356920
     13          1           0       -3.171599   -4.526874    1.843198
     14          1           0       -2.575112   -3.416468    0.602297
     15          6           0       -4.678871   -3.688154    0.689279
     16          8           0       -5.543155   -4.504763    0.723829
     17          8           0       -4.940103   -2.465991   -0.189389
     18          7           0       -0.836796   -0.641486    1.720493
     19          1           0       -1.307348    0.039721    2.298183
     20          6           0       -0.067192   -0.116802    0.568116
     21          1           0       -0.225156    0.962327    0.582123
     22          6           0        1.462855   -0.301282    0.704796
     23          6           0       -0.646055   -0.681400   -0.755732
     24          1           0       -0.395302   -1.736205   -0.852723
     25          1           0       -1.738295   -0.607335   -0.678581
     26          8           0        2.188886    0.604104    1.106488
     27          6           0       -0.165641    0.082745   -1.941051
     28          6           0       -0.776506    1.315527   -2.269504
     29          1           0       -1.611871    1.661775   -1.661508
     30          6           0        0.936257   -0.372089   -2.703878
     31          1           0        1.425850   -1.307136   -2.423325
     32          6           0       -0.341036    2.072281   -3.322116
     33          1           0       -0.800908    3.017475   -3.587139
     34          6           0        1.407191    0.358067   -3.766615
     35          1           0        2.247196    0.020274   -4.362089
     36          8           0        1.195846    2.299753   -5.095262
     37          6           0        0.789951    1.627875   -4.137071
     38          7           0        1.864619   -1.525571    0.340834
     39          1           0        1.151820   -2.233912    0.243449
     40          6           0        3.193880   -2.071341    0.317756
     41          1           0        3.944314   -1.276420    0.349354
     42          6           0        3.395198   -2.922198   -0.994156
     43          6           0        3.311698   -2.945938    1.568195
     44          1           0        2.479143   -3.660772    1.574109
     45          1           0        4.235278   -3.531114    1.587906
     46          8           0        4.556750   -3.327006   -1.146289
     47          6           0        3.259461   -1.972363    2.740316
     48          1           0        2.385442   -1.334738    2.576253
     49          1           0        4.144768   -1.329858    2.654015
     50          6           0        3.138202   -2.520005    4.148475
     51          1           0        2.181448   -3.053482    4.228940
     52          1           0        3.921836   -3.240092    4.406010
     53          6           0        3.189290   -1.362538    5.136446
     54          1           0        3.107895   -1.706499    6.170476
     55          1           0        4.141369   -0.831331    5.043634
     56          7           0        2.111109   -0.373630    4.817383
     57          1           0        2.152095    0.457309    5.410058
     58          1           0        1.135872   -0.787523    4.886750
     59          1           0        2.227398   -0.071170    3.859312
     60          8           0        2.369744   -3.102236   -1.694687
     61          1           0       -4.250354   -2.241168   -0.860155
     62          1           0       -5.787818   -2.617406   -0.663801
 ---------------------------------------------------------------------

 SCF Done:  E(RB3LYP) =  -1525.91239178     A.U. after    1 cycles

 Alpha  occ. eigenvalues --  -19.46711 -19.31673 -19.28417 -19.19143 -19.14374
 Alpha  occ. eigenvalues --  -19.08074 -19.07374 -14.65701 -14.63452 -14.52428
 Alpha  occ. eigenvalues --  -14.41967 -10.47587 -10.45776 -10.44893 -10.40555
 Alpha  occ. eigenvalues --  -10.39275 -10.39040 -10.36388 -10.34702 -10.33035
 Alpha  occ. eigenvalues --  -10.28976 -10.28936 -10.28006 -10.26394 -10.25877
 Alpha  occ. eigenvalues --  -10.25465 -10.25378 -10.24771 -10.23329 -10.22458
 Alpha  occ. eigenvalues --  -10.22296  -1.33614  -1.22025  -1.21949  -1.18875
 Alpha  occ. eigenvalues --   -1.18029  -1.11205  -1.08123  -1.03735  -1.01947
 Alpha  occ. eigenvalues --   -1.00318  -0.99117  -0.94587  -0.93831  -0.92775
 Alpha  occ. eigenvalues --   -0.91133  -0.87588  -0.86456  -0.84206  -0.82869
 Alpha  occ. eigenvalues --   -0.81030  -0.80633  -0.79760  -0.79174  -0.78533
 Alpha  occ. eigenvalues --   -0.77733  -0.76535  -0.76101  -0.74899  -0.73245
 Alpha  occ. eigenvalues --   -0.71129  -0.70936  -0.68478  -0.67803  -0.66904
 Alpha  occ. eigenvalues --   -0.66325  -0.65444  -0.65250  -0.64403  -0.63649
 Alpha  occ. eigenvalues --   -0.62972  -0.61536  -0.61108  -0.60379  -0.58793
 Alpha  occ. eigenvalues --   -0.58298  -0.58073  -0.56840  -0.56383  -0.55670
 Alpha  occ. eigenvalues --   -0.55070  -0.54971  -0.53722  -0.53308  -0.53165
 Alpha  occ. eigenvalues --   -0.52443  -0.52171  -0.50649  -0.49600  -0.49429
 Alpha  occ. eigenvalues --   -0.48657  -0.46968  -0.46745  -0.46475  -0.46271
 Alpha  occ. eigenvalues --   -0.45951  -0.44623  -0.44312  -0.43893  -0.42982
 Alpha  occ. eigenvalues --   -0.42752  -0.42187  -0.41483  -0.40884  -0.40172
 Alpha  occ. eigenvalues --   -0.38984  -0.37869  -0.36020  -0.35886  -0.33056
 Alpha  occ. eigenvalues --   -0.32183  -0.30035  -0.26329  -0.23418  -0.22759
 Alpha  occ. eigenvalues --   -0.21627  -0.21535
 Alpha virt. eigenvalues --   -0.19913  -0.19419  -0.16305  -0.15394  -0.14322
 Alpha virt. eigenvalues --   -0.11492  -0.10328  -0.09145  -0.08130  -0.07888
 Alpha virt. eigenvalues --   -0.06747  -0.06170  -0.05158  -0.04745  -0.04340

 Mulliken charges:
               1
     1  N   -0.685019
     2  H    0.327450
     3  H    0.406173
     4  H    0.428318
     5  C   -0.139334
     6  H    0.180819
     7  C    0.603456
     8  C   -0.304735
     9  H    0.200753
    10  H    0.192289
    11  O   -0.528283
    12  C   -0.371183
    13  H    0.197927
    14  H    0.223050
    15  C    0.476950
    16  O   -0.367692
    17  O   -0.603975
    18  N   -0.612755
    19  H    0.334600
    20  C   -0.080907
    21  H    0.187619
    22  C    0.601386
    23  C   -0.369023
    24  H    0.192220
    25  H    0.078340
    26  O   -0.560829
    27  C    0.135027
    28  C   -0.171075
    29  H    0.088314
    30  C   -0.192963
    31  H    0.233786
    32  C   -0.176257
    33  H    0.141973
    34  C   -0.195736
    35  H    0.167899
    36  O   -0.504718
    37  C    0.419745
    38  N   -0.533563
    39  H    0.363216
    40  C   -0.102356
    41  H    0.173070
    42  C    0.584319
    43  C   -0.257706
    44  H    0.127272
    45  H    0.184153
    46  O   -0.566565
    47  C   -0.286007
    48  H    0.101231
    49  H    0.171282
    50  C   -0.271997
    51  H    0.108770
    52  H    0.204661
    53  C   -0.209392
    54  H    0.210163
    55  H    0.236279
    56  N   -0.705362
    57  H    0.419007
    58  H    0.313271
    59  H    0.436232
    60  O   -0.599124
    61  H    0.456938
    62  H    0.488598
 Sum of Mulliken charges =   1.00000

 Dipole moment (field-independent basis, Debye):
    X=            -21.1040    Y=             -9.8174    Z=             36.5849  Tot=             43.3615
 Quadrupole moment (field-independent basis, Debye-Ang):
   XX=           -138.8354   YY=           -173.4693   ZZ=            -76.9778
   XY=             56.6642   XZ=             49.1481   YZ=            -47.3152

 Normal termination of Gaussian 16 at Wed Jun  1 23:44:05 2022.
