 Gaussian 16, Revision C.01,
 Gaussian 16:  ES64L-G16RevC.01  3-Jul-2019

 ----------------------------------------------------------------------
 # B3LYP/6-31G* empiricaldispersion=gd3bj guess=read geom=check nosymm
 integral(ultrafinegrid)
 ----------------------------------------------------------------------

 ------------------------------------------------------
 Candidate Structure: Conf:796 Charge calc in gas phase
 ------------------------------------------------------
 Structure from the checkpoint file:  "conf-796.chk"
 Charge =  1 Multiplicity = 1

                          Input orientation:
 ---------------------------------------------------------------------
 Center     Atomic      Atomic             Coordinates (Angstroms)
 Number     Number       Type             X           Y           Z
 ---------------------------------------------------------------------
      1          7           0       -2.484542   -0.439100   -4.148244
      2          1           0       -3.051098   -1.289983   -4.090294
      3          1           0       -2.882622    0.280689   -3.476137
      4          1           0       -2.493950   -0.097689   -5.113491
      5          6           0       -1.080032   -0.612603   -3.602206
      6          1           0       -0.826266   -1.675068   -3.627643
      7          6           0       -1.224327   -0.077080   -2.155356
      8          6           0       -0.124366    0.229850   -4.456226
      9          1           0       -0.417777    1.281292   -4.371910
     10          1           0       -0.212068   -0.080408   -5.504147
     11          8           0       -2.190949    0.667162   -1.924928
     12          6           0        1.338959    0.125339   -4.028756
     13          1           0        1.480322    0.473603   -3.007174
     14          1           0        1.710060   -0.907084   -4.090947
     15          6           0        2.181933    0.971942   -4.955845
     16          8           0        1.914895    1.230566   -6.105240
     17          8           0        3.304879    1.424858   -4.339241
     18          7           0       -0.304557   -0.471950   -1.285303
     19          1           0        0.526452   -0.961870   -1.622821
     20          6           0       -0.018981    0.218796   -0.027551
     21          1           0       -0.455339    1.217385   -0.083929
     22          6           0        1.515503    0.339151   -0.005610
     23          6           0       -0.540913   -0.552693    1.196382
     24          1           0       -0.173211   -0.052253    2.102016
     25          1           0       -0.085529   -1.551252    1.187214
     26          8           0        2.205601   -0.315984   -0.794499
     27          6           0       -2.071719   -0.674106    1.279972
     28          1           0       -2.428242   -1.118497    0.339737
     29          6           0       -2.449290   -1.619748    2.427155
     30          1           0       -2.110093   -1.219672    3.390591
     31          1           0       -3.535126   -1.748580    2.486224
     32          1           0       -1.997441   -2.609838    2.298031
     33          6           0       -2.747509    0.691988    1.450698
     34          1           0       -2.378074    1.198807    2.351390
     35          1           0       -2.578759    1.343307    0.588120
     36          1           0       -3.830519    0.572967    1.561507
     37          7           0        2.030842    1.162154    0.919969
     38          1           0        1.443159    1.654283    1.583806
     39          6           0        3.466097    1.348808    1.075062
     40          1           0        3.956004    0.369656    1.074799
     41          6           0        3.674028    2.008539    2.427479
     42          6           0        4.057325    2.202078   -0.068342
     43          1           0        3.782087    1.690623   -0.995473
     44          1           0        5.148842    2.173445    0.004283
     45          8           0        2.774185    2.434452    3.120803
     46          6           0        3.546035    3.651564   -0.063353
     47          1           0        2.579243    3.714618    0.447529
     48          1           0        4.237258    4.293117    0.496309
     49          6           0        3.363352    4.225813   -1.474999
     50          1           0        4.285968    4.123145   -2.055115
     51          1           0        3.167810    5.303519   -1.416598
     52          7           0        2.312305    3.573543   -2.251344
     53          1           0        2.591447    2.770032   -2.800580
     54          7           0        0.579444    4.576451   -1.054219
     55          1           0       -0.422510    4.702909   -0.996164
     56          1           0        1.071372    5.457218   -1.143648
     57          7           0        0.222904    2.586319   -2.319223
     58          1           0       -0.749846    2.760888   -2.065136
     59          6           0        0.986637    3.547709   -1.895395
     60          8           0        4.974911    2.095815    2.741669
     61          1           0        5.036607    2.547137    3.605575
     62          1           0        3.808208    1.923056   -5.012941
 ---------------------------------------------------------------------

 SCF Done:  E(RB3LYP) =  -1447.52811376     A.U. after    1 cycles

 Alpha  occ. eigenvalues --  -19.30109 -19.29446 -19.26742 -19.24119 -19.24056
 Alpha  occ. eigenvalues --  -19.22713 -14.60152 -14.48969 -14.46553 -14.44359
 Alpha  occ. eigenvalues --  -14.43435 -14.37787 -10.43399 -10.42412 -10.41970
 Alpha  occ. eigenvalues --  -10.40593 -10.39611 -10.37885 -10.34190 -10.33634
 Alpha  occ. eigenvalues --  -10.32810 -10.31361 -10.30835 -10.28499 -10.27943
 Alpha  occ. eigenvalues --  -10.27710 -10.27208 -10.25253 -10.25113  -1.20693
 Alpha  occ. eigenvalues --   -1.20579  -1.19201  -1.14813  -1.13856  -1.11817
 Alpha  occ. eigenvalues --   -1.11722  -1.07054  -1.06075  -1.03315  -0.97953
 Alpha  occ. eigenvalues --   -0.94355  -0.93589  -0.91026  -0.89058  -0.87111
 Alpha  occ. eigenvalues --   -0.85028  -0.83067  -0.78823  -0.76986  -0.76332
 Alpha  occ. eigenvalues --   -0.75621  -0.74007  -0.73150  -0.72882  -0.72044
 Alpha  occ. eigenvalues --   -0.70080  -0.69056  -0.68887  -0.67060  -0.66290
 Alpha  occ. eigenvalues --   -0.64544  -0.63329  -0.62643  -0.61885  -0.60946
 Alpha  occ. eigenvalues --   -0.60240  -0.59257  -0.58687  -0.58555  -0.57948
 Alpha  occ. eigenvalues --   -0.57534  -0.56945  -0.56627  -0.56099  -0.55868
 Alpha  occ. eigenvalues --   -0.55328  -0.54392  -0.53345  -0.52987  -0.52334
 Alpha  occ. eigenvalues --   -0.51930  -0.51775  -0.51218  -0.50375  -0.50048
 Alpha  occ. eigenvalues --   -0.49754  -0.49506  -0.48513  -0.48253  -0.47929
 Alpha  occ. eigenvalues --   -0.47526  -0.47256  -0.46897  -0.46309  -0.45002
 Alpha  occ. eigenvalues --   -0.44558  -0.43468  -0.42871  -0.42069  -0.41984
 Alpha  occ. eigenvalues --   -0.41600  -0.41477  -0.41115  -0.41067  -0.39136
 Alpha  occ. eigenvalues --   -0.37818  -0.37672  -0.36492  -0.36393  -0.36001
 Alpha  occ. eigenvalues --   -0.35132  -0.31295
 Alpha virt. eigenvalues --   -0.12289  -0.10993  -0.09232  -0.08974  -0.07937
 Alpha virt. eigenvalues --   -0.06209  -0.04481  -0.04029  -0.03465  -0.01961
 Alpha virt. eigenvalues --   -0.01463  -0.01345  -0.00518  -0.00303   0.00760

 Mulliken charges:
               1
     1  N   -0.752582
     2  H    0.415710
     3  H    0.430337
     4  H    0.415939
     5  C   -0.133572
     6  H    0.208437
     7  C    0.691057
     8  C   -0.280273
     9  H    0.208097
    10  H    0.183303
    11  O   -0.559933
    12  C   -0.386619
    13  H    0.233398
    14  H    0.188118
    15  C    0.603503
    16  O   -0.443957
    17  O   -0.575812
    18  N   -0.586293
    19  H    0.371351
    20  C   -0.080383
    21  H    0.191242
    22  C    0.659942
    23  C   -0.259383
    24  H    0.152152
    25  H    0.152400
    26  O   -0.554298
    27  C   -0.068743
    28  H    0.119589
    29  C   -0.446813
    30  H    0.153418
    31  H    0.156135
    32  H    0.147330
    33  C   -0.461153
    34  H    0.145442
    35  H    0.154353
    36  H    0.157209
    37  N   -0.617561
    38  H    0.365247
    39  C   -0.047705
    40  H    0.206176
    41  C    0.595866
    42  C   -0.278353
    43  H    0.176230
    44  H    0.173835
    45  O   -0.466684
    46  C   -0.281163
    47  H    0.168360
    48  H    0.155336
    49  C   -0.166801
    50  H    0.164550
    51  H    0.152039
    52  N   -0.606009
    53  H    0.369556
    54  N   -0.746316
    55  H    0.335959
    56  H    0.342630
    57  N   -0.738814
    58  H    0.278404
    59  C    0.617185
    60  O   -0.557669
    61  H    0.430583
    62  H    0.426471
 Sum of Mulliken charges =   1.00000

 Dipole moment (field-independent basis, Debye):
    X=             -1.2964    Y=              3.6311    Z=            -10.8938  Tot=             11.5560
 Quadrupole moment (field-independent basis, Debye-Ang):
   XX=           -118.8888   YY=           -132.3855   ZZ=           -113.4780
   XY=             27.8031   XZ=             33.1976   YZ=              8.9041

 Normal termination of Gaussian 16 at Thu Jun 23 05:54:22 2022.
