 Gaussian 16, Revision C.01,
 Gaussian 16:  ES64L-G16RevC.01  3-Jul-2019

 ----------------------------------------------------------------------
 # B3LYP/6-31G* empiricaldispersion=gd3bj guess=read geom=check nosymm
 integral(ultrafinegrid)
 ----------------------------------------------------------------------

 ------------------------------------------------------
 Candidate Structure: Conf:538 Charge calc in gas phase
 ------------------------------------------------------
 Structure from the checkpoint file:  "conf-538.chk"
 Charge =  1 Multiplicity = 1

                          Input orientation:
 ---------------------------------------------------------------------
 Center     Atomic      Atomic             Coordinates (Angstroms)
 Number     Number       Type             X           Y           Z
 ---------------------------------------------------------------------
      1          7           0       -2.908774   -1.516472   -3.915703
      2          1           0       -3.666927   -2.062153   -3.497636
      3          1           0       -2.988282   -0.503401   -3.585619
      4          1           0       -2.973575   -1.585870   -4.934747
      5          6           0       -1.534843   -1.889554   -3.386782
      6          1           0       -1.615727   -2.855796   -2.883158
      7          6           0       -1.274286   -0.752050   -2.363672
      8          6           0       -0.555469   -1.965908   -4.565201
      9          1           0       -0.469206   -0.971157   -5.015889
     10          1           0       -0.997227   -2.647967   -5.302355
     11          8           0       -2.008985    0.246721   -2.437492
     12          6           0        0.849656   -2.467759   -4.207534
     13          1           0        0.853577   -3.097962   -3.307947
     14          1           0        1.224773   -3.114742   -5.004875
     15          6           0        1.866744   -1.337244   -4.017193
     16          8           0        1.521596   -0.171613   -3.874380
     17          8           0        3.082328   -1.819130   -4.049557
     18          7           0       -0.344339   -0.954433   -1.440621
     19          1           0        0.353461   -1.689719   -1.544899
     20          6           0        0.069513    0.080726   -0.496566
     21          1           0       -0.266428    1.043913   -0.886376
     22          6           0        1.600142    0.021939   -0.461675
     23          6           0       -0.499283   -0.174626    0.913597
     24          1           0       -0.030479    0.536180    1.607060
     25          1           0       -0.167097   -1.172069    1.228364
     26          8           0        2.198420   -0.991646   -0.816722
     27          6           0       -2.028117   -0.066264    1.032894
     28          1           0       -2.475195   -0.743312    0.290021
     29          6           0       -2.467067   -0.536834    2.425519
     30          1           0       -2.041500    0.106087    3.205740
     31          1           0       -3.556958   -0.500584    2.525362
     32          1           0       -2.142116   -1.564334    2.624700
     33          6           0       -2.530086    1.355314    0.751205
     34          1           0       -2.068864    2.072962    1.441798
     35          1           0       -2.318347    1.671535   -0.274429
     36          1           0       -3.614285    1.415311    0.894177
     37          7           0        2.194877    1.142815    0.003313
     38          1           0        1.610474    1.896618    0.339466
     39          6           0        3.626838    1.261089    0.194237
     40          1           0        4.066431    0.376291   -0.273805
     41          6           0        4.052954    1.222141    1.658838
     42          6           0        4.178819    2.537449   -0.472910
     43          1           0        5.265195    2.529744   -0.335284
     44          1           0        3.819364    3.417531    0.076291
     45          8           0        5.205112    1.306549    2.011238
     46          6           0        3.778596    2.668939   -1.949802
     47          1           0        2.694970    2.809789   -2.018820
     48          1           0        4.241382    3.573288   -2.362454
     49          6           0        4.134853    1.466079   -2.818537
     50          1           0        3.718753    1.592663   -3.820970
     51          1           0        3.680043    0.553217   -2.419251
     52          7           0        5.581584    1.318889   -2.937648
     53          1           0        6.142335    1.627857   -2.154935
     54          7           0        7.489345    0.231168   -3.643086
     55          1           0        7.914819   -0.453922   -4.252865
     56          1           0        7.969764    1.122615   -3.651140
     57          7           0        5.330704   -0.559608   -4.269109
     58          1           0        5.850797   -1.200501   -4.864763
     59          6           0        6.106271    0.282637   -3.658691
     60          8           0        3.011425    1.105447    2.513457
     61          1           0        3.394927    1.095321    3.411866
     62          1           0        3.868935   -1.131259   -4.038758
 ---------------------------------------------------------------------

 SCF Done:  E(RB3LYP) =  -1447.52823839     A.U. after    2 cycles

 Alpha  occ. eigenvalues --  -19.28728 -19.26925 -19.23777 -19.22500 -19.22473
 Alpha  occ. eigenvalues --  -19.20966 -14.59894 -14.49381 -14.46844 -14.43501
 Alpha  occ. eigenvalues --  -14.43346 -14.38454 -10.43611 -10.40805 -10.40788
 Alpha  occ. eigenvalues --  -10.39507 -10.39473 -10.37635 -10.34358 -10.33437
 Alpha  occ. eigenvalues --  -10.33290 -10.30624 -10.29020 -10.28681 -10.28497
 Alpha  occ. eigenvalues --  -10.28090 -10.27259 -10.25492 -10.25452  -1.19486
 Alpha  occ. eigenvalues --   -1.19413  -1.15927  -1.14601  -1.13713  -1.10388
 Alpha  occ. eigenvalues --   -1.07757  -1.06828  -1.06212  -1.03658  -0.97598
 Alpha  occ. eigenvalues --   -0.94254  -0.93369  -0.91183  -0.89101  -0.86637
 Alpha  occ. eigenvalues --   -0.84818  -0.82692  -0.78499  -0.76829  -0.76538
 Alpha  occ. eigenvalues --   -0.75636  -0.74010  -0.72581  -0.71840  -0.70934
 Alpha  occ. eigenvalues --   -0.69770  -0.69335  -0.67853  -0.67042  -0.66188
 Alpha  occ. eigenvalues --   -0.64527  -0.63347  -0.62603  -0.61660  -0.60602
 Alpha  occ. eigenvalues --   -0.60089  -0.59163  -0.58544  -0.58009  -0.57283
 Alpha  occ. eigenvalues --   -0.56655  -0.56308  -0.55533  -0.55296  -0.54504
 Alpha  occ. eigenvalues --   -0.53972  -0.53363  -0.53081  -0.52610  -0.51953
 Alpha  occ. eigenvalues --   -0.51532  -0.51229  -0.50773  -0.50343  -0.49786
 Alpha  occ. eigenvalues --   -0.49086  -0.48970  -0.48299  -0.47914  -0.47467
 Alpha  occ. eigenvalues --   -0.46712  -0.46634  -0.46194  -0.45182  -0.44513
 Alpha  occ. eigenvalues --   -0.43627  -0.42805  -0.42592  -0.42143  -0.41665
 Alpha  occ. eigenvalues --   -0.41458  -0.41274  -0.40311  -0.39293  -0.38370
 Alpha  occ. eigenvalues --   -0.37772  -0.36731  -0.36212  -0.34858  -0.34440
 Alpha  occ. eigenvalues --   -0.33969  -0.31865
 Alpha virt. eigenvalues --   -0.12357  -0.11136  -0.08115  -0.07714  -0.06725
 Alpha virt. eigenvalues --   -0.05888  -0.04939  -0.03654  -0.03079  -0.01799
 Alpha virt. eigenvalues --   -0.01122  -0.00614  -0.00253   0.00359   0.01047

 Mulliken charges:
               1
     1  N   -0.758867
     2  H    0.414738
     3  H    0.436577
     4  H    0.412667
     5  C   -0.121319
     6  H    0.212941
     7  C    0.677431
     8  C   -0.284314
     9  H    0.206852
    10  H    0.164125
    11  O   -0.545781
    12  C   -0.389323
    13  H    0.178961
    14  H    0.205973
    15  C    0.624788
    16  O   -0.516905
    17  O   -0.607635
    18  N   -0.586898
    19  H    0.373802
    20  C   -0.098470
    21  H    0.196908
    22  C    0.661636
    23  C   -0.258082
    24  H    0.156497
    25  H    0.155671
    26  O   -0.538901
    27  C   -0.067682
    28  H    0.109253
    29  C   -0.445862
    30  H    0.153206
    31  H    0.155947
    32  H    0.147860
    33  C   -0.465075
    34  H    0.143711
    35  H    0.164656
    36  H    0.156955
    37  N   -0.593978
    38  H    0.343249
    39  C   -0.073407
    40  H    0.227251
    41  C    0.600347
    42  C   -0.301871
    43  H    0.175981
    44  H    0.155890
    45  O   -0.444998
    46  C   -0.293997
    47  H    0.153183
    48  H    0.163270
    49  C   -0.129044
    50  H    0.184415
    51  H    0.180511
    52  N   -0.613649
    53  H    0.334683
    54  N   -0.761669
    55  H    0.341201
    56  H    0.343075
    57  N   -0.744974
    58  H    0.299747
    59  C    0.694053
    60  O   -0.572188
    61  H    0.425907
    62  H    0.480970
 Sum of Mulliken charges =   1.00000

 Dipole moment (field-independent basis, Debye):
    X=             -1.1024    Y=             -3.6512    Z=            -13.4054  Tot=             13.9374
 Quadrupole moment (field-independent basis, Debye-Ang):
   XX=            -82.1763   YY=           -146.7664   ZZ=            -96.3199
   XY=             32.8699   XZ=              2.1722   YZ=             29.8948

 Normal termination of Gaussian 16 at Thu Jun 23 05:54:33 2022.
