 Gaussian 16, Revision C.01,
 Gaussian 16:  ES64L-G16RevC.01  3-Jul-2019

 ----------------------------------------------------------------------
 # B3LYP/6-31G* empiricaldispersion=gd3bj guess=read geom=check nosymm
 integral(ultrafinegrid)
 ----------------------------------------------------------------------

 ------------------------------------------------------
 Candidate Structure: Conf:747 Charge calc in gas phase
 ------------------------------------------------------
 Structure from the checkpoint file:  "conf-747.chk"
 Charge =  1 Multiplicity = 1

                          Input orientation:
 ---------------------------------------------------------------------
 Center     Atomic      Atomic             Coordinates (Angstroms)
 Number     Number       Type             X           Y           Z
 ---------------------------------------------------------------------
      1          7           0       -3.495837   -1.466685   -3.024323
      2          1           0       -3.914828   -2.398859   -2.988878
      3          1           0       -3.617371   -0.966089   -2.079087
      4          1           0       -3.950239   -0.933015   -3.769985
      5          6           0       -1.984212   -1.477489   -3.142028
      6          1           0       -1.662403   -2.522031   -3.171166
      7          6           0       -1.548223   -0.815042   -1.803749
      8          6           0       -1.503614   -0.716051   -4.375986
      9          1           0       -0.414283   -0.632791   -4.326693
     10          1           0       -1.872214    0.316458   -4.336160
     11          8           0       -2.449052   -0.413371   -1.046247
     12          6           0       -1.885561   -1.376409   -5.702011
     13          1           0       -1.540376   -2.417813   -5.740260
     14          1           0       -2.969558   -1.409940   -5.871834
     15          6           0       -1.252983   -0.631502   -6.867540
     16          8           0       -0.453987    0.267534   -6.746733
     17          8           0       -1.693978   -1.111286   -8.042657
     18          7           0       -0.249773   -0.720041   -1.589452
     19          1           0        0.453998   -1.060780   -2.248144
     20          6           0        0.364597   -0.092207   -0.417502
     21          1           0       -0.192509    0.817874   -0.181497
     22          6           0        1.791030    0.227154   -0.893649
     23          6           0        0.353458   -1.065624    0.782122
     24          1           0        0.876714   -1.977690    0.469407
     25          1           0       -0.695214   -1.334904    0.961360
     26          8           0        2.288674   -0.440179   -1.804093
     27          6           0        0.971300   -0.545708    2.092045
     28          1           0        2.037653   -0.345565    1.934594
     29          6           0        0.292387    0.734360    2.597426
     30          1           0       -0.779250    0.570284    2.765766
     31          1           0        0.736916    1.052290    3.545424
     32          1           0        0.379530    1.579620    1.901152
     33          6           0        0.885735   -1.643645    3.159504
     34          1           0       -0.157468   -1.880586    3.403311
     35          1           0        1.369575   -2.565489    2.816325
     36          1           0        1.387278   -1.320337    4.076110
     37          7           0        2.423130    1.238279   -0.275751
     38          1           0        1.966616    1.695844    0.500856
     39          6           0        3.848641    1.507777   -0.485269
     40          1           0        4.029754    2.490796   -0.032888
     41          6           0        4.167235    1.671223   -1.973459
     42          6           0        4.730805    0.457721    0.200417
     43          1           0        4.733966   -0.454833   -0.403816
     44          1           0        4.250602    0.216230    1.152922
     45          8           0        5.175381    1.271202   -2.503222
     46          6           0        6.162833    0.927163    0.471351
     47          1           0        6.698498    1.086686   -0.469574
     48          1           0        6.136846    1.896861    0.992446
     49          6           0        6.940365   -0.074159    1.338385
     50          1           0        7.951561    0.306499    1.520513
     51          1           0        7.040502   -1.025161    0.809351
     52          7           0        6.293687   -0.340400    2.628863
     53          1           0        5.947440    0.493860    3.091265
     54          7           0        5.811626   -2.589209    2.272438
     55          1           0        5.240373   -3.383513    2.530593
     56          1           0        6.801725   -2.775121    2.388569
     57          7           0        4.251082   -1.136492    3.376992
     58          1           0        3.765373   -2.009218    3.591146
     59          6           0        5.380295   -1.372527    2.799167
     60          8           0        3.223377    2.393885   -2.616186
     61          1           0        3.530287    2.474757   -3.539184
     62          1           0       -1.242519   -0.613337   -8.751653
 ---------------------------------------------------------------------

 SCF Done:  E(RB3LYP) =  -1447.49394206     A.U. after    1 cycles

 Alpha  occ. eigenvalues --  -19.30640 -19.28051 -19.27211 -19.25298 -19.22830
 Alpha  occ. eigenvalues --  -19.21585 -14.60844 -14.50420 -14.46974 -14.41285
 Alpha  occ. eigenvalues --  -14.40260 -14.34896 -10.44603 -10.43789 -10.42055
 Alpha  occ. eigenvalues --  -10.39928 -10.39713 -10.35164 -10.35140 -10.34378
 Alpha  occ. eigenvalues --  -10.34241 -10.32966 -10.28769 -10.28086 -10.27487
 Alpha  occ. eigenvalues --  -10.26097 -10.25613 -10.25115 -10.24978  -1.21755
 Alpha  occ. eigenvalues --   -1.20495  -1.18298  -1.15101  -1.14545  -1.12994
 Alpha  occ. eigenvalues --   -1.09267  -1.07232  -1.03756  -1.03431  -0.96169
 Alpha  occ. eigenvalues --   -0.94882  -0.91578  -0.90507  -0.88863  -0.87716
 Alpha  occ. eigenvalues --   -0.84919  -0.81497  -0.80121  -0.77131  -0.76272
 Alpha  occ. eigenvalues --   -0.75331  -0.74890  -0.73791  -0.72810  -0.71533
 Alpha  occ. eigenvalues --   -0.70608  -0.68137  -0.67458  -0.66137  -0.65598
 Alpha  occ. eigenvalues --   -0.64980  -0.64499  -0.62157  -0.61585  -0.60511
 Alpha  occ. eigenvalues --   -0.60311  -0.59068  -0.59011  -0.58617  -0.57425
 Alpha  occ. eigenvalues --   -0.57196  -0.56953  -0.55875  -0.55385  -0.54563
 Alpha  occ. eigenvalues --   -0.53824  -0.53603  -0.53398  -0.52473  -0.52023
 Alpha  occ. eigenvalues --   -0.51928  -0.51772  -0.51214  -0.50992  -0.49835
 Alpha  occ. eigenvalues --   -0.49676  -0.49467  -0.48623  -0.47981  -0.47551
 Alpha  occ. eigenvalues --   -0.46663  -0.46252  -0.45528  -0.44964  -0.44427
 Alpha  occ. eigenvalues --   -0.43387  -0.43104  -0.42929  -0.42586  -0.41683
 Alpha  occ. eigenvalues --   -0.41555  -0.40716  -0.40550  -0.39277  -0.39225
 Alpha  occ. eigenvalues --   -0.39031  -0.36760  -0.36550  -0.34643  -0.32696
 Alpha  occ. eigenvalues --   -0.31985  -0.28766
 Alpha virt. eigenvalues --   -0.13293  -0.12479  -0.10251  -0.08588  -0.07404
 Alpha virt. eigenvalues --   -0.07118  -0.05372  -0.02866  -0.02737  -0.02157
 Alpha virt. eigenvalues --   -0.01843  -0.01793  -0.00382  -0.00092   0.00520

 Mulliken charges:
               1
     1  N   -0.762474
     2  H    0.417022
     3  H    0.439435
     4  H    0.412693
     5  C   -0.111333
     6  H    0.220128
     7  C    0.662325
     8  C   -0.303645
     9  H    0.223934
    10  H    0.192635
    11  O   -0.548036
    12  C   -0.378953
    13  H    0.204321
    14  H    0.171070
    15  C    0.599984
    16  O   -0.437352
    17  O   -0.555528
    18  N   -0.608570
    19  H    0.377410
    20  C   -0.073588
    21  H    0.191425
    22  C    0.644084
    23  C   -0.257086
    24  H    0.152458
    25  H    0.159404
    26  O   -0.545450
    27  C   -0.108467
    28  H    0.174692
    29  C   -0.463716
    30  H    0.156575
    31  H    0.178377
    32  H    0.118723
    33  C   -0.447382
    34  H    0.142472
    35  H    0.137114
    36  H    0.177844
    37  N   -0.605093
    38  H    0.356322
    39  C   -0.056945
    40  H    0.182726
    41  C    0.618008
    42  C   -0.284076
    43  H    0.177930
    44  H    0.184123
    45  O   -0.449061
    46  C   -0.287890
    47  H    0.180856
    48  H    0.127538
    49  C   -0.156515
    50  H    0.160702
    51  H    0.168765
    52  N   -0.566090
    53  H    0.325011
    54  N   -0.737647
    55  H    0.325312
    56  H    0.338302
    57  N   -0.667136
    58  H    0.266140
    59  C    0.564245
    60  O   -0.572021
    61  H    0.419995
    62  H    0.433955
 Sum of Mulliken charges =   1.00000

 Dipole moment (field-independent basis, Debye):
    X=             -6.7793    Y=             -6.4168    Z=            -12.0952  Tot=             15.2784
 Quadrupole moment (field-independent basis, Debye-Ang):
   XX=           -106.2511   YY=           -140.6282   ZZ=            -98.9341
   XY=             15.4171   XZ=             56.7287   YZ=             15.5204

 Normal termination of Gaussian 16 at Thu Jun 23 05:54:18 2022.
