 Gaussian 16, Revision C.01,
 Gaussian 16:  ES64L-G16RevC.01  3-Jul-2019

 ----------------------------------------------------------------------
 # B3LYP/6-31G* empiricaldispersion=gd3bj guess=read geom=check nosymm
 integral(ultrafinegrid)
 ----------------------------------------------------------------------

 ------------------------------------------------------
 Candidate Structure: Conf:197 Charge calc in gas phase
 ------------------------------------------------------
 Structure from the checkpoint file:  "conf-197.chk"
 Charge =  1 Multiplicity = 1

                          Input orientation:
 ---------------------------------------------------------------------
 Center     Atomic      Atomic             Coordinates (Angstroms)
 Number     Number       Type             X           Y           Z
 ---------------------------------------------------------------------
      1          7           0       -2.196405    1.968369   -3.844324
      2          1           0       -2.725461    2.440328   -3.112674
      3          1           0        0.028217    3.065269   -3.643590
      4          1           0       -2.847438    1.790872   -4.607222
      5          6           0       -1.671327    0.693006   -3.352172
      6          1           0       -2.452471    0.014372   -2.965924
      7          6           0       -0.725843    1.014825   -2.181720
      8          6           0       -0.971767   -0.019722   -4.531147
      9          1           0       -0.220305    0.655186   -4.949372
     10          1           0       -1.731247   -0.179217   -5.305109
     11          8           0       -0.094420    2.076793   -2.113355
     12          6           0       -0.317765   -1.365020   -4.194769
     13          1           0       -1.006062   -2.049273   -3.689374
     14          1           0       -0.013045   -1.857375   -5.126371
     15          6           0        0.925121   -1.168663   -3.352135
     16          8           0        1.688464   -0.226438   -3.526247
     17          8           0        1.083137   -2.077036   -2.400921
     18          7           0       -0.632780    0.082966   -1.210841
     19          1           0       -1.148808   -0.782620   -1.294768
     20          6           0        0.146471    0.289263    0.010315
     21          1           0       -0.188104    1.235138    0.446732
     22          6           0        1.662065    0.387862   -0.258547
     23          6           0       -0.128962   -0.864540    0.982418
     24          1           0        0.130134   -1.802253    0.475314
     25          1           0       -1.208705   -0.883343    1.183878
     26          8           0        2.345919   -0.583142   -0.612315
     27          6           0        0.634296   -0.787334    2.316845
     28          1           0        1.707469   -0.852129    2.091519
     29          6           0        0.374575    0.523083    3.073068
     30          1           0       -0.700405    0.684279    3.223992
     31          1           0        0.843857    0.490890    4.061683
     32          1           0        0.783890    1.397496    2.555740
     33          6           0        0.264359   -1.999869    3.180129
     34          1           0       -0.798418   -1.977567    3.451513
     35          1           0        0.458814   -2.940925    2.653584
     36          1           0        0.844383   -2.007368    4.108485
     37          7           0        2.190966    1.592396    0.004289
     38          1           0        1.582597    2.343048    0.307128
     39          6           0        3.608848    1.902371    0.019796
     40          1           0        4.165670    0.973537    0.170488
     41          6           0        3.837051    2.831259    1.207146
     42          6           0        4.060804    2.590425   -1.289707
     43          1           0        5.002144    3.120026   -1.110950
     44          1           0        3.303566    3.346851   -1.530360
     45          8           0        2.950283    3.415416    1.791125
     46          6           0        4.224812    1.605971   -2.459033
     47          1           0        5.251084    1.223815   -2.481950
     48          1           0        3.574382    0.736019   -2.335976
     49          6           0        3.915109    2.247593   -3.814925
     50          1           0        4.269353    1.604147   -4.628830
     51          1           0        4.414155    3.218764   -3.902667
     52          7           0        2.469179    2.446509   -3.942031
     53          1           0        1.897079    1.660208   -3.632294
     54          7           0        2.526204    4.356422   -5.273721
     55          1           0        2.110893    5.239669   -5.528069
     56          1           0        3.449497    4.151687   -5.622172
     57          7           0        0.527354    3.616247   -4.357390
     58          1           0       -0.017642    4.153880   -5.014167
     59          6           0        1.843356    3.463944   -4.525838
     60          8           0        5.142222    2.953583    1.495374
     61          1           0        5.220043    3.581281    2.239795
     62          1           0        1.751236   -1.715370   -1.749278
 ---------------------------------------------------------------------

 SCF Done:  E(RB3LYP) =  -1447.58389907     A.U. after    1 cycles

 Alpha  occ. eigenvalues --  -19.29863 -19.27883 -19.24415 -19.24087 -19.23976
 Alpha  occ. eigenvalues --  -19.23149 -14.50301 -14.48759 -14.48333 -14.47752
 Alpha  occ. eigenvalues --  -14.47158 -14.43385 -10.45592 -10.42386 -10.42190
 Alpha  occ. eigenvalues --  -10.40699 -10.40070 -10.34406 -10.34403 -10.34293
 Alpha  occ. eigenvalues --  -10.34265 -10.30379 -10.30339 -10.29605 -10.28824
 Alpha  occ. eigenvalues --  -10.28525 -10.27490 -10.25186 -10.24738  -1.20945
 Alpha  occ. eigenvalues --   -1.19960  -1.15955  -1.14673  -1.14114  -1.12088
 Alpha  occ. eigenvalues --   -1.10952  -1.04589  -1.03943  -1.03601  -1.01984
 Alpha  occ. eigenvalues --   -1.00551  -0.91608  -0.90520  -0.89840  -0.86916
 Alpha  occ. eigenvalues --   -0.84710  -0.81142  -0.79768  -0.76504  -0.76235
 Alpha  occ. eigenvalues --   -0.75731  -0.75171  -0.72463  -0.71331  -0.70879
 Alpha  occ. eigenvalues --   -0.70040  -0.69542  -0.68226  -0.67756  -0.64871
 Alpha  occ. eigenvalues --   -0.63894  -0.63449  -0.62368  -0.62215  -0.61053
 Alpha  occ. eigenvalues --   -0.60322  -0.60127  -0.59169  -0.59056  -0.58650
 Alpha  occ. eigenvalues --   -0.58205  -0.57550  -0.57082  -0.56665  -0.55586
 Alpha  occ. eigenvalues --   -0.54744  -0.54363  -0.53996  -0.53196  -0.52543
 Alpha  occ. eigenvalues --   -0.52260  -0.51882  -0.51197  -0.51001  -0.50614
 Alpha  occ. eigenvalues --   -0.49680  -0.49351  -0.48724  -0.48384  -0.47263
 Alpha  occ. eigenvalues --   -0.47018  -0.46580  -0.45960  -0.45918  -0.45180
 Alpha  occ. eigenvalues --   -0.45010  -0.44724  -0.44484  -0.41949  -0.41538
 Alpha  occ. eigenvalues --   -0.41383  -0.41044  -0.40846  -0.40744  -0.39416
 Alpha  occ. eigenvalues --   -0.38474  -0.38266  -0.37778  -0.37552  -0.36253
 Alpha  occ. eigenvalues --   -0.35965  -0.35795
 Alpha virt. eigenvalues --   -0.10807  -0.09905  -0.09717  -0.09112  -0.08869
 Alpha virt. eigenvalues --   -0.05823  -0.03815  -0.02417  -0.02137  -0.01729
 Alpha virt. eigenvalues --   -0.01039   0.00432   0.00740   0.01183   0.01332

 Mulliken charges:
               1
     1  N   -0.742372
     2  H    0.321560
     3  H    0.454835
     4  H    0.320102
     5  C   -0.062472
     6  H    0.139735
     7  C    0.624288
     8  C   -0.271755
     9  H    0.169408
    10  H    0.163139
    11  O   -0.562838
    12  C   -0.362682
    13  H    0.173827
    14  H    0.204883
    15  C    0.605873
    16  O   -0.508661
    17  O   -0.585357
    18  N   -0.609680
    19  H    0.351712
    20  C   -0.026479
    21  H    0.172544
    22  C    0.675168
    23  C   -0.307919
    24  H    0.163725
    25  H    0.151945
    26  O   -0.584580
    27  C   -0.090410
    28  H    0.147758
    29  C   -0.459912
    30  H    0.147846
    31  H    0.164659
    32  H    0.143173
    33  C   -0.447234
    34  H    0.149107
    35  H    0.151975
    36  H    0.160316
    37  N   -0.571253
    38  H    0.364290
    39  C   -0.064592
    40  H    0.213185
    41  C    0.588251
    42  C   -0.272700
    43  H    0.177482
    44  H    0.156515
    45  O   -0.457486
    46  C   -0.319173
    47  H    0.169066
    48  H    0.217136
    49  C   -0.159378
    50  H    0.185085
    51  H    0.159905
    52  N   -0.616615
    53  H    0.418369
    54  N   -0.766013
    55  H    0.374151
    56  H    0.378212
    57  N   -0.797332
    58  H    0.356295
    59  C    0.791418
    60  O   -0.554901
    61  H    0.431216
    62  H    0.463639
 Sum of Mulliken charges =   1.00000

 Dipole moment (field-independent basis, Debye):
    X=              4.9901    Y=             10.8165    Z=            -14.9850  Tot=             19.1429
 Quadrupole moment (field-independent basis, Debye-Ang):
   XX=           -118.5216   YY=           -121.4812   ZZ=            -77.9700
   XY=             34.2088   XZ=             -9.6974   YZ=            -50.5015

 Normal termination of Gaussian 16 at Thu Jun 23 05:54:23 2022.
