 Gaussian 16, Revision C.01,
 Gaussian 16:  ES64L-G16RevC.01  3-Jul-2019

 ----------------------------------------------------------------------
 # B3LYP/6-31G* empiricaldispersion=gd3bj guess=read geom=check nosymm
 integral(ultrafinegrid)
 ----------------------------------------------------------------------

 ------------------------------------------------------
 Candidate Structure: Conf:156 Charge calc in gas phase
 ------------------------------------------------------
 Structure from the checkpoint file:  "conf-156.chk"
 Charge =  1 Multiplicity = 1

                          Input orientation:
 ---------------------------------------------------------------------
 Center     Atomic      Atomic             Coordinates (Angstroms)
 Number     Number       Type             X           Y           Z
 ---------------------------------------------------------------------
      1          7           0       -2.731093   -1.173968   -3.875056
      2          1           0       -3.162444   -1.899758   -3.294095
      3          1           0       -3.270768   -0.315396   -3.705340
      4          1           0       -2.716392   -1.497824   -4.874009
      5          6           0       -1.304301   -0.928257   -3.456045
      6          1           0       -0.798147   -1.893365   -3.529166
      7          6           0       -1.387487   -0.394229   -2.018043
      8          6           0       -0.630837    0.134757   -4.343573
      9          1           0        0.449899    0.092170   -4.170507
     10          1           0       -0.959227    1.124037   -4.005752
     11          8           0       -2.407146    0.213680   -1.686860
     12          6           0       -0.858432    0.074112   -5.873114
     13          1           0       -1.823049    0.523546   -6.138539
     14          1           0       -0.052699    0.661488   -6.319634
     15          6           0       -0.873518   -1.322371   -6.439611
     16          8           0       -1.744471   -2.150232   -6.173735
     17          8           0        0.134923   -1.595864   -7.259418
     18          7           0       -0.296837   -0.594137   -1.270712
     19          1           0        0.540834   -1.008494   -1.678591
     20          6           0        0.006865    0.148870   -0.047034
     21          1           0       -0.665484    1.009269   -0.003099
     22          6           0        1.466138    0.591649   -0.237031
     23          6           0       -0.131168   -0.714909    1.218737
     24          1           0        0.211597   -0.117131    2.074496
     25          1           0        0.566483   -1.556592    1.125579
     26          8           0        2.229078   -0.104245   -0.909408
     27          6           0       -1.550919   -1.234994    1.497758
     28          1           0       -1.886800   -1.786754    0.607678
     29          6           0       -1.513586   -2.214822    2.677522
     30          1           0       -1.183224   -1.710022    3.593689
     31          1           0       -2.507502   -2.632252    2.869797
     32          1           0       -0.827148   -3.047891    2.488081
     33          6           0       -2.544722   -0.096366    1.759599
     34          1           0       -2.210627    0.525998    2.599792
     35          1           0       -2.678905    0.541550    0.881070
     36          1           0       -3.528340   -0.499992    2.022376
     37          7           0        1.824951    1.750088    0.352564
     38          1           0        1.163220    2.255102    0.926333
     39          6           0        3.174887    2.286811    0.226264
     40          1           0        3.837880    1.436643    0.044297
     41          6           0        3.644275    2.965326    1.504096
     42          6           0        3.313359    3.277960   -0.954116
     43          1           0        4.365615    3.579655   -0.997215
     44          1           0        2.730249    4.183153   -0.735892
     45          8           0        4.773359    3.353759    1.672937
     46          6           0        2.863576    2.670880   -2.284236
     47          1           0        3.369662    1.714709   -2.450456
     48          1           0        1.788946    2.450656   -2.240236
     49          6           0        3.117715    3.585170   -3.486408
     50          1           0        4.190446    3.765607   -3.604463
     51          1           0        2.653951    4.566644   -3.340228
     52          7           0        2.577583    3.039106   -4.737447
     53          1           0        1.564763    3.058560   -4.776206
     54          7           0        4.409182    1.688427   -5.212100
     55          1           0        4.777958    0.885843   -5.704415
     56          1           0        4.944714    2.532630   -5.375055
     57          7           0        2.177903    0.949259   -5.655416
     58          1           0        2.647773    0.188186   -6.148564
     59          6           0        3.031606    1.827712   -5.239245
     60          8           0        2.647046    3.135907    2.406608
     61          1           0        3.035249    3.606454    3.169279
     62          1           0        0.020376   -2.510036   -7.588962
 ---------------------------------------------------------------------

 SCF Done:  E(RB3LYP) =  -1447.52006302     A.U. after    3 cycles

 Alpha  occ. eigenvalues --  -19.33224 -19.29264 -19.28332 -19.25228 -19.22900
 Alpha  occ. eigenvalues --  -19.22539 -14.58700 -14.48740 -14.47074 -14.43847
 Alpha  occ. eigenvalues --  -14.43212 -14.38055 -10.46167 -10.42559 -10.41336
 Alpha  occ. eigenvalues --  -10.39841 -10.39653 -10.37421 -10.34418 -10.33594
 Alpha  occ. eigenvalues --  -10.33516 -10.32516 -10.30825 -10.28456 -10.28366
 Alpha  occ. eigenvalues --  -10.27602 -10.27216 -10.25001 -10.24995  -1.24566
 Alpha  occ. eigenvalues --   -1.19888  -1.17814  -1.15522  -1.14699  -1.12902
 Alpha  occ. eigenvalues --   -1.10884  -1.06693  -1.05516  -1.03572  -0.97600
 Alpha  occ. eigenvalues --   -0.94438  -0.93387  -0.91118  -0.89113  -0.87845
 Alpha  occ. eigenvalues --   -0.85026  -0.82988  -0.79129  -0.76815  -0.76148
 Alpha  occ. eigenvalues --   -0.75358  -0.74298  -0.72462  -0.71824  -0.71484
 Alpha  occ. eigenvalues --   -0.71235  -0.69605  -0.69158  -0.68370  -0.66134
 Alpha  occ. eigenvalues --   -0.64161  -0.63871  -0.62677  -0.62228  -0.61874
 Alpha  occ. eigenvalues --   -0.60406  -0.60355  -0.59444  -0.58655  -0.58076
 Alpha  occ. eigenvalues --   -0.57179  -0.56927  -0.56578  -0.56414  -0.56178
 Alpha  occ. eigenvalues --   -0.54833  -0.54267  -0.53802  -0.53250  -0.52811
 Alpha  occ. eigenvalues --   -0.52680  -0.51957  -0.51290  -0.50810  -0.50173
 Alpha  occ. eigenvalues --   -0.49627  -0.49459  -0.48911  -0.48234  -0.48072
 Alpha  occ. eigenvalues --   -0.47608  -0.47158  -0.46222  -0.45910  -0.45404
 Alpha  occ. eigenvalues --   -0.45324  -0.44720  -0.44314  -0.42750  -0.42117
 Alpha  occ. eigenvalues --   -0.41625  -0.41136  -0.41001  -0.40904  -0.39381
 Alpha  occ. eigenvalues --   -0.38615  -0.37734  -0.36438  -0.36169  -0.35188
 Alpha  occ. eigenvalues --   -0.34449  -0.31757
 Alpha virt. eigenvalues --   -0.13422  -0.11496  -0.08983  -0.08399  -0.07923
 Alpha virt. eigenvalues --   -0.04590  -0.04281  -0.04066  -0.03008  -0.02610
 Alpha virt. eigenvalues --   -0.02321  -0.00858  -0.00575   0.00093   0.00955

 Mulliken charges:
               1
     1  N   -0.741045
     2  H    0.411888
     3  H    0.411100
     4  H    0.436170
     5  C   -0.133334
     6  H    0.209135
     7  C    0.631608
     8  C   -0.305379
     9  H    0.235992
    10  H    0.182526
    11  O   -0.529632
    12  C   -0.386454
    13  H    0.181630
    14  H    0.252000
    15  C    0.608075
    16  O   -0.505931
    17  O   -0.519224
    18  N   -0.589926
    19  H    0.365826
    20  C   -0.089640
    21  H    0.182269
    22  C    0.639309
    23  C   -0.254107
    24  H    0.151355
    25  H    0.157398
    26  O   -0.540197
    27  C   -0.069146
    28  H    0.117457
    29  C   -0.445983
    30  H    0.152249
    31  H    0.156272
    32  H    0.147883
    33  C   -0.467143
    34  H    0.142379
    35  H    0.165278
    36  H    0.157281
    37  N   -0.609297
    38  H    0.356015
    39  C   -0.066213
    40  H    0.220525
    41  C    0.597847
    42  C   -0.271218
    43  H    0.183769
    44  H    0.145885
    45  O   -0.438772
    46  C   -0.267223
    47  H    0.185860
    48  H    0.118806
    49  C   -0.155879
    50  H    0.160494
    51  H    0.160653
    52  N   -0.563534
    53  H    0.318386
    54  N   -0.738066
    55  H    0.337254
    56  H    0.346379
    57  N   -0.688439
    58  H    0.276390
    59  C    0.590211
    60  O   -0.583527
    61  H    0.430205
    62  H    0.435551
 Sum of Mulliken charges =   1.00000

 Dipole moment (field-independent basis, Debye):
    X=             -1.9258    Y=             -0.0666    Z=            -15.9297  Tot=             16.0458
 Quadrupole moment (field-independent basis, Debye-Ang):
   XX=           -141.3791   YY=           -142.8525   ZZ=            -65.1381
   XY=             18.3507   XZ=              0.7957   YZ=             17.9516

 Normal termination of Gaussian 16 at Thu Jun 23 05:54:42 2022.
