 Gaussian 16, Revision C.01,
 Gaussian 16:  ES64L-G16RevC.01  3-Jul-2019

 ----------------------------------------------------------------------
 # B3LYP/6-31G* empiricaldispersion=gd3bj guess=read geom=check nosymm
 integral(ultrafinegrid)
 ----------------------------------------------------------------------

 ------------------------------------------------------
 Candidate Structure: Conf:883 Charge calc in gas phase
 ------------------------------------------------------
 Structure from the checkpoint file:  "conf-883.chk"
 Charge =  1 Multiplicity = 1

                          Input orientation:
 ---------------------------------------------------------------------
 Center     Atomic      Atomic             Coordinates (Angstroms)
 Number     Number       Type             X           Y           Z
 ---------------------------------------------------------------------
      1          7           0       -2.579935   -0.505502   -4.300536
      2          1           0       -3.582344   -0.500114   -4.091126
      3          1           0       -2.208027    0.487810   -4.206752
      4          1           0       -2.442489   -0.871849   -5.246249
      5          6           0       -1.760189   -1.225497   -3.247303
      6          1           0       -2.393816   -1.937730   -2.721171
      7          6           0       -1.306763   -0.055227   -2.342645
      8          6           0       -0.582405   -1.924991   -3.953892
      9          1           0       -0.065818   -1.181956   -4.573404
     10          1           0       -0.998116   -2.689868   -4.622739
     11          8           0       -1.307012    1.079312   -2.844574
     12          6           0        0.479279   -2.560061   -3.036457
     13          1           0        1.215860   -3.072463   -3.658207
     14          1           0        1.000858   -1.764813   -2.484918
     15          6           0       -0.090357   -3.520593   -2.023409
     16          8           0       -0.999610   -3.244301   -1.249441
     17          8           0        0.509662   -4.711135   -2.028235
     18          7           0       -0.944809   -0.365604   -1.104205
     19          1           0       -0.949693   -1.355652   -0.854350
     20          6           0       -0.192402    0.567933   -0.271318
     21          1           0       -0.772265    1.491030   -0.184418
     22          6           0        1.151267    0.869289   -0.964853
     23          6           0        0.013015   -0.082247    1.113286
     24          1           0        0.559472   -1.022431    0.959560
     25          1           0       -0.981966   -0.344788    1.497937
     26          8           0        1.667171    0.089324   -1.764124
     27          6           0        0.761710    0.755624    2.165335
     28          1           0        1.765330    0.961984    1.781737
     29          6           0        0.063097    2.083086    2.491436
     30          1           0       -0.901984    1.907918    2.983304
     31          1           0        0.693083    2.683526    3.154323
     32          1           0       -0.141470    2.699347    1.604810
     33          6           0        0.935905   -0.076748    3.441985
     34          1           0       -0.035070   -0.348654    3.875253
     35          1           0        1.490169   -0.999939    3.239866
     36          1           0        1.492107    0.490319    4.195019
     37          7           0        1.730378    2.030942   -0.595919
     38          1           0        1.298790    2.561893    0.149125
     39          6           0        3.137905    2.308625   -0.850989
     40          1           0        3.300175    2.481133   -1.918225
     41          6           0        3.989555    1.111803   -0.424597
     42          6           0        3.509136    3.549468   -0.018474
     43          1           0        3.139081    3.380908    0.998742
     44          1           0        2.951655    4.404436   -0.421443
     45          8           0        3.780343    0.418854    0.545516
     46          6           0        4.998487    3.890225    0.055734
     47          1           0        5.550807    3.047788    0.491868
     48          1           0        5.419730    4.051366   -0.944609
     49          6           0        5.242296    5.139995    0.918851
     50          1           0        4.805191    6.017640    0.436260
     51          1           0        6.319874    5.317746    1.006212
     52          7           0        4.665562    5.033076    2.262894
     53          1           0        4.834271    4.138322    2.711513
     54          7           0        3.075877    6.720320    2.041917
     55          1           0        2.196071    7.103180    2.364293
     56          1           0        3.834729    7.388471    2.123432
     57          7           0        2.564047    4.661101    3.167313
     58          1           0        1.716235    5.156282    3.450615
     59          6           0        3.366110    5.448865    2.538011
     60          8           0        5.056730    0.963250   -1.231911
     61          1           0        5.585421    0.226650   -0.869436
     62          1           0        0.115855   -5.250148   -1.313502
 ---------------------------------------------------------------------

 SCF Done:  E(RB3LYP) =  -1447.51315016     A.U. after    1 cycles

 Alpha  occ. eigenvalues --  -19.31915 -19.27875 -19.26719 -19.26636 -19.22145
 Alpha  occ. eigenvalues --  -19.21916 -14.60399 -14.48747 -14.45681 -14.41538
 Alpha  occ. eigenvalues --  -14.40651 -14.35220 -10.44875 -10.43069 -10.40652
 Alpha  occ. eigenvalues --  -10.40176 -10.38667 -10.35075 -10.34645 -10.34060
 Alpha  occ. eigenvalues --  -10.32532 -10.31915 -10.28825 -10.28235 -10.27273
 Alpha  occ. eigenvalues --  -10.26373 -10.26371 -10.24776 -10.23948  -1.23153
 Alpha  occ. eigenvalues --   -1.19248  -1.18850  -1.14291  -1.13962  -1.13550
 Alpha  occ. eigenvalues --   -1.09789  -1.05938  -1.04052  -1.02586  -0.95277
 Alpha  occ. eigenvalues --   -0.95063  -0.90907  -0.90595  -0.87987  -0.87538
 Alpha  occ. eigenvalues --   -0.84290  -0.81717  -0.79884  -0.75882  -0.75321
 Alpha  occ. eigenvalues --   -0.74785  -0.74148  -0.73976  -0.72623  -0.70676
 Alpha  occ. eigenvalues --   -0.70455  -0.67336  -0.66988  -0.66418  -0.65257
 Alpha  occ. eigenvalues --   -0.64189  -0.63769  -0.62242  -0.60953  -0.60043
 Alpha  occ. eigenvalues --   -0.59783  -0.59498  -0.59314  -0.59158  -0.57595
 Alpha  occ. eigenvalues --   -0.56837  -0.56582  -0.55841  -0.55026  -0.54264
 Alpha  occ. eigenvalues --   -0.53924  -0.53111  -0.53009  -0.52889  -0.51953
 Alpha  occ. eigenvalues --   -0.51402  -0.51067  -0.50516  -0.50367  -0.49952
 Alpha  occ. eigenvalues --   -0.49676  -0.48794  -0.48442  -0.48156  -0.46552
 Alpha  occ. eigenvalues --   -0.46295  -0.45487  -0.45330  -0.45190  -0.44270
 Alpha  occ. eigenvalues --   -0.43930  -0.43475  -0.41918  -0.41582  -0.41500
 Alpha  occ. eigenvalues --   -0.40560  -0.40415  -0.40370  -0.40093  -0.39730
 Alpha  occ. eigenvalues --   -0.39163  -0.36771  -0.35552  -0.34685  -0.32966
 Alpha  occ. eigenvalues --   -0.32306  -0.29202
 Alpha virt. eigenvalues --   -0.12685  -0.11985  -0.10700  -0.08250  -0.06719
 Alpha virt. eigenvalues --   -0.06482  -0.03710  -0.02610  -0.02380  -0.01392
 Alpha virt. eigenvalues --   -0.01053  -0.00228   0.00117   0.00689   0.01588

 Mulliken charges:
               1
     1  N   -0.754810
     2  H    0.417869
     3  H    0.431881
     4  H    0.412199
     5  C   -0.120097
     6  H    0.232717
     7  C    0.655312
     8  C   -0.305002
     9  H    0.194104
    10  H    0.179968
    11  O   -0.548759
    12  C   -0.405011
    13  H    0.205526
    14  H    0.269234
    15  C    0.604965
    16  O   -0.494651
    17  O   -0.529326
    18  N   -0.618786
    19  H    0.398283
    20  C   -0.070687
    21  H    0.187136
    22  C    0.661653
    23  C   -0.288760
    24  H    0.155382
    25  H    0.156143
    26  O   -0.542355
    27  C   -0.113799
    28  H    0.178641
    29  C   -0.477771
    30  H    0.147124
    31  H    0.201087
    32  H    0.115422
    33  C   -0.447239
    34  H    0.141259
    35  H    0.150759
    36  H    0.166898
    37  N   -0.617950
    38  H    0.361592
    39  C    0.007422
    40  H    0.188027
    41  C    0.596422
    42  C   -0.337356
    43  H    0.196090
    44  H    0.166237
    45  O   -0.461765
    46  C   -0.281698
    47  H    0.149683
    48  H    0.155524
    49  C   -0.155032
    50  H    0.167868
    51  H    0.162606
    52  N   -0.566218
    53  H    0.330052
    54  N   -0.739986
    55  H    0.328381
    56  H    0.338668
    57  N   -0.659473
    58  H    0.267927
    59  C    0.562447
    60  O   -0.558898
    61  H    0.420131
    62  H    0.432789
 Sum of Mulliken charges =   1.00000

 Dipole moment (field-independent basis, Debye):
    X=             -3.5777    Y=              0.3172    Z=            -12.8893  Tot=             13.3804
 Quadrupole moment (field-independent basis, Debye-Ang):
   XX=           -118.2636   YY=           -101.9082   ZZ=           -108.5311
   XY=             27.4894   XZ=             34.6811   YZ=             28.8465

 Normal termination of Gaussian 16 at Thu Jun 23 05:54:20 2022.
