 Gaussian 16, Revision C.01,
 Gaussian 16:  ES64L-G16RevC.01  3-Jul-2019

 ----------------------------------------------------------------------
 # B3LYP/6-31G* empiricaldispersion=gd3bj guess=read geom=check nosymm
 integral(ultrafinegrid)
 ----------------------------------------------------------------------

 ------------------------------------------------------
 Candidate Structure: Conf:962 Charge calc in gas phase
 ------------------------------------------------------
 Structure from the checkpoint file:  "conf-962.chk"
 Charge =  1 Multiplicity = 1

                          Input orientation:
 ---------------------------------------------------------------------
 Center     Atomic      Atomic             Coordinates (Angstroms)
 Number     Number       Type             X           Y           Z
 ---------------------------------------------------------------------
      1          7           0       -1.787150    0.250292   -4.564315
      2          1           0       -2.810670    0.286718   -4.544589
      3          1           0       -1.409926    1.160029   -4.167093
      4          1           0       -1.481369    0.106326   -5.530583
      5          6           0       -1.214382   -0.762481   -3.591592
      6          1           0       -1.954770   -1.537690   -3.400618
      7          6           0       -0.930605    0.110352   -2.347858
      8          6           0        0.073755   -1.342359   -4.208820
      9          1           0        0.718868   -0.505068   -4.501304
     10          1           0       -0.204780   -1.886966   -5.120374
     11          8           0       -0.782497    1.328364   -2.534297
     12          6           0        0.911246   -2.256104   -3.293918
     13          1           0        1.752875   -2.646779   -3.868933
     14          1           0        1.319587   -1.662002   -2.463613
     15          6           0        0.126798   -3.397828   -2.697620
     16          8           0       -0.912414   -3.259688   -2.061983
     17          8           0        0.684661   -4.589406   -2.908579
     18          7           0       -0.845032   -0.522582   -1.184470
     19          1           0       -0.933128   -1.540198   -1.206000
     20          6           0       -0.238043    0.108431   -0.012714
     21          1           0       -0.836809    0.984028    0.259031
     22          6           0        1.184509    0.559668   -0.394155
     23          6           0       -0.248871   -0.909133    1.143012
     24          1           0        0.239568   -1.830924    0.798845
     25          1           0       -1.300387   -1.156839    1.331847
     26          8           0        1.876760   -0.099897   -1.171709
     27          6           0        0.423626   -0.428883    2.449220
     28          1           0        0.322308    0.663164    2.518143
     29          6           0       -0.288965   -1.034185    3.665587
     30          1           0       -0.257640   -2.130203    3.630020
     31          1           0        0.193528   -0.717693    4.595871
     32          1           0       -1.340107   -0.727519    3.708350
     33          6           0        1.919840   -0.774102    2.485620
     34          1           0        2.054876   -1.858562    2.579889
     35          1           0        2.450623   -0.457178    1.583878
     36          1           0        2.402373   -0.297350    3.344085
     37          7           0        1.593364    1.697161    0.195710
     38          1           0        1.024687    2.119272    0.920876
     39          6           0        2.974947    2.151708    0.159111
     40          1           0        3.601079    1.302188   -0.129808
     41          6           0        3.330726    2.580376    1.575594
     42          6           0        3.200226    3.307745   -0.836215
     43          1           0        4.255912    3.589978   -0.789385
     44          1           0        2.617668    4.179432   -0.511124
     45          8           0        2.517427    2.723305    2.466094
     46          6           0        2.811679    2.928320   -2.268481
     47          1           0        3.404751    2.060689   -2.588688
     48          1           0        1.760676    2.613482   -2.300607
     49          6           0        3.007001    4.078372   -3.268146
     50          1           0        2.400469    4.936873   -2.966931
     51          1           0        2.646573    3.762809   -4.255146
     52          7           0        4.391695    4.527634   -3.416959
     53          1           0        5.040594    3.766196   -3.592134
     54          7           0        4.178482    6.501471   -2.186789
     55          1           0        4.657530    7.211487   -1.646411
     56          1           0        3.704904    6.901606   -2.990177
     57          7           0        6.124042    5.095793   -1.997242
     58          1           0        6.508960    5.872223   -1.455888
     59          6           0        4.975867    5.392223   -2.488775
     60          8           0        4.643183    2.811688    1.711722
     61          1           0        4.793628    3.117148    2.626950
     62          1           0        0.141729   -5.263294   -2.452850
 ---------------------------------------------------------------------

 SCF Done:  E(RB3LYP) =  -1447.51077156     A.U. after    3 cycles

 Alpha  occ. eigenvalues --  -19.32401 -19.28554 -19.27393 -19.27241 -19.23176
 Alpha  occ. eigenvalues --  -19.22093 -14.61131 -14.49445 -14.46004 -14.41057
 Alpha  occ. eigenvalues --  -14.40197 -14.34419 -10.45387 -10.43764 -10.41292
 Alpha  occ. eigenvalues --  -10.41102 -10.39142 -10.35643 -10.34824 -10.33885
 Alpha  occ. eigenvalues --  -10.32621 -10.32423 -10.29121 -10.28929 -10.27930
 Alpha  occ. eigenvalues --  -10.26564 -10.25946 -10.25130 -10.25061  -1.23653
 Alpha  occ. eigenvalues --   -1.19920  -1.19707  -1.14948  -1.14465  -1.13876
 Alpha  occ. eigenvalues --   -1.10789  -1.06600  -1.03505  -1.02830  -0.95671
 Alpha  occ. eigenvalues --   -0.94840  -0.91382  -0.90312  -0.88214  -0.87999
 Alpha  occ. eigenvalues --   -0.84900  -0.82173  -0.80494  -0.76258  -0.75830
 Alpha  occ. eigenvalues --   -0.74928  -0.74776  -0.74643  -0.73138  -0.71105
 Alpha  occ. eigenvalues --   -0.70527  -0.68278  -0.67562  -0.66188  -0.65812
 Alpha  occ. eigenvalues --   -0.65172  -0.64326  -0.62802  -0.62411  -0.60559
 Alpha  occ. eigenvalues --   -0.60352  -0.59762  -0.58765  -0.58131  -0.57438
 Alpha  occ. eigenvalues --   -0.57349  -0.56823  -0.56268  -0.55528  -0.54821
 Alpha  occ. eigenvalues --   -0.54331  -0.53770  -0.53213  -0.53105  -0.52554
 Alpha  occ. eigenvalues --   -0.52077  -0.51556  -0.51148  -0.50776  -0.50292
 Alpha  occ. eigenvalues --   -0.50198  -0.48848  -0.48264  -0.48207  -0.47777
 Alpha  occ. eigenvalues --   -0.46860  -0.46243  -0.45122  -0.44777  -0.44672
 Alpha  occ. eigenvalues --   -0.44579  -0.44126  -0.42402  -0.41749  -0.41423
 Alpha  occ. eigenvalues --   -0.41337  -0.41075  -0.41032  -0.40824  -0.40539
 Alpha  occ. eigenvalues --   -0.39899  -0.36958  -0.35808  -0.35532  -0.32354
 Alpha  occ. eigenvalues --   -0.31713  -0.28625
 Alpha virt. eigenvalues --   -0.13418  -0.12618  -0.11266  -0.08343  -0.07754
 Alpha virt. eigenvalues --   -0.07065  -0.04257  -0.03097  -0.02447  -0.01501
 Alpha virt. eigenvalues --   -0.01123  -0.00551  -0.00103   0.00509   0.00771

 Mulliken charges:
               1
     1  N   -0.753110
     2  H    0.419622
     3  H    0.430953
     4  H    0.413612
     5  C   -0.120963
     6  H    0.233593
     7  C    0.655311
     8  C   -0.305700
     9  H    0.193628
    10  H    0.181742
    11  O   -0.548666
    12  C   -0.405955
    13  H    0.207865
    14  H    0.268499
    15  C    0.605271
    16  O   -0.495785
    17  O   -0.527524
    18  N   -0.620943
    19  H    0.400489
    20  C   -0.051611
    21  H    0.181346
    22  C    0.648641
    23  C   -0.299231
    24  H    0.154381
    25  H    0.164678
    26  O   -0.551927
    27  C   -0.088665
    28  H    0.137906
    29  C   -0.450844
    30  H    0.150015
    31  H    0.164771
    32  H    0.148324
    33  C   -0.459463
    34  H    0.149790
    35  H    0.151258
    36  H    0.166801
    37  N   -0.583617
    38  H    0.359032
    39  C   -0.064969
    40  H    0.205298
    41  C    0.596536
    42  C   -0.277879
    43  H    0.208460
    44  H    0.149952
    45  O   -0.474377
    46  C   -0.275610
    47  H    0.142376
    48  H    0.146351
    49  C   -0.150975
    50  H    0.158519
    51  H    0.136001
    52  N   -0.562740
    53  H    0.326131
    54  N   -0.741493
    55  H    0.328263
    56  H    0.331731
    57  N   -0.633311
    58  H    0.269991
    59  C    0.543920
    60  O   -0.547413
    61  H    0.428139
    62  H    0.433573
 Sum of Mulliken charges =   1.00000

 Dipole moment (field-independent basis, Debye):
    X=             -4.0683    Y=              0.2763    Z=            -14.5376  Tot=             15.0986
 Quadrupole moment (field-independent basis, Debye-Ang):
   XX=           -159.0653   YY=           -114.6712   ZZ=            -82.6846
   XY=             15.6301   XZ=             37.4036   YZ=              6.1329

 Normal termination of Gaussian 16 at Thu Jun 23 05:54:44 2022.
