 Gaussian 16, Revision C.01,
 Gaussian 16:  ES64L-G16RevC.01  3-Jul-2019

 ----------------------------------------------------------------------
 # B3LYP/6-31G* empiricaldispersion=gd3bj guess=read geom=check nosymm
 integral(ultrafinegrid)
 ----------------------------------------------------------------------

 ------------------------------------------------------
 Candidate Structure: Conf:669 Charge calc in gas phase
 ------------------------------------------------------
 Structure from the checkpoint file:  "conf-669.chk"
 Charge =  1 Multiplicity = 1

                          Input orientation:
 ---------------------------------------------------------------------
 Center     Atomic      Atomic             Coordinates (Angstroms)
 Number     Number       Type             X           Y           Z
 ---------------------------------------------------------------------
      1          7           0       -2.335190   -0.455423   -4.327291
      2          1           0       -3.018480   -1.205606   -4.463612
      3          1           0       -2.765343    0.289124   -3.711087
      4          1           0       -2.074760   -0.078769   -5.243992
      5          6           0       -1.129039   -0.882832   -3.519696
      6          1           0       -1.054797   -1.971908   -3.553597
      7          6           0       -1.432143   -0.326552   -2.109786
      8          6           0        0.140622   -0.193814   -4.039608
      9          1           0        0.952847   -0.467755   -3.357452
     10          1           0        0.019889    0.890334   -3.940783
     11          8           0       -2.311370    0.538524   -2.010084
     12          6           0        0.550513   -0.528768   -5.477515
     13          1           0        0.708524   -1.600640   -5.622562
     14          1           0       -0.208632   -0.198921   -6.204234
     15          6           0        1.857968    0.198829   -5.829285
     16          8           0        2.779089   -0.359180   -6.388984
     17          8           0        1.827054    1.461782   -5.433822
     18          7           0       -0.634128   -0.764658   -1.135024
     19          1           0        0.151847   -1.362711   -1.393311
     20          6           0       -0.288706    0.045817    0.038997
     21          1           0       -0.838371    0.986497   -0.034824
     22          6           0        1.228597    0.281344   -0.114431
     23          6           0       -0.608197   -0.669071    1.360439
     24          1           0       -0.271784   -0.023159    2.182849
     25          1           0       -0.000590   -1.581564    1.411926
     26          8           0        1.907505   -0.522047   -0.760484
     27          6           0       -2.093221   -1.016926    1.557147
     28          1           0       -2.394742   -1.665978    0.722596
     29          6           0       -2.265218   -1.807001    2.860489
     30          1           0       -1.983445   -1.196905    3.727541
     31          1           0       -3.307633   -2.113358    2.995401
     32          1           0       -1.644066   -2.709751    2.869125
     33          6           0       -2.988972    0.228684    1.545638
     34          1           0       -2.672655    0.944041    2.315954
     35          1           0       -2.981213    0.737626    0.576325
     36          1           0       -4.026933   -0.045557    1.761181
     37          7           0        1.732393    1.379089    0.477894
     38          1           0        1.138040    1.970377    1.043264
     39          6           0        3.162344    1.692255    0.425247
     40          1           0        3.715765    0.801603    0.748748
     41          6           0        3.518146    2.802621    1.404425
     42          6           0        3.640013    2.052435   -0.994674
     43          1           0        3.436184    1.188641   -1.632790
     44          1           0        4.724877    2.175565   -0.955386
     45          8           0        4.595757    3.343589    1.433101
     46          6           0        2.979569    3.308400   -1.571394
     47          1           0        1.901154    3.297184   -1.365638
     48          1           0        3.380952    4.205100   -1.080147
     49          6           0        3.148328    3.407288   -3.088659
     50          1           0        2.610890    4.283462   -3.478478
     51          1           0        2.708126    2.526234   -3.554640
     52          7           0        4.553423    3.443603   -3.471068
     53          1           0        5.105240    4.179188   -3.050020
     54          7           0        6.382599    3.027460   -4.825287
     55          1           0        6.737353    3.005339   -5.769741
     56          1           0        6.938158    3.556180   -4.168628
     57          7           0        4.234957    2.340227   -5.502041
     58          1           0        4.740681    1.847627   -6.234034
     59          6           0        5.021020    2.929778   -4.651650
     60          8           0        2.498765    3.122351    2.239334
     61          1           0        2.823738    3.831356    2.827128
     62          1           0        2.806953    1.890594   -5.507566
 ---------------------------------------------------------------------

 SCF Done:  E(RB3LYP) =  -1447.51898762     A.U. after    2 cycles

 Alpha  occ. eigenvalues --  -19.30334 -19.27716 -19.23920 -19.23514 -19.23411
 Alpha  occ. eigenvalues --  -19.20001 -14.60664 -14.49847 -14.47809 -14.44584
 Alpha  occ. eigenvalues --  -14.44192 -14.38572 -10.44227 -10.42402 -10.41014
 Alpha  occ. eigenvalues --  -10.40474 -10.38862 -10.38688 -10.35331 -10.34397
 Alpha  occ. eigenvalues --  -10.33270 -10.31046 -10.30655 -10.29098 -10.28072
 Alpha  occ. eigenvalues --  -10.28005 -10.27822 -10.25629 -10.25336  -1.20960
 Alpha  occ. eigenvalues --   -1.20037  -1.15608  -1.15392  -1.14551  -1.11921
 Alpha  occ. eigenvalues --   -1.07622  -1.06984  -1.06836  -1.04242  -0.98475
 Alpha  occ. eigenvalues --   -0.94691  -0.93812  -0.91524  -0.89552  -0.87196
 Alpha  occ. eigenvalues --   -0.85425  -0.83532  -0.77795  -0.77242  -0.76632
 Alpha  occ. eigenvalues --   -0.75774  -0.74614  -0.73326  -0.72861  -0.72616
 Alpha  occ. eigenvalues --   -0.70012  -0.69480  -0.67943  -0.67563  -0.66925
 Alpha  occ. eigenvalues --   -0.64827  -0.63936  -0.63600  -0.63035  -0.61692
 Alpha  occ. eigenvalues --   -0.59796  -0.59078  -0.58739  -0.58473  -0.58084
 Alpha  occ. eigenvalues --   -0.57558  -0.56707  -0.56440  -0.56168  -0.55755
 Alpha  occ. eigenvalues --   -0.54385  -0.54101  -0.53496  -0.53135  -0.52476
 Alpha  occ. eigenvalues --   -0.52185  -0.51938  -0.51337  -0.50806  -0.50170
 Alpha  occ. eigenvalues --   -0.50153  -0.48904  -0.48357  -0.48212  -0.47960
 Alpha  occ. eigenvalues --   -0.47468  -0.46836  -0.46615  -0.45453  -0.45318
 Alpha  occ. eigenvalues --   -0.44714  -0.43946  -0.43271  -0.42375  -0.42172
 Alpha  occ. eigenvalues --   -0.41932  -0.41619  -0.41244  -0.39988  -0.37944
 Alpha  occ. eigenvalues --   -0.37248  -0.37235  -0.36721  -0.36476  -0.34567
 Alpha  occ. eigenvalues --   -0.33690  -0.32086
 Alpha virt. eigenvalues --   -0.13095  -0.11678  -0.09687  -0.08789  -0.07261
 Alpha virt. eigenvalues --   -0.05019  -0.04212  -0.03949  -0.03533  -0.02602
 Alpha virt. eigenvalues --   -0.02053  -0.01153  -0.00738   0.00229   0.00857

 Mulliken charges:
               1
     1  N   -0.750435
     2  H    0.418540
     3  H    0.430900
     4  H    0.416250
     5  C   -0.121737
     6  H    0.215678
     7  C    0.639067
     8  C   -0.320402
     9  H    0.215569
    10  H    0.200537
    11  O   -0.528431
    12  C   -0.369327
    13  H    0.187547
    14  H    0.149312
    15  C    0.594573
    16  O   -0.468498
    17  O   -0.625008
    18  N   -0.567452
    19  H    0.368524
    20  C   -0.113041
    21  H    0.191712
    22  C    0.644871
    23  C   -0.258545
    24  H    0.151036
    25  H    0.159118
    26  O   -0.540187
    27  C   -0.070994
    28  H    0.127913
    29  C   -0.446527
    30  H    0.151526
    31  H    0.159437
    32  H    0.150625
    33  C   -0.470265
    34  H    0.143917
    35  H    0.160331
    36  H    0.161836
    37  N   -0.623077
    38  H    0.365472
    39  C   -0.050301
    40  H    0.216037
    41  C    0.596181
    42  C   -0.261955
    43  H    0.180978
    44  H    0.179821
    45  O   -0.443239
    46  C   -0.301211
    47  H    0.136587
    48  H    0.155283
    49  C   -0.135341
    50  H    0.157722
    51  H    0.181429
    52  N   -0.608732
    53  H    0.327135
    54  N   -0.769373
    55  H    0.352065
    56  H    0.340343
    57  N   -0.770741
    58  H    0.318863
    59  C    0.737190
    60  O   -0.586510
    61  H    0.432817
    62  H    0.484589
 Sum of Mulliken charges =   1.00000

 Dipole moment (field-independent basis, Debye):
    X=             -0.6926    Y=              4.5489    Z=            -11.5384  Tot=             12.4220
 Quadrupole moment (field-independent basis, Debye-Ang):
   XX=           -110.7029   YY=           -136.9086   ZZ=           -102.6606
   XY=             47.3469   XZ=              9.8219   YZ=             -5.3167

 Normal termination of Gaussian 16 at Thu Jun 23 05:54:31 2022.
