 Gaussian 16, Revision C.01,
 Gaussian 16:  ES64L-G16RevC.01  3-Jul-2019

 ----------------------------------------------------------------------
 # B3LYP/6-31G* empiricaldispersion=gd3bj guess=read geom=check nosymm
 integral(ultrafinegrid)
 ----------------------------------------------------------------------

 ------------------------------------------------------
 Candidate Structure: Conf:234 Charge calc in gas phase
 ------------------------------------------------------
 Structure from the checkpoint file:  "conf-234.chk"
 Charge =  1 Multiplicity = 1

                          Input orientation:
 ---------------------------------------------------------------------
 Center     Atomic      Atomic             Coordinates (Angstroms)
 Number     Number       Type             X           Y           Z
 ---------------------------------------------------------------------
      1          7           0       -0.805013    0.883451   -4.453455
      2          1           0       -0.981041    1.769956   -3.954200
      3          1           0        0.170147    0.956871   -4.942702
      4          1           0       -1.499261    0.695427   -5.190149
      5          6           0       -0.917930   -0.206891   -3.437590
      6          1           0       -1.970143   -0.505880   -3.428955
      7          6           0       -0.614222    0.453329   -2.077907
      8          6           0       -0.045045   -1.420040   -3.787117
      9          1           0       -0.318369   -2.235143   -3.108500
     10          1           0        1.008604   -1.185488   -3.602173
     11          8           0       -0.566687    1.683165   -2.009319
     12          6           0       -0.175584   -1.924898   -5.243384
     13          1           0        0.366501   -1.236470   -5.899572
     14          1           0        0.290488   -2.908156   -5.328078
     15          6           0       -1.600534   -1.980414   -5.749853
     16          8           0       -2.319049   -0.999632   -5.880994
     17          8           0       -2.004851   -3.217237   -6.048991
     18          7           0       -0.484619   -0.368500   -1.021320
     19          1           0       -0.345653   -1.357574   -1.178353
     20          6           0       -0.066487    0.140598    0.294130
     21          1           0       -0.660362    1.035830    0.487884
     22          6           0        1.426226    0.488515    0.166419
     23          6           0       -0.295685   -0.916669    1.373799
     24          1           0        0.021886   -0.479920    2.329435
     25          1           0        0.388474   -1.752363    1.179588
     26          8           0        2.255522   -0.389371   -0.058382
     27          6           0       -1.742898   -1.422893    1.502873
     28          1           0       -2.031139   -1.891246    0.549362
     29          6           0       -1.813990   -2.499059    2.593292
     30          1           0       -1.553904   -2.078229    3.572143
     31          1           0       -2.823988   -2.915455    2.667684
     32          1           0       -1.121400   -3.323625    2.389587
     33          6           0       -2.732803   -0.286595    1.786687
     34          1           0       -2.456080    0.251715    2.701799
     35          1           0       -2.776667    0.440297    0.967806
     36          1           0       -3.744212   -0.681441    1.928345
     37          7           0        1.712063    1.806591    0.241042
     38          1           0        0.978048    2.485381    0.399242
     39          6           0        3.031978    2.341975   -0.020270
     40          1           0        3.772501    1.597928    0.284811
     41          6           0        3.188231    3.603949    0.815410
     42          6           0        3.229594    2.694390   -1.514032
     43          1           0        4.207027    3.178305   -1.626742
     44          1           0        2.467221    3.434366   -1.791961
     45          8           0        2.262115    4.216991    1.297548
     46          6           0        3.138344    1.480389   -2.442432
     47          1           0        3.916006    0.754396   -2.176434
     48          1           0        2.182177    0.969177   -2.309283
     49          6           0        3.280657    1.891740   -3.907187
     50          1           0        4.165114    2.530656   -4.036495
     51          1           0        2.413170    2.466227   -4.238226
     52          7           0        3.403236    0.739930   -4.801156
     53          1           0        4.259686    0.206513   -4.734239
     54          7           0        3.252329   -0.231215   -6.884008
     55          1           0        2.728587   -0.403735   -7.730929
     56          1           0        4.248442   -0.126185   -7.030528
     57          7           0        1.425412    0.997443   -5.998013
     58          1           0        1.078587    0.941727   -6.954395
     59          6           0        2.650437    0.541624   -5.915807
     60          8           0        4.475188    3.983652    0.903766
     61          1           0        4.496374    4.815835    1.414728
     62          1           0       -2.923022   -3.162053   -6.381616
 ---------------------------------------------------------------------

 SCF Done:  E(RB3LYP) =  -1447.54749396     A.U. after    1 cycles

 Alpha  occ. eigenvalues --  -19.32359 -19.28740 -19.27144 -19.25079 -19.23164
 Alpha  occ. eigenvalues --  -19.20426 -14.53459 -14.48744 -14.47835 -14.47633
 Alpha  occ. eigenvalues --  -14.45367 -14.42571 -10.45307 -10.42336 -10.42100
 Alpha  occ. eigenvalues --  -10.41175 -10.38225 -10.37809 -10.34085 -10.33365
 Alpha  occ. eigenvalues --  -10.33135 -10.33006 -10.32822 -10.28938 -10.28485
 Alpha  occ. eigenvalues --  -10.27608 -10.27476 -10.25137 -10.24703  -1.23543
 Alpha  occ. eigenvalues --   -1.19749  -1.17264  -1.14442  -1.12671  -1.11048
 Alpha  occ. eigenvalues --   -1.10867  -1.09185  -1.05118  -1.02162  -1.01474
 Alpha  occ. eigenvalues --   -0.97412  -0.93918  -0.90684  -0.89763  -0.87083
 Alpha  occ. eigenvalues --   -0.85409  -0.83159  -0.78700  -0.78336  -0.76061
 Alpha  occ. eigenvalues --   -0.74582  -0.72536  -0.72448  -0.71897  -0.70658
 Alpha  occ. eigenvalues --   -0.70421  -0.69522  -0.67889  -0.67759  -0.66739
 Alpha  occ. eigenvalues --   -0.65463  -0.65119  -0.63063  -0.62683  -0.61571
 Alpha  occ. eigenvalues --   -0.60475  -0.59733  -0.59628  -0.58731  -0.58359
 Alpha  occ. eigenvalues --   -0.58023  -0.57856  -0.56823  -0.56602  -0.56050
 Alpha  occ. eigenvalues --   -0.55061  -0.54464  -0.54235  -0.53850  -0.53620
 Alpha  occ. eigenvalues --   -0.53155  -0.51522  -0.51409  -0.50881  -0.50126
 Alpha  occ. eigenvalues --   -0.50032  -0.49227  -0.48995  -0.48788  -0.48299
 Alpha  occ. eigenvalues --   -0.47836  -0.47217  -0.46756  -0.45811  -0.45614
 Alpha  occ. eigenvalues --   -0.45213  -0.44456  -0.44447  -0.43630  -0.41356
 Alpha  occ. eigenvalues --   -0.40987  -0.40925  -0.40882  -0.40780  -0.40687
 Alpha  occ. eigenvalues --   -0.39286  -0.38885  -0.38331  -0.36929  -0.35493
 Alpha  occ. eigenvalues --   -0.34696  -0.33755
 Alpha virt. eigenvalues --   -0.12570  -0.11053  -0.08431  -0.08204  -0.07045
 Alpha virt. eigenvalues --   -0.06474  -0.05152  -0.03504  -0.02687  -0.01406
 Alpha virt. eigenvalues --   -0.00818  -0.00815  -0.00235  -0.00019   0.00552

 Mulliken charges:
               1
     1  N   -0.797299
     2  H    0.404507
     3  H    0.441356
     4  H    0.409406
     5  C   -0.103706
     6  H    0.221984
     7  C    0.655734
     8  C   -0.316828
     9  H    0.180470
    10  H    0.202325
    11  O   -0.539258
    12  C   -0.367915
    13  H    0.187370
    14  H    0.207689
    15  C    0.594124
    16  O   -0.486217
    17  O   -0.531147
    18  N   -0.595847
    19  H    0.351890
    20  C   -0.063104
    21  H    0.179491
    22  C    0.635402
    23  C   -0.299718
    24  H    0.165124
    25  H    0.165682
    26  O   -0.545444
    27  C   -0.073892
    28  H    0.110154
    29  C   -0.444177
    30  H    0.155127
    31  H    0.156513
    32  H    0.147648
    33  C   -0.453607
    34  H    0.154425
    35  H    0.141674
    36  H    0.160463
    37  N   -0.588646
    38  H    0.358734
    39  C   -0.049364
    40  H    0.206558
    41  C    0.588759
    42  C   -0.274854
    43  H    0.170321
    44  H    0.156977
    45  O   -0.456396
    46  C   -0.268493
    47  H    0.159940
    48  H    0.153624
    49  C   -0.141526
    50  H    0.164912
    51  H    0.185031
    52  N   -0.595391
    53  H    0.340493
    54  N   -0.753262
    55  H    0.348078
    56  H    0.351545
    57  N   -0.753201
    58  H    0.300438
    59  C    0.683885
    60  O   -0.560318
    61  H    0.428159
    62  H    0.433600
 Sum of Mulliken charges =   1.00000

 Dipole moment (field-independent basis, Debye):
    X=              4.4300    Y=             -0.3474    Z=            -20.5692  Tot=             21.0437
 Quadrupole moment (field-independent basis, Debye-Ang):
   XX=           -123.8933   YY=           -152.1200   ZZ=            -34.3717
   XY=             26.1548   XZ=            -25.7195   YZ=             11.7926

 Normal termination of Gaussian 16 at Thu Jun 23 05:54:20 2022.
