 Gaussian 16, Revision C.01,
 Gaussian 16:  ES64L-G16RevC.01  3-Jul-2019

 ----------------------------------------------------------------------
 # B3LYP/6-31G* empiricaldispersion=gd3bj guess=read geom=check nosymm
 integral(ultrafinegrid)
 ----------------------------------------------------------------------

 ------------------------------------------------------
 Candidate Structure: Conf:684 Charge calc in gas phase
 ------------------------------------------------------
 Structure from the checkpoint file:  "conf-684.chk"
 Charge =  1 Multiplicity = 1

                          Input orientation:
 ---------------------------------------------------------------------
 Center     Atomic      Atomic             Coordinates (Angstroms)
 Number     Number       Type             X           Y           Z
 ---------------------------------------------------------------------
      1          7           0       -3.179096   -1.272956   -3.859382
      2          1           0       -3.790442   -2.081808   -3.723696
      3          1           0       -3.491412   -0.469234   -3.219118
      4          1           0       -3.224330   -0.990762   -4.841919
      5          6           0       -1.761517   -1.490917   -3.368097
      6          1           0       -1.670977   -2.534427   -3.056007
      7          6           0       -1.688744   -0.540171   -2.140046
      8          6           0       -0.734437   -1.138948   -4.445075
      9          1           0        0.259296   -1.139323   -3.987394
     10          1           0       -0.894040   -0.106488   -4.779261
     11          8           0       -2.657395    0.213379   -1.946831
     12          6           0       -0.734089   -2.098565   -5.636453
     13          1           0       -0.550432   -3.131572   -5.315233
     14          1           0       -1.690665   -2.116862   -6.176097
     15          6           0        0.348489   -1.711639   -6.631913
     16          8           0        1.129287   -0.803662   -6.469416
     17          8           0        0.320066   -2.513860   -7.710178
     18          7           0       -0.587182   -0.616699   -1.414678
     19          1           0        0.216755   -1.171603   -1.719636
     20          6           0       -0.202705    0.300298   -0.341327
     21          1           0       -0.705228    1.257482   -0.502616
     22          6           0        1.321181    0.434074   -0.502467
     23          6           0       -0.525027   -0.271086    1.054078
     24          1           0       -0.064228    0.383038    1.804737
     25          1           0       -0.008213   -1.234060    1.144170
     26          8           0        1.946417   -0.409689   -1.147335
     27          6           0       -2.020616   -0.434999    1.368555
     28          1           0       -2.471408   -1.056325    0.581000
     29          6           0       -2.179521   -1.175119    2.703108
     30          1           0       -1.740791   -0.595588    3.524385
     31          1           0       -3.237185   -1.335136    2.937461
     32          1           0       -1.684042   -2.152287    2.682891
     33          6           0       -2.756516    0.910118    1.397172
     34          1           0       -2.307235    1.582109    2.139510
     35          1           0       -2.745058    1.408578    0.423200
     36          1           0       -3.805821    0.767832    1.676468
     37          7           0        1.897113    1.482175    0.116685
     38          1           0        1.329578    2.053257    0.729706
     39          6           0        3.337388    1.515090    0.334330
     40          1           0        3.835830    1.368882   -0.627462
     41          6           0        3.716396    0.354891    1.258105
     42          6           0        3.724582    2.879499    0.933520
     43          1           0        3.373006    2.929956    1.973474
     44          1           0        3.171485    3.642771    0.375817
     45          8           0        2.949716   -0.203712    2.009825
     46          6           0        5.222135    3.195266    0.868196
     47          1           0        5.806998    2.430730    1.391211
     48          1           0        5.547365    3.168175   -0.181438
     49          6           0        5.557078    4.571318    1.464817
     50          1           0        6.633681    4.751826    1.370707
     51          1           0        5.320203    4.580806    2.531879
     52          7           0        4.838975    5.680577    0.832531
     53          1           0        4.859526    5.650368   -0.181971
     54          7           0        3.452247    6.202821    2.632389
     55          1           0        2.589288    6.638547    2.933117
     56          1           0        4.261741    6.626277    3.073798
     57          7           0        2.630532    6.195193    0.372216
     58          1           0        1.803569    6.632323    0.784613
     59          6           0        3.563050    6.054712    1.247551
     60          8           0        5.024042    0.049971    1.158528
     61          1           0        5.198709   -0.668291    1.796792
     62          1           0        1.039738   -2.229156   -8.306309
 ---------------------------------------------------------------------

 SCF Done:  E(RB3LYP) =  -1447.49475738     A.U. after    1 cycles

 Alpha  occ. eigenvalues --  -19.30354 -19.28021 -19.27954 -19.25008 -19.22823
 Alpha  occ. eigenvalues --  -19.22255 -14.60783 -14.50161 -14.46442 -14.41111
 Alpha  occ. eigenvalues --  -14.40101 -14.34598 -10.44485 -10.43499 -10.41855
 Alpha  occ. eigenvalues --  -10.40245 -10.39569 -10.34917 -10.34910 -10.34054
 Alpha  occ. eigenvalues --  -10.34017 -10.32670 -10.28448 -10.28386 -10.27861
 Alpha  occ. eigenvalues --  -10.27133 -10.25847 -10.25345 -10.25147  -1.21467
 Alpha  occ. eigenvalues --   -1.20372  -1.18948  -1.15050  -1.14490  -1.12712
 Alpha  occ. eigenvalues --   -1.09953  -1.07093  -1.03548  -1.03200  -0.95958
 Alpha  occ. eigenvalues --   -0.94791  -0.91508  -0.90363  -0.88628  -0.88221
 Alpha  occ. eigenvalues --   -0.85073  -0.81432  -0.79917  -0.76541  -0.76100
 Alpha  occ. eigenvalues --   -0.75113  -0.75028  -0.73811  -0.72934  -0.71266
 Alpha  occ. eigenvalues --   -0.70571  -0.68277  -0.67706  -0.66053  -0.65769
 Alpha  occ. eigenvalues --   -0.65046  -0.64108  -0.61846  -0.60801  -0.60438
 Alpha  occ. eigenvalues --   -0.60292  -0.59059  -0.58747  -0.58669  -0.57554
 Alpha  occ. eigenvalues --   -0.57093  -0.56863  -0.56486  -0.55006  -0.54885
 Alpha  occ. eigenvalues --   -0.54151  -0.53557  -0.53059  -0.52918  -0.52291
 Alpha  occ. eigenvalues --   -0.51689  -0.51606  -0.51139  -0.49999  -0.49654
 Alpha  occ. eigenvalues --   -0.49497  -0.49428  -0.49048  -0.47989  -0.47863
 Alpha  occ. eigenvalues --   -0.47261  -0.46375  -0.45359  -0.44914  -0.44835
 Alpha  occ. eigenvalues --   -0.43414  -0.42703  -0.42644  -0.42019  -0.41683
 Alpha  occ. eigenvalues --   -0.41412  -0.41212  -0.41076  -0.39812  -0.39656
 Alpha  occ. eigenvalues --   -0.38734  -0.36941  -0.36499  -0.35480  -0.32340
 Alpha  occ. eigenvalues --   -0.31863  -0.28665
 Alpha virt. eigenvalues --   -0.13056  -0.12416  -0.10008  -0.08618  -0.07256
 Alpha virt. eigenvalues --   -0.06967  -0.05186  -0.02779  -0.02072  -0.01831
 Alpha virt. eigenvalues --   -0.01764  -0.01342  -0.00160  -0.00073   0.00557

 Mulliken charges:
               1
     1  N   -0.761150
     2  H    0.417367
     3  H    0.438505
     4  H    0.413050
     5  C   -0.113512
     6  H    0.218938
     7  C    0.657937
     8  C   -0.306512
     9  H    0.226642
    10  H    0.195786
    11  O   -0.542938
    12  C   -0.378242
    13  H    0.205224
    14  H    0.168947
    15  C    0.598811
    16  O   -0.434901
    17  O   -0.556475
    18  N   -0.588920
    19  H    0.375199
    20  C   -0.104474
    21  H    0.193905
    22  C    0.656136
    23  C   -0.252200
    24  H    0.161110
    25  H    0.164234
    26  O   -0.543947
    27  C   -0.072219
    28  H    0.112976
    29  C   -0.445518
    30  H    0.155783
    31  H    0.154926
    32  H    0.148844
    33  C   -0.461283
    34  H    0.144227
    35  H    0.158732
    36  H    0.157990
    37  N   -0.603730
    38  H    0.348242
    39  C   -0.022130
    40  H    0.200581
    41  C    0.600259
    42  C   -0.331075
    43  H    0.157450
    44  H    0.202894
    45  O   -0.469080
    46  C   -0.276130
    47  H    0.162612
    48  H    0.143874
    49  C   -0.156678
    50  H    0.161827
    51  H    0.164127
    52  N   -0.563232
    53  H    0.327384
    54  N   -0.741389
    55  H    0.326501
    56  H    0.337084
    57  N   -0.648333
    58  H    0.264469
    59  C    0.550336
    60  O   -0.555452
    61  H    0.423045
    62  H    0.433566
 Sum of Mulliken charges =   1.00000

 Dipole moment (field-independent basis, Debye):
    X=             -5.2395    Y=             -3.0805    Z=            -11.2636  Tot=             12.7989
 Quadrupole moment (field-independent basis, Debye-Ang):
   XX=           -111.3293   YY=           -135.6848   ZZ=            -78.9580
   XY=             29.6475   XZ=             52.1286   YZ=             54.4541

 Normal termination of Gaussian 16 at Thu Jun 23 05:54:17 2022.
