 Gaussian 16, Revision C.01,
 Gaussian 16:  ES64L-G16RevC.01  3-Jul-2019

 ----------------------------------------------------------------------
 # B3LYP/6-31G* empiricaldispersion=gd3bj guess=read geom=check nosymm
 integral(ultrafinegrid)
 ----------------------------------------------------------------------

 ------------------------------------------------------
 Candidate Structure: Conf:302 Charge calc in gas phase
 ------------------------------------------------------
 Structure from the checkpoint file:  "conf-302.chk"
 Charge =  1 Multiplicity = 1

                          Input orientation:
 ---------------------------------------------------------------------
 Center     Atomic      Atomic             Coordinates (Angstroms)
 Number     Number       Type             X           Y           Z
 ---------------------------------------------------------------------
      1          7           0       -3.662573   -0.384559   -3.904725
      2          1           0       -4.470946   -0.975209   -4.113344
      3          1           0       -3.900054    0.363625   -3.187896
      4          1           0       -3.361645    0.076132   -4.769813
      5          6           0       -2.522986   -1.124358   -3.230087
      6          1           0       -2.950151   -2.045463   -2.823760
      7          6           0       -2.162814   -0.178241   -2.050923
      8          6           0       -1.388586   -1.448432   -4.207124
      9          1           0       -1.808715   -2.006285   -5.052996
     10          1           0       -0.701148   -2.145548   -3.719167
     11          8           0       -2.933710    0.763209   -1.816987
     12          6           0       -0.603430   -0.218347   -4.691694
     13          1           0       -1.246962    0.583072   -5.071152
     14          1           0       -0.013809    0.190338   -3.862300
     15          6           0        0.368742   -0.544109   -5.812386
     16          8           0        0.540747    0.139503   -6.790590
     17          8           0        1.030221   -1.695003   -5.561413
     18          7           0       -1.059403   -0.479254   -1.374909
     19          1           0       -0.380208   -1.110090   -1.798785
     20          6           0       -0.414655    0.431634   -0.426758
     21          1           0       -0.957953    1.378931   -0.451636
     22          6           0        1.013408    0.610577   -0.976252
     23          6           0       -0.391897   -0.148869    0.998872
     24          1           0        0.151621    0.551882    1.645826
     25          1           0        0.203710   -1.070369    0.983035
     26          8           0        1.428256   -0.129891   -1.873881
     27          6           0       -1.777517   -0.424676    1.605076
     28          1           0       -2.304662   -1.118550    0.934016
     29          6           0       -1.611974   -1.116241    2.964301
     30          1           0       -1.092735   -0.461420    3.674800
     31          1           0       -2.586714   -1.366129    3.395603
     32          1           0       -1.033171   -2.042659    2.876971
     33          6           0       -2.618328    0.851890    1.736948
     34          1           0       -2.098765    1.598101    2.351674
     35          1           0       -2.846809    1.302854    0.765991
     36          1           0       -3.572404    0.632177    2.227322
     37          7           0        1.757945    1.580293   -0.418636
     38          1           0        1.404549    2.072294    0.391513
     39          6           0        3.181560    1.704986   -0.722652
     40          1           0        3.300681    1.776605   -1.806193
     41          6           0        3.965923    0.468661   -0.287873
     42          6           0        3.742117    2.971281   -0.051042
     43          1           0        3.710705    2.838978    1.040324
     44          1           0        3.063661    3.798353   -0.297282
     45          8           0        4.989895    0.098890   -0.807186
     46          6           0        5.154304    3.335358   -0.513209
     47          1           0        5.848792    2.512027   -0.311239
     48          1           0        5.147844    3.506580   -1.593722
     49          6           0        5.648808    4.620569    0.164844
     50          1           0        5.768296    4.465828    1.244161
     51          1           0        4.913597    5.416308    0.018414
     52          7           0        6.912926    5.115441   -0.356648
     53          1           0        7.715439    4.526830   -0.165341
     54          7           0        8.234146    5.978197   -2.043671
     55          1           0        8.281840    6.539447   -2.884826
     56          1           0        8.838319    6.344352   -1.315481
     57          7           0        5.838230    5.875525   -2.273005
     58          1           0        6.007595    6.419049   -3.120274
     59          6           0        6.931471    5.689673   -1.622938
     60          8           0        3.418389   -0.132511    0.798352
     61          1           0        4.013330   -0.872942    1.023741
     62          1           0        1.665723   -1.828352   -6.291104
 ---------------------------------------------------------------------

 SCF Done:  E(RB3LYP) =  -1447.49214013     A.U. after    1 cycles

 Alpha  occ. eigenvalues --  -19.30011 -19.28558 -19.28200 -19.24205 -19.23725
 Alpha  occ. eigenvalues --  -19.22148 -14.61483 -14.50808 -14.47502 -14.39783
 Alpha  occ. eigenvalues --  -14.39743 -14.33492 -10.45186 -10.42856 -10.42421
 Alpha  occ. eigenvalues --  -10.40495 -10.40299 -10.35693 -10.35564 -10.33205
 Alpha  occ. eigenvalues --  -10.33092 -10.33036 -10.29614 -10.28633 -10.27832
 Alpha  occ. eigenvalues --  -10.27104 -10.26052 -10.25840 -10.24394  -1.20995
 Alpha  occ. eigenvalues --   -1.20864  -1.18950  -1.15810  -1.15241  -1.12026
 Alpha  occ. eigenvalues --   -1.09932  -1.07824  -1.04058  -1.02650  -0.96287
 Alpha  occ. eigenvalues --   -0.93926  -0.92075  -0.89122  -0.88873  -0.88593
 Alpha  occ. eigenvalues --   -0.85597  -0.81301  -0.79940  -0.77217  -0.76569
 Alpha  occ. eigenvalues --   -0.76156  -0.74649  -0.74227  -0.72658  -0.71952
 Alpha  occ. eigenvalues --   -0.70907  -0.69375  -0.68373  -0.66260  -0.65509
 Alpha  occ. eigenvalues --   -0.64347  -0.63657  -0.62339  -0.62196  -0.59941
 Alpha  occ. eigenvalues --   -0.59621  -0.59185  -0.59024  -0.58184  -0.57481
 Alpha  occ. eigenvalues --   -0.57292  -0.56902  -0.56625  -0.55757  -0.55126
 Alpha  occ. eigenvalues --   -0.54479  -0.54375  -0.53603  -0.52901  -0.52126
 Alpha  occ. eigenvalues --   -0.51288  -0.51137  -0.51021  -0.50172  -0.49845
 Alpha  occ. eigenvalues --   -0.49477  -0.49238  -0.48741  -0.48594  -0.48072
 Alpha  occ. eigenvalues --   -0.47212  -0.46768  -0.45795  -0.45535  -0.44357
 Alpha  occ. eigenvalues --   -0.43123  -0.42873  -0.42305  -0.42139  -0.42071
 Alpha  occ. eigenvalues --   -0.41865  -0.41637  -0.40802  -0.40551  -0.39479
 Alpha  occ. eigenvalues --   -0.38456  -0.37852  -0.37314  -0.34718  -0.31626
 Alpha  occ. eigenvalues --   -0.30504  -0.27805
 Alpha virt. eigenvalues --   -0.14409  -0.12111  -0.09550  -0.09336  -0.07752
 Alpha virt. eigenvalues --   -0.07299  -0.05684  -0.03709  -0.02916  -0.02024
 Alpha virt. eigenvalues --   -0.01600  -0.00788  -0.00375   0.00273   0.00625

 Mulliken charges:
               1
     1  N   -0.755738
     2  H    0.420047
     3  H    0.438160
     4  H    0.417676
     5  C   -0.117135
     6  H    0.235309
     7  C    0.639318
     8  C   -0.322954
     9  H    0.188539
    10  H    0.222778
    11  O   -0.531770
    12  C   -0.383483
    13  H    0.162349
    14  H    0.228543
    15  C    0.586302
    16  O   -0.429350
    17  O   -0.557056
    18  N   -0.572097
    19  H    0.371539
    20  C   -0.118095
    21  H    0.204685
    22  C    0.656576
    23  C   -0.255233
    24  H    0.151114
    25  H    0.158152
    26  O   -0.544731
    27  C   -0.072546
    28  H    0.119948
    29  C   -0.446171
    30  H    0.153613
    31  H    0.160225
    32  H    0.149136
    33  C   -0.469288
    34  H    0.146787
    35  H    0.161020
    36  H    0.162211
    37  N   -0.614006
    38  H    0.347756
    39  C   -0.006120
    40  H    0.205120
    41  C    0.600022
    42  C   -0.325827
    43  H    0.149563
    44  H    0.167742
    45  O   -0.443396
    46  C   -0.275950
    47  H    0.153514
    48  H    0.186450
    49  C   -0.125150
    50  H    0.137428
    51  H    0.175859
    52  N   -0.592013
    53  H    0.321387
    54  N   -0.756404
    55  H    0.325989
    56  H    0.329689
    57  N   -0.660104
    58  H    0.269663
    59  C    0.595113
    60  O   -0.579741
    61  H    0.421878
    62  H    0.433159
 Sum of Mulliken charges =   1.00000

 Dipole moment (field-independent basis, Debye):
    X=             -6.4882    Y=             -0.8253    Z=            -10.5105  Tot=             12.3794
 Quadrupole moment (field-independent basis, Debye-Ang):
   XX=            -80.8829   YY=           -139.7655   ZZ=           -113.6358
   XY=             44.4906   XZ=             48.3827   YZ=             15.5318

 Normal termination of Gaussian 16 at Thu Jun 23 05:54:17 2022.
