 Gaussian 16, Revision C.01,
 Gaussian 16:  ES64L-G16RevC.01  3-Jul-2019

 ----------------------------------------------------------------------
 # B3LYP/6-31G* empiricaldispersion=gd3bj guess=read geom=check nosymm
 integral(ultrafinegrid)
 ----------------------------------------------------------------------

 ------------------------------------------------------
 Candidate Structure: Conf:448 Charge calc in gas phase
 ------------------------------------------------------
 Structure from the checkpoint file:  "conf-448.chk"
 Charge =  1 Multiplicity = 1

                          Input orientation:
 ---------------------------------------------------------------------
 Center     Atomic      Atomic             Coordinates (Angstroms)
 Number     Number       Type             X           Y           Z
 ---------------------------------------------------------------------
      1          7           0       -3.051436   -0.385402   -3.810864
      2          1           0       -3.689232   -1.178240   -3.924721
      3          1           0       -3.432288    0.257191   -3.050804
      4          1           0       -2.976799    0.105705   -4.705570
      5          6           0       -1.708164   -0.771609   -3.225905
      6          1           0       -1.585837   -1.852887   -3.322410
      7          6           0       -1.838220   -0.322058   -1.748474
      8          6           0       -0.567509   -0.000326   -3.901214
      9          1           0        0.328097   -0.111530   -3.280803
     10          1           0       -0.796191    1.072112   -3.881143
     11          8           0       -2.766790    0.447425   -1.465927
     12          6           0       -0.255336   -0.455128   -5.326918
     13          1           0        0.064707   -1.503238   -5.352319
     14          1           0       -1.121121   -0.388970   -6.001725
     15          6           0        0.848649    0.400885   -5.927558
     16          8           0        1.322656    1.378710   -5.395318
     17          8           0        1.219120   -0.066020   -7.131076
     18          7           0       -0.885589   -0.768886   -0.936560
     19          1           0       -0.084969   -1.238197   -1.367728
     20          6           0       -0.427105   -0.044032    0.253840
     21          1           0       -1.033735    0.858913    0.351579
     22          6           0        1.037379    0.318534   -0.090161
     23          6           0       -0.510853   -0.899177    1.526375
     24          1           0       -0.086114   -0.316252    2.354409
     25          1           0        0.143331   -1.771028    1.396968
     26          8           0        1.604792   -0.278187   -1.013398
     27          6           0       -1.930054   -1.360834    1.896628
     28          1           0       -2.318542   -1.949606    1.052950
     29          6           0       -1.866329   -2.276369    3.125545
     30          1           0       -1.491042   -1.730428    3.999853
     31          1           0       -2.859766   -2.662176    3.376675
     32          1           0       -1.204111   -3.132801    2.955524
     33          6           0       -2.881432   -0.181449    2.137734
     34          1           0       -2.491645    0.480295    2.922005
     35          1           0       -3.044036    0.413682    1.233160
     36          1           0       -3.860353   -0.541847    2.470816
     37          7           0        1.596529    1.273830    0.662727
     38          1           0        1.062910    1.665758    1.427617
     39          6           0        2.990253    1.693093    0.528460
     40          1           0        3.544337    0.916989   -0.016489
     41          6           0        3.662421    1.823093    1.883629
     42          6           0        3.134554    3.013152   -0.255093
     43          1           0        4.192236    3.286794   -0.227992
     44          1           0        2.583226    3.804595    0.270067
     45          8           0        4.805471    2.178093    2.038194
     46          6           0        2.658096    2.932969   -1.708619
     47          1           0        1.604908    2.621758   -1.747409
     48          1           0        2.698259    3.944451   -2.131615
     49          6           0        3.475624    1.985383   -2.599355
     50          1           0        3.081027    2.033451   -3.619045
     51          1           0        3.373168    0.954256   -2.253524
     52          7           0        4.894477    2.333796   -2.634226
     53          1           0        5.243626    2.670164   -3.520999
     54          7           0        7.133647    1.969459   -2.201848
     55          1           0        7.819278    1.594275   -1.558274
     56          1           0        7.270683    2.964467   -2.345102
     57          7           0        5.438126    0.688776   -1.082073
     58          1           0        6.226057    0.326615   -0.546642
     59          6           0        5.816913    1.604145   -1.903390
     60          8           0        2.837678    1.516378    2.921767
     61          1           0        3.365457    1.645256    3.733034
     62          1           0        1.924156    0.518711   -7.470351
 ---------------------------------------------------------------------

 SCF Done:  E(RB3LYP) =  -1447.50205981     A.U. after    1 cycles

 Alpha  occ. eigenvalues --  -19.30761 -19.28206 -19.27740 -19.25525 -19.22588
 Alpha  occ. eigenvalues --  -19.21320 -14.61372 -14.49853 -14.46483 -14.40773
 Alpha  occ. eigenvalues --  -14.40749 -14.34526 -10.44567 -10.43944 -10.41952
 Alpha  occ. eigenvalues --  -10.39673 -10.39510 -10.34902 -10.34697 -10.34225
 Alpha  occ. eigenvalues --  -10.34123 -10.30897 -10.28740 -10.27878 -10.27206
 Alpha  occ. eigenvalues --  -10.25908 -10.25475 -10.25270 -10.25167  -1.21911
 Alpha  occ. eigenvalues --   -1.20542  -1.18293  -1.15269  -1.14438  -1.13119
 Alpha  occ. eigenvalues --   -1.09206  -1.07096  -1.03672  -1.02972  -0.96012
 Alpha  occ. eigenvalues --   -0.94722  -0.91526  -0.90147  -0.88770  -0.87565
 Alpha  occ. eigenvalues --   -0.84765  -0.81400  -0.79974  -0.76573  -0.75825
 Alpha  occ. eigenvalues --   -0.75292  -0.74844  -0.74268  -0.72228  -0.71497
 Alpha  occ. eigenvalues --   -0.69735  -0.69179  -0.67644  -0.66086  -0.65088
 Alpha  occ. eigenvalues --   -0.64390  -0.64022  -0.61944  -0.61383  -0.60659
 Alpha  occ. eigenvalues --   -0.59802  -0.59637  -0.59132  -0.58246  -0.57626
 Alpha  occ. eigenvalues --   -0.57340  -0.56665  -0.55761  -0.55127  -0.54354
 Alpha  occ. eigenvalues --   -0.54017  -0.53900  -0.52950  -0.52696  -0.51995
 Alpha  occ. eigenvalues --   -0.51592  -0.51250  -0.50932  -0.50286  -0.49768
 Alpha  occ. eigenvalues --   -0.49498  -0.49008  -0.48532  -0.47851  -0.47502
 Alpha  occ. eigenvalues --   -0.46759  -0.46369  -0.46051  -0.45169  -0.44187
 Alpha  occ. eigenvalues --   -0.43108  -0.42749  -0.42230  -0.41885  -0.41441
 Alpha  occ. eigenvalues --   -0.41252  -0.41123  -0.40391  -0.39817  -0.39255
 Alpha  occ. eigenvalues --   -0.39214  -0.36975  -0.36414  -0.33928  -0.32931
 Alpha  occ. eigenvalues --   -0.31219  -0.28715
 Alpha virt. eigenvalues --   -0.13523  -0.12723  -0.10411  -0.08119  -0.07501
 Alpha virt. eigenvalues --   -0.06442  -0.05415  -0.03159  -0.02455  -0.02015
 Alpha virt. eigenvalues --   -0.01563  -0.00720  -0.00077   0.00368   0.00504

 Mulliken charges:
               1
     1  N   -0.754944
     2  H    0.419409
     3  H    0.434847
     4  H    0.414517
     5  C   -0.122539
     6  H    0.217130
     7  C    0.639514
     8  C   -0.318023
     9  H    0.240703
    10  H    0.195175
    11  O   -0.528393
    12  C   -0.376697
    13  H    0.208954
    14  H    0.168030
    15  C    0.601156
    16  O   -0.439048
    17  O   -0.552544
    18  N   -0.561543
    19  H    0.366440
    20  C   -0.122698
    21  H    0.195319
    22  C    0.647018
    23  C   -0.258709
    24  H    0.157381
    25  H    0.157385
    26  O   -0.543428
    27  C   -0.070798
    28  H    0.123878
    29  C   -0.446194
    30  H    0.152400
    31  H    0.157978
    32  H    0.149971
    33  C   -0.468774
    34  H    0.145833
    35  H    0.158033
    36  H    0.160701
    37  N   -0.592949
    38  H    0.349367
    39  C   -0.092819
    40  H    0.275327
    41  C    0.594179
    42  C   -0.266350
    43  H    0.192648
    44  H    0.132752
    45  O   -0.447441
    46  C   -0.246472
    47  H    0.111967
    48  H    0.142894
    49  C   -0.177667
    50  H    0.155910
    51  H    0.207270
    52  N   -0.600343
    53  H    0.324656
    54  N   -0.757982
    55  H    0.330754
    56  H    0.328190
    57  N   -0.665614
    58  H    0.279680
    59  C    0.610087
    60  O   -0.590622
    61  H    0.422780
    62  H    0.432358
 Sum of Mulliken charges =   1.00000

 Dipole moment (field-independent basis, Debye):
    X=             -5.2720    Y=             -0.0560    Z=            -14.3956  Tot=             15.3306
 Quadrupole moment (field-independent basis, Debye-Ang):
   XX=           -113.2346   YY=           -157.5041   ZZ=            -72.0288
   XY=             24.6128   XZ=             26.3796   YZ=              2.5252

 Normal termination of Gaussian 16 at Thu Jun 23 05:54:19 2022.
