 Gaussian 16, Revision C.01,
 Gaussian 16:  ES64L-G16RevC.01  3-Jul-2019

 ----------------------------------------------------------------------
 # B3LYP/6-31G* empiricaldispersion=gd3bj guess=read geom=check nosymm
 integral(ultrafinegrid)
 ----------------------------------------------------------------------

 ------------------------------------------------------
 Candidate Structure: Conf:288 Charge calc in gas phase
 ------------------------------------------------------
 Structure from the checkpoint file:  "conf-288.chk"
 Charge =  1 Multiplicity = 1

                          Input orientation:
 ---------------------------------------------------------------------
 Center     Atomic      Atomic             Coordinates (Angstroms)
 Number     Number       Type             X           Y           Z
 ---------------------------------------------------------------------
      1          7           0        1.196452   -1.606686   -2.429320
      2          1           0        1.632632   -1.236067   -1.558346
      3          1           0        1.214397   -2.627345   -2.344184
      4          1           0        1.792223   -1.284253   -3.289524
      5          6           0       -0.240501   -1.144764   -2.501646
      6          1           0       -0.209654   -0.136190   -2.925089
      7          6           0       -0.681666   -1.148861   -1.018411
      8          6           0       -1.056055   -2.079529   -3.382971
      9          1           0       -1.066535   -3.069683   -2.912425
     10          1           0       -0.579264   -2.171800   -4.363559
     11          8           0       -0.793423   -2.218579   -0.449037
     12          6           0       -2.493588   -1.571039   -3.546957
     13          1           0       -2.997266   -1.478307   -2.581270
     14          1           0       -2.487583   -0.576823   -4.015109
     15          6           0       -3.363918   -2.465492   -4.410109
     16          8           0       -4.521603   -2.721612   -4.190275
     17          8           0       -2.688243   -2.928712   -5.491232
     18          7           0       -0.795339    0.094229   -0.436644
     19          1           0       -0.729849    0.857547   -1.100639
     20          6           0       -0.141259    0.437537    0.846242
     21          1           0       -0.518102    1.428730    1.113819
     22          6           0        1.356687    0.522393    0.497680
     23          6           0       -0.410218   -0.538384    1.992860
     24          1           0       -0.086437   -1.535647    1.691472
     25          1           0       -1.494606   -0.585766    2.147527
     26          8           0        1.951857   -0.458999    0.027298
     27          6           0        0.295697   -0.140497    3.303243
     28          1           0        1.380505   -0.133454    3.116217
     29          6           0       -0.111760    1.250044    3.809587
     30          1           0       -1.199742    1.319948    3.931234
     31          1           0        0.344967    1.453878    4.783284
     32          1           0        0.203187    2.058204    3.137553
     33          6           0        0.014632   -1.206390    4.369712
     34          1           0       -1.055560   -1.247649    4.606061
     35          1           0        0.321556   -2.200900    4.028489
     36          1           0        0.553434   -0.984479    5.296617
     37          7           0        1.942372    1.731362    0.604745
     38          1           0        1.467447    2.482673    1.087620
     39          6           0        3.298717    1.969519    0.120665
     40          1           0        3.826494    1.013578    0.185610
     41          6           0        4.058582    2.965681    0.984142
     42          6           0        3.327843    2.445795   -1.355363
     43          1           0        4.378908    2.458795   -1.662601
     44          1           0        2.964605    3.479915   -1.416420
     45          8           0        5.204244    3.276377    0.771926
     46          6           0        2.491392    1.547062   -2.269609
     47          1           0        2.768408    0.507841   -2.090179
     48          1           0        1.435241    1.654499   -1.991412
     49          6           0        2.624708    1.822039   -3.773832
     50          1           0        2.697437    2.896550   -3.973141
     51          1           0        1.738031    1.452639   -4.296553
     52          7           0        3.769453    1.174373   -4.391704
     53          1           0        4.671754    1.622940   -4.323852
     54          7           0        4.882395   -0.492896   -5.508659
     55          1           0        4.919029   -1.435306   -5.870738
     56          1           0        5.328211    0.197080   -6.099641
     57          7           0        2.745071   -0.918695   -4.567120
     58          1           0        2.820842   -1.767042   -5.126573
     59          6           0        3.751460   -0.120862   -4.818818
     60          8           0        3.301255    3.484864    1.976918
     61          1           0        3.860722    4.120646    2.464023
     62          1           0       -3.320460   -3.471911   -6.000024
 ---------------------------------------------------------------------

 SCF Done:  E(RB3LYP) =  -1447.52070064     A.U. after    3 cycles

 Alpha  occ. eigenvalues --  -19.31114 -19.28318 -19.24939 -19.24794 -19.24634
 Alpha  occ. eigenvalues --  -19.22376 -14.54064 -14.49568 -14.48588 -14.47894
 Alpha  occ. eigenvalues --  -14.47380 -14.42762 -10.43337 -10.42244 -10.41819
 Alpha  occ. eigenvalues --  -10.41729 -10.40919 -10.37867 -10.35947 -10.35584
 Alpha  occ. eigenvalues --  -10.34238 -10.31596 -10.31234 -10.30881 -10.30708
 Alpha  occ. eigenvalues --  -10.27924 -10.27794 -10.26165 -10.24907  -1.21791
 Alpha  occ. eigenvalues --   -1.19072  -1.17353  -1.16234  -1.12827  -1.11077
 Alpha  occ. eigenvalues --   -1.10137  -1.09502  -1.05804  -1.05125  -1.01750
 Alpha  occ. eigenvalues --   -0.97329  -0.92772  -0.92321  -0.90678  -0.87407
 Alpha  occ. eigenvalues --   -0.85597  -0.83370  -0.80426  -0.77258  -0.76495
 Alpha  occ. eigenvalues --   -0.75084  -0.74802  -0.72568  -0.71816  -0.71481
 Alpha  occ. eigenvalues --   -0.70177  -0.69458  -0.68698  -0.67569  -0.67067
 Alpha  occ. eigenvalues --   -0.66168  -0.65018  -0.64112  -0.62944  -0.62094
 Alpha  occ. eigenvalues --   -0.61141  -0.60086  -0.59499  -0.59066  -0.58739
 Alpha  occ. eigenvalues --   -0.58033  -0.57484  -0.57151  -0.56317  -0.55840
 Alpha  occ. eigenvalues --   -0.55694  -0.55178  -0.54611  -0.53772  -0.53407
 Alpha  occ. eigenvalues --   -0.53335  -0.52618  -0.51778  -0.51582  -0.51010
 Alpha  occ. eigenvalues --   -0.50373  -0.49904  -0.49621  -0.48844  -0.48224
 Alpha  occ. eigenvalues --   -0.47962  -0.47579  -0.47340  -0.46606  -0.46394
 Alpha  occ. eigenvalues --   -0.46297  -0.45958  -0.45047  -0.42847  -0.42144
 Alpha  occ. eigenvalues --   -0.41718  -0.41549  -0.41179  -0.40344  -0.40259
 Alpha  occ. eigenvalues --   -0.39839  -0.38183  -0.37816  -0.37538  -0.36472
 Alpha  occ. eigenvalues --   -0.35993  -0.35918
 Alpha virt. eigenvalues --   -0.13822  -0.10167  -0.09742  -0.08294  -0.07849
 Alpha virt. eigenvalues --   -0.07371  -0.05644  -0.04901  -0.04475  -0.02061
 Alpha virt. eigenvalues --   -0.01740  -0.01279  -0.00886   0.00255   0.00402

 Mulliken charges:
               1
     1  N   -0.835237
     2  H    0.446738
     3  H    0.390985
     4  H    0.454671
     5  C   -0.083670
     6  H    0.169664
     7  C    0.597268
     8  C   -0.283293
     9  H    0.189974
    10  H    0.185913
    11  O   -0.467634
    12  C   -0.369006
    13  H    0.203701
    14  H    0.180797
    15  C    0.582137
    16  O   -0.431716
    17  O   -0.567259
    18  N   -0.584935
    19  H    0.331538
    20  C   -0.072630
    21  H    0.161940
    22  C    0.638962
    23  C   -0.261450
    24  H    0.193016
    25  H    0.164245
    26  O   -0.567348
    27  C   -0.095718
    28  H    0.134472
    29  C   -0.451982
    30  H    0.158572
    31  H    0.167426
    32  H    0.114799
    33  C   -0.446589
    34  H    0.154912
    35  H    0.155775
    36  H    0.157495
    37  N   -0.601985
    38  H    0.367621
    39  C   -0.067392
    40  H    0.223057
    41  C    0.602507
    42  C   -0.271169
    43  H    0.179629
    44  H    0.158090
    45  O   -0.436728
    46  C   -0.275419
    47  H    0.157890
    48  H    0.116284
    49  C   -0.142995
    50  H    0.173007
    51  H    0.174907
    52  N   -0.592751
    53  H    0.346269
    54  N   -0.759726
    55  H    0.351354
    56  H    0.353448
    57  N   -0.763644
    58  H    0.302640
    59  C    0.706841
    60  O   -0.579318
    61  H    0.435708
    62  H    0.425337
 Sum of Mulliken charges =   1.00000

 Dipole moment (field-independent basis, Debye):
    X=             10.4355    Y=              3.0721    Z=            -12.5588  Tot=             16.6151
 Quadrupole moment (field-independent basis, Debye-Ang):
   XX=           -145.6169   YY=           -142.6893   ZZ=            -78.3234
   XY=              1.7050   XZ=            -41.6459   YZ=             21.1747

 Normal termination of Gaussian 16 at Thu Jun 23 05:54:44 2022.
