 Gaussian 16, Revision C.01,
 Gaussian 16:  ES64L-G16RevC.01  3-Jul-2019

 ----------------------------------------------------------------------
 # B3LYP/6-31G* empiricaldispersion=gd3bj guess=read geom=check nosymm
 integral(ultrafinegrid)
 ----------------------------------------------------------------------

 ------------------------------------------------------
 Candidate Structure: Conf:497 Charge calc in gas phase
 ------------------------------------------------------
 Structure from the checkpoint file:  "conf-497.chk"
 Charge =  1 Multiplicity = 1

                          Input orientation:
 ---------------------------------------------------------------------
 Center     Atomic      Atomic             Coordinates (Angstroms)
 Number     Number       Type             X           Y           Z
 ---------------------------------------------------------------------
      1          7           0       -2.973246   -1.862230   -4.213218
      2          1           0       -3.552335   -1.198377   -3.657893
      3          1           0       -2.678723   -1.361965   -5.057326
      4          1           0       -3.441689   -2.753797   -4.477023
      5          6           0       -1.810908   -2.198821   -3.317954
      6          1           0       -2.197136   -2.979061   -2.655780
      7          6           0       -1.607212   -0.919576   -2.469744
      8          6           0       -0.600080   -2.724410   -4.095848
      9          1           0        0.076655   -3.183650   -3.368317
     10          1           0       -0.051143   -1.890697   -4.547586
     11          8           0       -2.554942   -0.128099   -2.407516
     12          6           0       -0.912920   -3.756107   -5.208998
     13          1           0       -1.324908   -3.247469   -6.089216
     14          1           0        0.016341   -4.233790   -5.523798
     15          6           0       -1.927795   -4.809597   -4.810216
     16          8           0       -3.095817   -4.558774   -4.534063
     17          8           0       -1.429750   -6.040350   -4.790482
     18          7           0       -0.440928   -0.812901   -1.842120
     19          1           0        0.354206   -1.408839   -2.076095
     20          6           0       -0.018206    0.332484   -1.039430
     21          1           0       -0.562354    1.217784   -1.379267
     22          6           0        1.486796    0.459286   -1.326427
     23          6           0       -0.235777    0.094204    0.469682
     24          1           0        0.240534    0.915447    1.019465
     25          1           0        0.323083   -0.808204    0.745003
     26          8           0        2.101106   -0.482769   -1.830777
     27          6           0       -1.702444   -0.028995    0.912482
     28          1           0       -2.176112   -0.824737    0.319623
     29          6           0       -1.751692   -0.446721    2.388067
     30          1           0       -1.286924    0.315991    3.024608
     31          1           0       -2.786381   -0.574090    2.723381
     32          1           0       -1.220886   -1.390447    2.557141
     33          6           0       -2.486182    1.269087    0.684064
     34          1           0       -2.018048    2.104348    1.220545
     35          1           0       -2.553653    1.527313   -0.376816
     36          1           0       -3.510056    1.170102    1.059913
     37          7           0        2.067032    1.621692   -0.965208
     38          1           0        1.520339    2.280131   -0.424132
     39          6           0        3.514845    1.712506   -0.812948
     40          1           0        3.988098    1.437065   -1.758932
     41          6           0        3.955170    0.711353    0.257768
     42          6           0        3.871343    3.159138   -0.426706
     43          1           0        3.424687    3.393650    0.546468
     44          1           0        3.380061    3.817986   -1.148729
     45          8           0        3.246725    0.302468    1.149920
     46          6           0        5.369073    3.467369   -0.395375
     47          1           0        5.882273    2.808950    0.314503
     48          1           0        5.809789    3.255582   -1.380152
     49          6           0        5.672191    4.919949    0.003235
     50          1           0        6.758396    5.040441    0.091630
     51          1           0        5.230063    5.140960    0.977411
     52          7           0        5.181741    5.934137   -0.914300
     53          1           0        5.556244    5.922844   -1.853431
     54          7           0        3.708037    7.489637   -1.760680
     55          1           0        2.876002    8.043878   -1.599502
     56          1           0        4.507938    8.080629   -1.963776
     57          7           0        3.138796    6.167626    0.171258
     58          1           0        2.343557    6.804933    0.227601
     59          6           0        3.943020    6.527156   -0.767315
     60          8           0        5.247089    0.361010    0.108181
     61          1           0        5.464470   -0.240476    0.846176
     62          1           0       -2.144721   -6.662018   -4.545037
 ---------------------------------------------------------------------

 SCF Done:  E(RB3LYP) =  -1447.51091370     A.U. after    2 cycles

 Alpha  occ. eigenvalues --  -19.34263 -19.29364 -19.27522 -19.25921 -19.22341
 Alpha  occ. eigenvalues --  -19.21739 -14.59142 -14.49008 -14.45827 -14.40557
 Alpha  occ. eigenvalues --  -14.40473 -14.34038 -10.47466 -10.43221 -10.40769
 Alpha  occ. eigenvalues --  -10.39717 -10.39021 -10.36075 -10.35398 -10.34108
 Alpha  occ. eigenvalues --  -10.33895 -10.32047 -10.27739 -10.27440 -10.27134
 Alpha  occ. eigenvalues --  -10.26214 -10.25147 -10.24596 -10.24510  -1.25626
 Alpha  occ. eigenvalues --   -1.18584  -1.18442  -1.16590  -1.14359  -1.13397
 Alpha  occ. eigenvalues --   -1.09432  -1.05841  -1.03335  -1.02610  -0.96140
 Alpha  occ. eigenvalues --   -0.94538  -0.91021  -0.89750  -0.88617  -0.87641
 Alpha  occ. eigenvalues --   -0.84461  -0.81228  -0.80612  -0.75879  -0.75402
 Alpha  occ. eigenvalues --   -0.75132  -0.74588  -0.73970  -0.72738  -0.71616
 Alpha  occ. eigenvalues --   -0.69879  -0.67617  -0.67126  -0.65503  -0.65424
 Alpha  occ. eigenvalues --   -0.64425  -0.64167  -0.62987  -0.62104  -0.61047
 Alpha  occ. eigenvalues --   -0.59891  -0.59557  -0.59047  -0.58232  -0.57986
 Alpha  occ. eigenvalues --   -0.57529  -0.56742  -0.56138  -0.55366  -0.54989
 Alpha  occ. eigenvalues --   -0.54267  -0.53939  -0.52868  -0.52211  -0.52122
 Alpha  occ. eigenvalues --   -0.51869  -0.51289  -0.50948  -0.50694  -0.50153
 Alpha  occ. eigenvalues --   -0.49504  -0.49222  -0.48739  -0.47759  -0.47165
 Alpha  occ. eigenvalues --   -0.46661  -0.46401  -0.45688  -0.44690  -0.44225
 Alpha  occ. eigenvalues --   -0.44174  -0.43184  -0.42336  -0.41374  -0.41259
 Alpha  occ. eigenvalues --   -0.40806  -0.40672  -0.40483  -0.40159  -0.39236
 Alpha  occ. eigenvalues --   -0.38567  -0.36446  -0.35950  -0.34952  -0.32343
 Alpha  occ. eigenvalues --   -0.31115  -0.28135
 Alpha virt. eigenvalues --   -0.14609  -0.12187  -0.09548  -0.08233  -0.06455
 Alpha virt. eigenvalues --   -0.04933  -0.04426  -0.02521  -0.01992  -0.01253
 Alpha virt. eigenvalues --   -0.01162  -0.00753  -0.00393   0.00321   0.00881

 Mulliken charges:
               1
     1  N   -0.754296
     2  H    0.427150
     3  H    0.401570
     4  H    0.437238
     5  C   -0.126346
     6  H    0.238507
     7  C    0.656391
     8  C   -0.324609
     9  H    0.212837
    10  H    0.201839
    11  O   -0.538577
    12  C   -0.379905
    13  H    0.189782
    14  H    0.228409
    15  C    0.612137
    16  O   -0.492167
    17  O   -0.518942
    18  N   -0.605747
    19  H    0.372614
    20  C   -0.099251
    21  H    0.190846
    22  C    0.650021
    23  C   -0.251642
    24  H    0.159393
    25  H    0.162381
    26  O   -0.546702
    27  C   -0.072815
    28  H    0.116036
    29  C   -0.445356
    30  H    0.155486
    31  H    0.154255
    32  H    0.146966
    33  C   -0.461812
    34  H    0.143571
    35  H    0.160256
    36  H    0.156875
    37  N   -0.605789
    38  H    0.350351
    39  C   -0.023883
    40  H    0.191341
    41  C    0.599532
    42  C   -0.295494
    43  H    0.174553
    44  H    0.175722
    45  O   -0.470184
    46  C   -0.273739
    47  H    0.154661
    48  H    0.133194
    49  C   -0.131445
    50  H    0.150241
    51  H    0.190005
    52  N   -0.594321
    53  H    0.320025
    54  N   -0.758427
    55  H    0.324555
    56  H    0.328782
    57  N   -0.665941
    58  H    0.267912
    59  C    0.595322
    60  O   -0.556611
    61  H    0.421225
    62  H    0.442023
 Sum of Mulliken charges =   1.00000

 Dipole moment (field-independent basis, Debye):
    X=             -2.6851    Y=             -4.9420    Z=            -17.6741  Tot=             18.5474
 Quadrupole moment (field-independent basis, Debye-Ang):
   XX=           -120.4519   YY=            -74.8457   ZZ=            -90.9104
   XY=             47.8388   XZ=             27.4869   YZ=             34.2004

 Normal termination of Gaussian 16 at Thu Jun 23 05:54:27 2022.
