 Gaussian 16, Revision C.01,
 Gaussian 16:  ES64L-G16RevC.01  3-Jul-2019

 ----------------------------------------------------------------------
 # B3LYP/6-31G* empiricaldispersion=gd3bj guess=read geom=check nosymm
 integral(ultrafinegrid)
 ----------------------------------------------------------------------

 ------------------------------------------------------
 Candidate Structure: Conf:365 Charge calc in gas phase
 ------------------------------------------------------
 Structure from the checkpoint file:  "conf-365.chk"
 Charge =  1 Multiplicity = 1

                          Input orientation:
 ---------------------------------------------------------------------
 Center     Atomic      Atomic             Coordinates (Angstroms)
 Number     Number       Type             X           Y           Z
 ---------------------------------------------------------------------
      1          7           0       -2.777664   -0.559298   -3.702550
      2          1           0       -3.569448   -1.034816   -3.258654
      3          1           0       -2.623844    0.366856   -3.208489
      4          1           0       -2.983990   -0.426144   -4.696618
      5          6           0       -1.449159   -1.245298   -3.445381
      6          1           0       -1.613898   -2.320275   -3.348992
      7          6           0       -1.000359   -0.575504   -2.125545
      8          6           0       -0.519540   -0.897922   -4.619772
      9          1           0       -0.543024    0.186447   -4.772831
     10          1           0       -0.922878   -1.366302   -5.526279
     11          8           0       -1.375752    0.596671   -1.960779
     12          6           0        0.936191   -1.335700   -4.411515
     13          1           0        1.409562   -0.736076   -3.625293
     14          1           0        1.017405   -2.380856   -4.101194
     15          6           0        1.794005   -1.157772   -5.649783
     16          8           0        2.765972   -1.833193   -5.923691
     17          8           0        1.373902   -0.146650   -6.424982
     18          7           0       -0.245040   -1.302895   -1.315555
     19          1           0       -0.073450   -2.307273   -1.517100
     20          6           0        0.396918   -0.746328   -0.117434
     21          1           0        0.122833    0.307147   -0.065959
     22          6           0        1.934568   -0.770980   -0.237383
     23          6           0       -0.131330   -1.486052    1.130477
     24          1           0       -0.066226   -2.569053    0.955286
     25          1           0       -1.205048   -1.267123    1.200729
     26          8           0        2.609109    0.032752    0.389543
     27          6           0        0.542960   -1.136057    2.467397
     28          1           0        1.616802   -1.347419    2.379256
     29          6           0        0.386344    0.349382    2.813552
     30          1           0       -0.673202    0.636161    2.834687
     31          1           0        0.805146    0.556552    3.803690
     32          1           0        0.912019    0.982500    2.094392
     33          6           0       -0.032902   -2.030848    3.572178
     34          1           0       -1.106057   -1.847481    3.707703
     35          1           0        0.098140   -3.095574    3.341860
     36          1           0        0.460619   -1.831027    4.528627
     37          7           0        2.456878   -1.754534   -1.022511
     38          1           0        1.849730   -2.405876   -1.515625
     39          6           0        3.883951   -1.850674   -1.323379
     40          1           0        4.357957   -1.010033   -0.814741
     41          6           0        3.959825   -1.594704   -2.830977
     42          6           0        4.492442   -3.189521   -0.877966
     43          1           0        5.576075   -3.119325   -1.021541
     44          1           0        4.151763   -3.978087   -1.555268
     45          8           0        3.994203   -0.489562   -3.327961
     46          6           0        4.167437   -3.566818    0.583415
     47          1           0        5.084048   -3.844652    1.115588
     48          1           0        3.757554   -2.703278    1.122138
     49          6           0        3.199142   -4.754025    0.708932
     50          1           0        3.055317   -5.011921    1.763294
     51          1           0        3.629480   -5.629602    0.218022
     52          7           0        1.876111   -4.495778    0.124388
     53          1           0        1.454271   -3.635817    0.445446
     54          7           0        2.003435   -5.988229   -1.646593
     55          1           0        1.682919   -6.289059   -2.555282
     56          1           0        2.216417   -6.738269   -1.003260
     57          7           0        0.668081   -4.029484   -1.799215
     58          1           0        0.341957   -4.489953   -2.648036
     59          6           0        1.480907   -4.824910   -1.139580
     60          8           0        3.820283   -2.731461   -3.540786
     61          1           0        3.689988   -2.481485   -4.487801
     62          1           0        2.010813   -0.058711   -7.161374
 ---------------------------------------------------------------------

 SCF Done:  E(RB3LYP) =  -1447.52215685     A.U. after    1 cycles

 Alpha  occ. eigenvalues --  -19.31711 -19.27083 -19.26722 -19.26199 -19.21797
 Alpha  occ. eigenvalues --  -19.20558 -14.61441 -14.49255 -14.46756 -14.45996
 Alpha  occ. eigenvalues --  -14.45224 -14.41758 -10.44699 -10.43613 -10.41864
 Alpha  occ. eigenvalues --  -10.41187 -10.40027 -10.38157 -10.35475 -10.33794
 Alpha  occ. eigenvalues --  -10.33353 -10.32194 -10.31984 -10.28814 -10.27768
 Alpha  occ. eigenvalues --  -10.27367 -10.27090 -10.24914 -10.23908  -1.22831
 Alpha  occ. eigenvalues --   -1.19593  -1.18297  -1.14881  -1.13655  -1.12764
 Alpha  occ. eigenvalues --   -1.09911  -1.09282  -1.06409  -1.01922  -1.00296
 Alpha  occ. eigenvalues --   -0.96438  -0.96035  -0.90879  -0.88555  -0.88291
 Alpha  occ. eigenvalues --   -0.84957  -0.83138  -0.79930  -0.77229  -0.75557
 Alpha  occ. eigenvalues --   -0.75134  -0.74929  -0.74259  -0.72875  -0.72597
 Alpha  occ. eigenvalues --   -0.71900  -0.70269  -0.69575  -0.68281  -0.66464
 Alpha  occ. eigenvalues --   -0.65296  -0.64740  -0.64432  -0.62969  -0.62248
 Alpha  occ. eigenvalues --   -0.60900  -0.59950  -0.59820  -0.59159  -0.58714
 Alpha  occ. eigenvalues --   -0.57407  -0.56939  -0.56681  -0.56236  -0.56003
 Alpha  occ. eigenvalues --   -0.55674  -0.54782  -0.53583  -0.53327  -0.52722
 Alpha  occ. eigenvalues --   -0.52218  -0.51661  -0.51156  -0.51076  -0.50807
 Alpha  occ. eigenvalues --   -0.50284  -0.50043  -0.49388  -0.48807  -0.48396
 Alpha  occ. eigenvalues --   -0.47108  -0.46749  -0.46098  -0.45660  -0.44515
 Alpha  occ. eigenvalues --   -0.44210  -0.43915  -0.43516  -0.43045  -0.42265
 Alpha  occ. eigenvalues --   -0.41566  -0.40749  -0.40465  -0.40309  -0.40064
 Alpha  occ. eigenvalues --   -0.39498  -0.39081  -0.37305  -0.36415  -0.34417
 Alpha  occ. eigenvalues --   -0.33875  -0.33451
 Alpha virt. eigenvalues --   -0.13319  -0.12127  -0.10771  -0.08994  -0.07321
 Alpha virt. eigenvalues --   -0.07227  -0.05786  -0.05699  -0.04156  -0.03204
 Alpha virt. eigenvalues --   -0.02471  -0.02132  -0.01899  -0.00031   0.00730

 Mulliken charges:
               1
     1  N   -0.748411
     2  H    0.418544
     3  H    0.433410
     4  H    0.414921
     5  C   -0.122458
     6  H    0.207743
     7  C    0.642412
     8  C   -0.292695
     9  H    0.205856
    10  H    0.178740
    11  O   -0.539391
    12  C   -0.404364
    13  H    0.238680
    14  H    0.191466
    15  C    0.632374
    16  O   -0.475669
    17  O   -0.551962
    18  N   -0.637085
    19  H    0.410987
    20  C   -0.104839
    21  H    0.221984
    22  C    0.625430
    23  C   -0.279553
    24  H    0.134999
    25  H    0.153224
    26  O   -0.499337
    27  C   -0.085353
    28  H    0.147412
    29  C   -0.459007
    30  H    0.137014
    31  H    0.159414
    32  H    0.179308
    33  C   -0.446101
    34  H    0.148376
    35  H    0.132864
    36  H    0.163442
    37  N   -0.662906
    38  H    0.378114
    39  C   -0.038542
    40  H    0.216163
    41  C    0.575116
    42  C   -0.297591
    43  H    0.171027
    44  H    0.178659
    45  O   -0.470827
    46  C   -0.287309
    47  H    0.167588
    48  H    0.170924
    49  C   -0.166109
    50  H    0.175383
    51  H    0.165433
    52  N   -0.583428
    53  H    0.347994
    54  N   -0.746151
    55  H    0.347173
    56  H    0.357596
    57  N   -0.773358
    58  H    0.280198
    59  C    0.673070
    60  O   -0.602272
    61  H    0.452727
    62  H    0.438954
 Sum of Mulliken charges =   1.00000

 Dipole moment (field-independent basis, Debye):
    X=             -6.1341    Y=            -14.6773    Z=            -15.3706  Tot=             22.1202
 Quadrupole moment (field-independent basis, Debye-Ang):
   XX=           -136.9345   YY=           -110.4497   ZZ=            -86.6132
   XY=            -18.6378   XZ=             35.5542   YZ=             19.8611

 Normal termination of Gaussian 16 at Thu Jun 23 05:54:23 2022.
