 Gaussian 16, Revision C.01,
 Gaussian 16:  ES64L-G16RevC.01  3-Jul-2019

 ----------------------------------------------------------------------
 # B3LYP/6-31G* empiricaldispersion=gd3bj guess=read geom=check nosymm
 integral(ultrafinegrid)
 ----------------------------------------------------------------------

 ------------------------------------------------------
 Candidate Structure: Conf:123 Charge calc in gas phase
 ------------------------------------------------------
 Structure from the checkpoint file:  "conf-123.chk"
 Charge =  1 Multiplicity = 1

                          Input orientation:
 ---------------------------------------------------------------------
 Center     Atomic      Atomic             Coordinates (Angstroms)
 Number     Number       Type             X           Y           Z
 ---------------------------------------------------------------------
      1          7           0       -1.548051    2.205777   -3.786313
      2          1           0       -2.548594    2.388750   -3.890198
      3          1           0       -1.165118    2.888794   -3.088527
      4          1           0       -1.045303    2.389699   -4.708109
      5          6           0       -1.262190    0.855298   -3.184325
      6          1           0       -2.139959    0.217346   -3.318575
      7          6           0       -0.992803    1.151744   -1.691564
      8          6           0       -0.010161    0.247532   -3.836514
      9          1           0        0.396212   -0.526461   -3.179299
     10          1           0        0.756254    1.026632   -3.873490
     11          8           0       -0.789498    2.317338   -1.352261
     12          6           0       -0.267078   -0.317834   -5.244780
     13          1           0       -0.746053   -1.298382   -5.201883
     14          1           0       -0.925246    0.348496   -5.816878
     15          6           0        1.022994   -0.402334   -6.037646
     16          8           0        1.748237    0.553506   -6.266459
     17          8           0        1.283822   -1.634651   -6.473563
     18          7           0       -0.934933    0.093718   -0.864024
     19          1           0       -0.936036   -0.825778   -1.290724
     20          6           0       -0.121940    0.186063    0.360502
     21          1           0       -0.438582    1.086117    0.889678
     22          6           0        1.338059    0.318249   -0.117462
     23          6           0       -0.309946   -1.060756    1.227037
     24          1           0        0.329787   -0.945460    2.111496
     25          1           0        0.085070   -1.924029    0.674452
     26          8           0        1.741913   -0.390987   -1.041554
     27          6           0       -1.756481   -1.333633    1.675843
     28          1           0       -2.372318   -1.475829    0.775544
     29          6           0       -1.803025   -2.631881    2.491039
     30          1           0       -1.214768   -2.535205    3.411670
     31          1           0       -2.831064   -2.876454    2.777354
     32          1           0       -1.399677   -3.478203    1.923368
     33          6           0       -2.346154   -0.162865    2.471117
     34          1           0       -1.731297    0.060218    3.352130
     35          1           0       -2.423026    0.750693    1.870954
     36          1           0       -3.353420   -0.406112    2.824364
     37          7           0        2.081379    1.259170    0.494686
     38          1           0        1.720604    1.780615    1.285156
     39          6           0        3.459075    1.539943    0.123848
     40          1           0        3.899636    0.618046   -0.265615
     41          6           0        4.186256    1.966397    1.389654
     42          6           0        3.577265    2.653860   -0.948164
     43          1           0        4.638554    2.757002   -1.201970
     44          1           0        3.254820    3.607503   -0.510298
     45          8           0        3.627648    2.289175    2.415330
     46          6           0        2.743394    2.349604   -2.194376
     47          1           0        2.981054    1.343067   -2.557656
     48          1           0        1.684744    2.350442   -1.920977
     49          6           0        2.930927    3.362663   -3.327797
     50          1           0        3.973313    3.390942   -3.664480
     51          1           0        2.648408    4.367644   -3.008758
     52          7           0        2.082945    3.021765   -4.468521
     53          1           0        2.358210    2.257230   -5.070917
     54          7           0        0.168569    3.091648   -5.815845
     55          1           0       -0.217066    3.795534   -6.441760
     56          1           0        0.696942    2.401323   -6.352655
     57          7           0        0.533780    4.705162   -4.072496
     58          1           0       -0.324327    5.101966   -4.455660
     59          6           0        0.942014    3.702879   -4.765298
     60          8           0        5.517259    1.988708    1.213148
     61          1           0        5.915458    2.310792    2.044884
     62          1           0        2.117858   -1.607097   -6.983849
 ---------------------------------------------------------------------

 SCF Done:  E(RB3LYP) =  -1447.53426959     A.U. after    1 cycles

 Alpha  occ. eigenvalues --  -19.32822 -19.28995 -19.27578 -19.26715 -19.23482
 Alpha  occ. eigenvalues --  -19.21745 -14.57087 -14.49470 -14.48034 -14.46374
 Alpha  occ. eigenvalues --  -14.45630 -14.39429 -10.45929 -10.43326 -10.41495
 Alpha  occ. eigenvalues --  -10.40350 -10.39687 -10.38990 -10.34344 -10.34073
 Alpha  occ. eigenvalues --  -10.33866 -10.33462 -10.30843 -10.28699 -10.28501
 Alpha  occ. eigenvalues --  -10.28008 -10.27337 -10.25587 -10.25191  -1.24017
 Alpha  occ. eigenvalues --   -1.20056  -1.19032  -1.14867  -1.13846  -1.12177
 Alpha  occ. eigenvalues --   -1.11194  -1.09055  -1.06182  -1.02919  -1.00164
 Alpha  occ. eigenvalues --   -0.95642  -0.95042  -0.91366  -0.89389  -0.88228
 Alpha  occ. eigenvalues --   -0.85257  -0.83512  -0.79239  -0.77534  -0.76567
 Alpha  occ. eigenvalues --   -0.75173  -0.73726  -0.72806  -0.71824  -0.71024
 Alpha  occ. eigenvalues --   -0.70870  -0.70014  -0.69131  -0.68490  -0.66341
 Alpha  occ. eigenvalues --   -0.65002  -0.64366  -0.63998  -0.63636  -0.62091
 Alpha  occ. eigenvalues --   -0.61507  -0.60922  -0.59683  -0.59569  -0.58464
 Alpha  occ. eigenvalues --   -0.57637  -0.57322  -0.57044  -0.56771  -0.56188
 Alpha  occ. eigenvalues --   -0.55715  -0.54960  -0.54711  -0.53914  -0.53594
 Alpha  occ. eigenvalues --   -0.52520  -0.51905  -0.51761  -0.51458  -0.50617
 Alpha  occ. eigenvalues --   -0.50224  -0.49929  -0.49339  -0.49130  -0.48869
 Alpha  occ. eigenvalues --   -0.47928  -0.47585  -0.46413  -0.46197  -0.45910
 Alpha  occ. eigenvalues --   -0.45068  -0.44939  -0.44329  -0.42896  -0.41632
 Alpha  occ. eigenvalues --   -0.41617  -0.41454  -0.41341  -0.41051  -0.40786
 Alpha  occ. eigenvalues --   -0.39738  -0.39540  -0.37299  -0.36723  -0.35769
 Alpha  occ. eigenvalues --   -0.35182  -0.32838
 Alpha virt. eigenvalues --   -0.13818  -0.11867  -0.09002  -0.08562  -0.07945
 Alpha virt. eigenvalues --   -0.06499  -0.05076  -0.04462  -0.03265  -0.01897
 Alpha virt. eigenvalues --   -0.01021  -0.00669  -0.00470   0.00093   0.00558

 Mulliken charges:
               1
     1  N   -0.801618
     2  H    0.398202
     3  H    0.431496
     4  H    0.448258
     5  C   -0.110952
     6  H    0.202416
     7  C    0.649382
     8  C   -0.335506
     9  H    0.223733
    10  H    0.208858
    11  O   -0.512182
    12  C   -0.357525
    13  H    0.203364
    14  H    0.175779
    15  C    0.597801
    16  O   -0.483041
    17  O   -0.524892
    18  N   -0.570547
    19  H    0.346944
    20  C   -0.077053
    21  H    0.189120
    22  C    0.639495
    23  C   -0.294696
    24  H    0.166358
    25  H    0.157323
    26  O   -0.556797
    27  C   -0.072063
    28  H    0.120451
    29  C   -0.445417
    30  H    0.155315
    31  H    0.159780
    32  H    0.147472
    33  C   -0.456236
    34  H    0.153714
    35  H    0.144564
    36  H    0.163662
    37  N   -0.596950
    38  H    0.359229
    39  C   -0.050003
    40  H    0.206350
    41  C    0.590444
    42  C   -0.273401
    43  H    0.172705
    44  H    0.161004
    45  O   -0.459676
    46  C   -0.286537
    47  H    0.153092
    48  H    0.161800
    49  C   -0.139892
    50  H    0.161380
    51  H    0.209607
    52  N   -0.609026
    53  H    0.365599
    54  N   -0.849179
    55  H    0.353998
    56  H    0.369317
    57  N   -0.630879
    58  H    0.275607
    59  C    0.562016
    60  O   -0.557822
    61  H    0.429911
    62  H    0.436347
 Sum of Mulliken charges =   1.00000

 Dipole moment (field-independent basis, Debye):
    X=             -1.1342    Y=              3.9505    Z=            -17.0706  Tot=             17.5585
 Quadrupole moment (field-independent basis, Debye-Ang):
   XX=           -129.1764   YY=           -158.8733   ZZ=            -61.0876
   XY=              0.4499   XZ=             14.0392   YZ=            -23.1667

 Normal termination of Gaussian 16 at Thu Jun 23 05:54:21 2022.
