 Gaussian 16, Revision C.01,
 Gaussian 16:  ES64L-G16RevC.01  3-Jul-2019

 ----------------------------------------------------------------------
 # B3LYP/6-31G* empiricaldispersion=gd3bj guess=read geom=check nosymm
 integral(ultrafinegrid)
 ----------------------------------------------------------------------

 ------------------------------------------------------
 Candidate Structure: Conf:472 Charge calc in gas phase
 ------------------------------------------------------
 Structure from the checkpoint file:  "conf-472.chk"
 Charge =  1 Multiplicity = 1

                          Input orientation:
 ---------------------------------------------------------------------
 Center     Atomic      Atomic             Coordinates (Angstroms)
 Number     Number       Type             X           Y           Z
 ---------------------------------------------------------------------
      1          7           0       -1.364051   -0.831646   -5.065057
      2          1           0       -2.383648   -0.781403   -5.147960
      3          1           0       -0.994650    0.138845   -4.836612
      4          1           0       -0.978868   -1.182914   -5.945988
      5          6           0       -0.908144   -1.616736   -3.850279
      6          1           0       -1.692284   -2.312667   -3.556008
      7          6           0       -0.689320   -0.495240   -2.807963
      8          6           0        0.396698   -2.350713   -4.217638
      9          1           0        1.098671   -1.615352   -4.628899
     10          1           0        0.164077   -3.073546   -5.010475
     11          8           0       -0.497083    0.651009   -3.241743
     12          6           0        1.121048   -3.065293   -3.061008
     13          1           0        1.985283   -3.594832   -3.466256
     14          1           0        1.490224   -2.314656   -2.347923
     15          6           0        0.242672   -4.026927   -2.300894
     16          8           0       -0.827616   -3.720281   -1.787561
     17          8           0        0.750778   -5.256100   -2.218387
     18          7           0       -0.710288   -0.856957   -1.531007
     19          1           0       -0.822003   -1.853287   -1.334618
     20          6           0       -0.186331    0.016618   -0.483721
     21          1           0       -0.756279    0.949704   -0.500950
     22          6           0        1.299048    0.304174   -0.790494
     23          6           0       -0.351679   -0.704159    0.866733
     24          1           0        0.234232   -1.632032    0.821876
     25          1           0       -1.406930   -0.994297    0.961044
     26          8           0        1.995956   -0.517148   -1.387804
     27          6           0        0.060669    0.095252    2.114817
     28          1           0        1.115024    0.379485    2.017139
     29          6           0       -0.767045    1.375332    2.288451
     30          1           0       -1.835252    1.141638    2.377549
     31          1           0       -0.464306    1.907173    3.195583
     32          1           0       -0.654128    2.078345    1.454041
     33          6           0       -0.070770   -0.799944    3.353867
     34          1           0       -1.111460   -1.111990    3.505889
     35          1           0        0.542352   -1.703317    3.260990
     36          1           0        0.251449   -0.266593    4.253922
     37          7           0        1.757867    1.483186   -0.328879
     38          1           0        1.133819    2.094421    0.179271
     39          6           0        3.162952    1.863580   -0.390747
     40          1           0        3.716200    0.970749   -0.688442
     41          6           0        3.697769    2.291396    0.970852
     42          6           0        3.424023    2.988058   -1.414984
     43          1           0        3.205235    2.588948   -2.412760
     44          1           0        4.495994    3.212733   -1.378956
     45          8           0        4.870917    2.417286    1.216223
     46          6           0        2.610431    4.257314   -1.148383
     47          1           0        1.542710    4.061458   -1.322765
     48          1           0        2.725433    4.580806   -0.109186
     49          6           0        3.066254    5.423324   -2.035311
     50          1           0        2.978751    5.159165   -3.096312
     51          1           0        4.119055    5.635089   -1.829697
     52          7           0        2.331559    6.662145   -1.829029
     53          1           0        1.379202    6.664282   -2.174074
     54          7           0        1.641793    8.468616   -0.566906
     55          1           0        1.836550    9.083901    0.213586
     56          1           0        1.564143    8.988097   -1.435367
     57          7           0        3.335851    6.958401    0.246485
     58          1           0        3.442695    7.649414    0.990071
     59          6           0        2.497339    7.360974   -0.639341
     60          8           0        2.712045    2.568512    1.863797
     61          1           0        3.154419    2.900013    2.668935
     62          1           0        0.144874   -5.798669   -1.675202
 ---------------------------------------------------------------------

 SCF Done:  E(RB3LYP) =  -1447.50923245     A.U. after    3 cycles

 Alpha  occ. eigenvalues --  -19.32317 -19.28237 -19.27193 -19.27150 -19.22030
 Alpha  occ. eigenvalues --  -19.21835 -14.60936 -14.49281 -14.46239 -14.40331
 Alpha  occ. eigenvalues --  -14.40316 -14.34009 -10.45288 -10.43611 -10.41157
 Alpha  occ. eigenvalues --  -10.40115 -10.39176 -10.35507 -10.34729 -10.33550
 Alpha  occ. eigenvalues --  -10.32312 -10.32293 -10.29238 -10.28030 -10.27552
 Alpha  occ. eigenvalues --  -10.26654 -10.26216 -10.25389 -10.24736  -1.23565
 Alpha  occ. eigenvalues --   -1.19772  -1.18768  -1.14775  -1.14375  -1.13787
 Alpha  occ. eigenvalues --   -1.09779  -1.06463  -1.03161  -1.02874  -0.95538
 Alpha  occ. eigenvalues --   -0.94402  -0.91560  -0.89615  -0.88226  -0.87875
 Alpha  occ. eigenvalues --   -0.84930  -0.81530  -0.80373  -0.77026  -0.75650
 Alpha  occ. eigenvalues --   -0.74648  -0.74632  -0.74334  -0.72713  -0.70979
 Alpha  occ. eigenvalues --   -0.70497  -0.69179  -0.66579  -0.66030  -0.65070
 Alpha  occ. eigenvalues --   -0.64349  -0.63978  -0.62751  -0.62146  -0.60778
 Alpha  occ. eigenvalues --   -0.60188  -0.59934  -0.59511  -0.58382  -0.57488
 Alpha  occ. eigenvalues --   -0.57283  -0.56429  -0.55900  -0.55135  -0.54550
 Alpha  occ. eigenvalues --   -0.53831  -0.53561  -0.53094  -0.52269  -0.52107
 Alpha  occ. eigenvalues --   -0.51484  -0.51295  -0.50931  -0.50715  -0.50201
 Alpha  occ. eigenvalues --   -0.49291  -0.49108  -0.48518  -0.48232  -0.47050
 Alpha  occ. eigenvalues --   -0.46922  -0.46568  -0.45604  -0.45126  -0.44583
 Alpha  occ. eigenvalues --   -0.44342  -0.42520  -0.42003  -0.41851  -0.41806
 Alpha  occ. eigenvalues --   -0.41677  -0.41255  -0.40847  -0.40435  -0.39751
 Alpha  occ. eigenvalues --   -0.39533  -0.37302  -0.35852  -0.34010  -0.32139
 Alpha  occ. eigenvalues --   -0.30971  -0.28338
 Alpha virt. eigenvalues --   -0.13214  -0.12487  -0.11151  -0.08067  -0.07040
 Alpha virt. eigenvalues --   -0.06934  -0.04133  -0.03046  -0.02753  -0.01808
 Alpha virt. eigenvalues --   -0.00461  -0.00304   0.00116   0.00680   0.00842

 Mulliken charges:
               1
     1  N   -0.754000
     2  H    0.418709
     3  H    0.431311
     4  H    0.413379
     5  C   -0.120949
     6  H    0.232849
     7  C    0.656104
     8  C   -0.305965
     9  H    0.194992
    10  H    0.181287
    11  O   -0.550291
    12  C   -0.404814
    13  H    0.207999
    14  H    0.268709
    15  C    0.604063
    16  O   -0.495255
    17  O   -0.527585
    18  N   -0.621720
    19  H    0.399423
    20  C   -0.051755
    21  H    0.181927
    22  C    0.640256
    23  C   -0.295515
    24  H    0.155209
    25  H    0.159507
    26  O   -0.539816
    27  C   -0.099734
    28  H    0.154268
    29  C   -0.451986
    30  H    0.153327
    31  H    0.168094
    32  H    0.128039
    33  C   -0.446359
    34  H    0.149692
    35  H    0.150997
    36  H    0.160857
    37  N   -0.594388
    38  H    0.365511
    39  C   -0.074136
    40  H    0.212928
    41  C    0.604825
    42  C   -0.269356
    43  H    0.148196
    44  H    0.181672
    45  O   -0.436949
    46  C   -0.291046
    47  H    0.112824
    48  H    0.192204
    49  C   -0.122939
    50  H    0.133744
    51  H    0.184525
    52  N   -0.592018
    53  H    0.315507
    54  N   -0.757936
    55  H    0.326167
    56  H    0.328914
    57  N   -0.651231
    58  H    0.271733
    59  C    0.588553
    60  O   -0.583284
    61  H    0.427470
    62  H    0.433260
 Sum of Mulliken charges =   1.00000

 Dipole moment (field-independent basis, Debye):
    X=             -5.5059    Y=             -2.2241    Z=            -15.6615  Tot=             16.7494
 Quadrupole moment (field-independent basis, Debye-Ang):
   XX=           -179.1122   YY=            -91.0882   ZZ=            -67.2667
   XY=              5.8079   XZ=             22.1133   YZ=             24.1898

 Normal termination of Gaussian 16 at Thu Jun 23 05:54:41 2022.
