 Gaussian 16, Revision C.01,
 Gaussian 16:  ES64L-G16RevC.01  3-Jul-2019

 ----------------------------------------------------------------------
 # B3LYP/6-31G* empiricaldispersion=gd3bj guess=read geom=check nosymm
 integral(ultrafinegrid)
 ----------------------------------------------------------------------

 ------------------------------------------------------
 Candidate Structure: Conf:774 Charge calc in gas phase
 ------------------------------------------------------
 Structure from the checkpoint file:  "conf-774.chk"
 Charge =  1 Multiplicity = 1

                          Input orientation:
 ---------------------------------------------------------------------
 Center     Atomic      Atomic             Coordinates (Angstroms)
 Number     Number       Type             X           Y           Z
 ---------------------------------------------------------------------
      1          7           0        0.501849   -1.556074   -3.881673
      2          1           0        1.714421   -0.625054   -4.735562
      3          1           0        0.941997   -2.237691   -3.253752
      4          1           0       -0.111707   -2.102159   -4.485675
      5          6           0       -0.298070   -0.658341   -3.029382
      6          1           0        0.182350    0.323814   -3.028449
      7          6           0       -0.227088   -1.161354   -1.566037
      8          6           0       -1.711757   -0.501474   -3.621457
      9          1           0       -2.266184   -1.434797   -3.470756
     10          1           0       -1.588622   -0.370579   -4.703276
     11          8           0        0.245056   -2.259209   -1.318076
     12          6           0       -2.558116    0.660051   -3.099882
     13          1           0       -3.540018    0.649885   -3.588265
     14          1           0       -2.779412    0.566584   -2.030529
     15          6           0       -1.959513    2.026467   -3.352099
     16          8           0       -0.893040    2.258395   -3.901040
     17          8           0       -2.752653    3.001723   -2.890458
     18          7           0       -0.691488   -0.266786   -0.634552
     19          1           0       -0.920011    0.639938   -1.023101
     20          6           0       -0.171974   -0.131795    0.747732
     21          1           0       -0.901004    0.502617    1.261131
     22          6           0        1.158466    0.626695    0.592672
     23          6           0       -0.011873   -1.440864    1.515494
     24          1           0        0.684507   -2.082655    0.975797
     25          1           0       -0.982938   -1.951236    1.529218
     26          8           0        2.167152    0.086950    0.155480
     27          6           0        0.493070   -1.230748    2.955948
     28          1           0        1.494575   -0.780139    2.895263
     29          6           0       -0.403039   -0.299233    3.783957
     30          1           0       -1.440579   -0.656890    3.792726
     31          1           0       -0.058987   -0.256842    4.822556
     32          1           0       -0.403903    0.731301    3.408493
     33          6           0        0.637147   -2.594231    3.643107
     34          1           0       -0.339239   -3.083971    3.745674
     35          1           0        1.288587   -3.261449    3.068283
     36          1           0        1.062939   -2.485363    4.646186
     37          7           0        1.071222    1.974243    0.809391
     38          1           0        0.337542    2.350414    1.400769
     39          6           0        2.226101    2.836132    0.633658
     40          1           0        3.130697    2.234961    0.773495
     41          6           0        2.163403    3.912761    1.706024
     42          6           0        2.267951    3.483451   -0.774054
     43          1           0        3.183712    4.079892   -0.851649
     44          1           0        1.420725    4.176483   -0.867918
     45          8           0        1.208535    4.094427    2.429647
     46          6           0        2.199463    2.433867   -1.884606
     47          1           0        3.032258    1.729041   -1.793042
     48          1           0        1.285272    1.846831   -1.759301
     49          6           0        2.171372    3.029977   -3.293562
     50          1           0        3.084055    3.591524   -3.515637
     51          1           0        1.337178    3.725104   -3.410417
     52          7           0        1.961649    1.979654   -4.301839
     53          1           0        0.987815    1.723582   -4.445084
     54          7           0        4.190030    1.486182   -4.715903
     55          1           0        4.920092    0.813452   -4.895496
     56          1           0        4.448754    2.461240   -4.712791
     57          7           0        2.544800   -0.102235   -5.138020
     58          1           0        3.235774   -0.659874   -5.622540
     59          6           0        2.894805    1.111693   -4.713949
     60          8           0        3.279937    4.658756    1.727150
     61          1           0        3.164929    5.335523    2.422140
     62          1           0       -2.337882    3.858154   -3.110117
 ---------------------------------------------------------------------

 SCF Done:  E(RB3LYP) =  -1447.54766649     A.U. after    1 cycles

 Alpha  occ. eigenvalues --  -19.32135 -19.29935 -19.27509 -19.24466 -19.22489
 Alpha  occ. eigenvalues --  -19.21243 -14.51317 -14.50184 -14.48806 -14.46835
 Alpha  occ. eigenvalues --  -14.46109 -14.44760 -10.46786 -10.45360 -10.42443
 Alpha  occ. eigenvalues --  -10.39353 -10.38279 -10.35362 -10.34167 -10.34047
 Alpha  occ. eigenvalues --  -10.32990 -10.32366 -10.31555 -10.30398 -10.30128
 Alpha  occ. eigenvalues --  -10.25961 -10.25606 -10.24347 -10.23392  -1.23532
 Alpha  occ. eigenvalues --   -1.21003  -1.15239  -1.14545  -1.14416  -1.13314
 Alpha  occ. eigenvalues --   -1.12103  -1.04784  -1.03290  -1.03110  -1.02591
 Alpha  occ. eigenvalues --   -1.01274  -0.91861  -0.91546  -0.89045  -0.86744
 Alpha  occ. eigenvalues --   -0.84230  -0.82072  -0.80673  -0.76967  -0.76645
 Alpha  occ. eigenvalues --   -0.75167  -0.74089  -0.72533  -0.72256  -0.71533
 Alpha  occ. eigenvalues --   -0.70355  -0.69022  -0.68354  -0.67112  -0.65253
 Alpha  occ. eigenvalues --   -0.64798  -0.63818  -0.63355  -0.61778  -0.61493
 Alpha  occ. eigenvalues --   -0.60597  -0.60378  -0.60190  -0.59763  -0.59021
 Alpha  occ. eigenvalues --   -0.58170  -0.57870  -0.57015  -0.56336  -0.55928
 Alpha  occ. eigenvalues --   -0.54979  -0.54728  -0.54190  -0.53071  -0.52632
 Alpha  occ. eigenvalues --   -0.52535  -0.51692  -0.51232  -0.50836  -0.49889
 Alpha  occ. eigenvalues --   -0.49538  -0.49364  -0.48688  -0.48481  -0.47965
 Alpha  occ. eigenvalues --   -0.47721  -0.46913  -0.46703  -0.45858  -0.45354
 Alpha  occ. eigenvalues --   -0.44840  -0.44725  -0.44137  -0.43253  -0.42065
 Alpha  occ. eigenvalues --   -0.42051  -0.41065  -0.40119  -0.39779  -0.39649
 Alpha  occ. eigenvalues --   -0.39236  -0.38486  -0.38223  -0.37698  -0.35861
 Alpha  occ. eigenvalues --   -0.35389  -0.33571
 Alpha virt. eigenvalues --   -0.12401  -0.11686  -0.10317  -0.09241  -0.07372
 Alpha virt. eigenvalues --   -0.06262  -0.05250  -0.04250  -0.03726  -0.02210
 Alpha virt. eigenvalues --   -0.01914  -0.01118  -0.00790  -0.00370   0.01034

 Mulliken charges:
               1
     1  N   -0.802133
     2  H    0.442633
     3  H    0.362191
     4  H    0.335701
     5  C   -0.059263
     6  H    0.147865
     7  C    0.614148
     8  C   -0.290706
     9  H    0.182176
    10  H    0.171266
    11  O   -0.486620
    12  C   -0.388976
    13  H    0.220123
    14  H    0.206902
    15  C    0.586495
    16  O   -0.493325
    17  O   -0.535518
    18  N   -0.608749
    19  H    0.322893
    20  C   -0.059544
    21  H    0.151438
    22  C    0.618408
    23  C   -0.261723
    24  H    0.199159
    25  H    0.146437
    26  O   -0.520085
    27  C   -0.092171
    28  H    0.139484
    29  C   -0.454171
    30  H    0.149319
    31  H    0.162256
    32  H    0.125642
    33  C   -0.446052
    34  H    0.147738
    35  H    0.153348
    36  H    0.152714
    37  N   -0.628439
    38  H    0.359274
    39  C   -0.040655
    40  H    0.211103
    41  C    0.587133
    42  C   -0.271368
    43  H    0.173937
    44  H    0.145311
    45  O   -0.457459
    46  C   -0.273050
    47  H    0.179401
    48  H    0.153724
    49  C   -0.166002
    50  H    0.158536
    51  H    0.186572
    52  N   -0.610188
    53  H    0.402300
    54  N   -0.750460
    55  H    0.376348
    56  H    0.378918
    57  N   -0.787846
    58  H    0.354009
    59  C    0.779974
    60  O   -0.558602
    61  H    0.431577
    62  H    0.426652
 Sum of Mulliken charges =   1.00000

 Dipole moment (field-independent basis, Debye):
    X=              6.8054    Y=              8.8734    Z=            -15.8841  Tot=             19.4256
 Quadrupole moment (field-independent basis, Debye-Ang):
   XX=           -117.7291   YY=           -132.4573   ZZ=            -84.3574
   XY=             21.2681   XZ=            -31.5332   YZ=            -10.4149

 Normal termination of Gaussian 16 at Thu Jun 23 05:54:21 2022.
