 Gaussian 16, Revision C.01,
 Gaussian 16:  ES64L-G16RevC.01  3-Jul-2019

 ----------------------------------------------------------------------
 # B3LYP/6-31G* empiricaldispersion=gd3 guess=read geom=check nosymm in
 tegral(ultrafinegrid)
 ----------------------------------------------------------------------

 ------------------------------------------------------
 Candidate Structure: Conf:883 Charge calc in gas phase
 ------------------------------------------------------
 Structure from the checkpoint file:  "conf-883.chk"
 Charge =  1 Multiplicity = 1

                          Input orientation:
 ---------------------------------------------------------------------
 Center     Atomic      Atomic             Coordinates (Angstroms)
 Number     Number       Type             X           Y           Z
 ---------------------------------------------------------------------
      1          7           0       -4.860908    0.914582    4.827344
      2          1           0       -4.533187    0.499111    5.703307
      3          1           0       -5.693713    1.475124    5.025731
      4          1           0       -5.092706    0.139498    4.114066
      5          6           0       -3.792733    1.661204    4.075757
      6          1           0       -2.866110    1.667154    4.652382
      7          1           0       -4.114059    2.688887    3.898907
      8          6           0       -3.655111    0.859818    2.750721
      9          8           0       -4.406004   -0.121781    2.620019
     10          7           0       -2.763473    1.306536    1.887474
     11          1           0       -2.078314    2.028307    2.138525
     12          6           0       -2.383781    0.647494    0.633287
     13          1           0       -2.523947   -0.430989    0.749186
     14          6           0       -0.882418    0.988408    0.477650
     15          6           0       -3.183397    1.179463   -0.573884
     16          1           0       -3.013042    2.262751   -0.631197
     17          1           0       -2.742557    0.748028   -1.482258
     18          8           0       -0.386586    1.892188    1.162096
     19          6           0       -4.694651    0.882977   -0.564633
     20          1           0       -5.116386    1.270458    0.374417
     21          6           0       -5.365648    1.628824   -1.727984
     22          1           0       -4.975071    1.278566   -2.691540
     23          1           0       -6.447776    1.459168   -1.728143
     24          1           0       -5.192409    2.709863   -1.669322
     25          6           0       -4.989135   -0.621875   -0.638566
     26          1           0       -4.545603   -1.060043   -1.541762
     27          1           0       -4.606993   -1.159993    0.234136
     28          1           0       -6.069166   -0.799760   -0.682334
     29          7           0       -0.224561    0.277151   -0.441396
     30          1           0       -0.678535   -0.435535   -1.010440
     31          6           0        1.165279    0.513613   -0.814813
     32          1           0        1.327600    1.595938   -0.877338
     33          6           0        1.312430   -0.137050   -2.204275
     34          6           0        2.144659   -0.073736    0.246321
     35          1           0        1.785257    0.339107    1.197514
     36          8           0        0.489072   -0.970975   -2.590697
     37          6           0        2.068615   -1.604218    0.310604
     38          1           0        2.445589   -2.060553   -0.611875
     39          1           0        2.676532   -1.979779    1.140407
     40          1           0        1.040645   -1.952076    0.458895
     41          6           0        3.588077    0.411131    0.049671
     42          1           0        4.058076   -0.027631   -0.836769
     43          1           0        4.196972    0.123117    0.913056
     44          1           0        3.639632    1.503766   -0.037874
     45          7           0        2.386901    0.243483   -2.919324
     46          1           0        3.054537    0.906676   -2.542404
     47          6           0        2.797827   -0.401934   -4.157741
     48          1           0        2.375942   -1.408059   -4.182872
     49          6           0        4.317455   -0.482410   -4.172815
     50          6           0        2.306883    0.401623   -5.404145
     51          1           0        1.245450    0.162827   -5.529014
     52          1           0        2.360693    1.467775   -5.150473
     53          8           0        4.749969   -1.473830   -4.933570
     54          6           0        3.082379    0.149129   -6.717030
     55          1           0        2.408310    0.342978   -7.558884
     56          1           0        3.353991   -0.908621   -6.780111
     57          6           0        4.344027    1.046093   -6.876317
     58          1           0        4.074269    1.916834   -7.485037
     59          1           0        4.646516    1.455822   -5.904884
     60          6           0        5.577613    0.378429   -7.516573
     61          1           0        5.267575   -0.401401   -8.220952
     62          1           0        6.144301    1.123869   -8.091343
     63          7           0        6.452666   -0.263408   -6.498625
     64          1           0        7.225549   -0.750264   -6.950906
     65          1           0        6.865637    0.452971   -5.900312
     66          1           0        5.593743   -1.151458   -5.442803
     67          8           0        5.017320    0.361886   -3.630189
 ---------------------------------------------------------------------

 SCF Done:  E(RB3LYP) =  -1396.72382523     A.U. after    1 cycles

 Alpha  occ. eigenvalues --  -19.28302 -19.21947 -19.21924 -19.19331 -19.19154
 Alpha  occ. eigenvalues --  -14.61784 -14.50237 -14.45201 -14.43357 -14.41310
 Alpha  occ. eigenvalues --  -10.45055 -10.42211 -10.38911 -10.36957 -10.36464
 Alpha  occ. eigenvalues --  -10.34722 -10.31360 -10.29602 -10.28605 -10.28349
 Alpha  occ. eigenvalues --  -10.27858 -10.26902 -10.25320 -10.25195 -10.25113
 Alpha  occ. eigenvalues --  -10.24716 -10.24346 -10.24248 -10.24161  -1.20738
 Alpha  occ. eigenvalues --   -1.15333  -1.14351  -1.13875  -1.11236  -1.06995
 Alpha  occ. eigenvalues --   -1.05883  -1.01950  -0.99919  -0.96713  -0.92407
 Alpha  occ. eigenvalues --   -0.89669  -0.88250  -0.86129  -0.84906  -0.81839
 Alpha  occ. eigenvalues --   -0.78909  -0.76543  -0.76109  -0.75790  -0.75744
 Alpha  occ. eigenvalues --   -0.75397  -0.75231  -0.71697  -0.69260  -0.68886
 Alpha  occ. eigenvalues --   -0.68172  -0.67163  -0.65467  -0.64990  -0.64298
 Alpha  occ. eigenvalues --   -0.64034  -0.63208  -0.61986  -0.61281  -0.59210
 Alpha  occ. eigenvalues --   -0.57625  -0.57247  -0.56976  -0.56026  -0.55731
 Alpha  occ. eigenvalues --   -0.54462  -0.53945  -0.53588  -0.53471  -0.52632
 Alpha  occ. eigenvalues --   -0.52282  -0.51881  -0.51486  -0.51081  -0.50409
 Alpha  occ. eigenvalues --   -0.49480  -0.49165  -0.48140  -0.47865  -0.47708
 Alpha  occ. eigenvalues --   -0.47401  -0.47278  -0.46311  -0.46251  -0.45578
 Alpha  occ. eigenvalues --   -0.45038  -0.44544  -0.43929  -0.43218  -0.42752
 Alpha  occ. eigenvalues --   -0.42250  -0.42097  -0.41497  -0.41307  -0.41146
 Alpha  occ. eigenvalues --   -0.40640  -0.40605  -0.39868  -0.39557  -0.39444
 Alpha  occ. eigenvalues --   -0.39146  -0.36035  -0.35626  -0.34814  -0.33714
 Alpha  occ. eigenvalues --   -0.33693  -0.32767  -0.31693
 Alpha virt. eigenvalues --   -0.13326  -0.13051  -0.07782  -0.07400  -0.05924
 Alpha virt. eigenvalues --   -0.05388  -0.04538  -0.02393  -0.01953   0.00111
 Alpha virt. eigenvalues --    0.00903   0.01233   0.01637   0.02024   0.03312

 Mulliken charges:
               1
     1  N   -0.751587
     2  H    0.422810
     3  H    0.422547
     4  H    0.440252
     5  C   -0.278610
     6  H    0.248913
     7  H    0.249152
     8  C    0.638391
     9  O   -0.529305
    10  N   -0.585211
    11  H    0.373367
    12  C   -0.088503
    13  H    0.194498
    14  C    0.636841
    15  C   -0.258539
    16  H    0.152289
    17  H    0.164524
    18  O   -0.554056
    19  C   -0.071056
    20  H    0.112053
    21  C   -0.446830
    22  H    0.156223
    23  H    0.156164
    24  H    0.145751
    25  C   -0.460474
    26  H    0.151428
    27  H    0.158406
    28  H    0.156415
    29  N   -0.618741
    30  H    0.366122
    31  C   -0.053069
    32  H    0.174597
    33  C    0.621779
    34  C   -0.075277
    35  H    0.156331
    36  O   -0.549078
    37  C   -0.456209
    38  H    0.164620
    39  H    0.156089
    40  H    0.140976
    41  C   -0.477930
    42  H    0.169759
    43  H    0.162235
    44  H    0.148481
    45  N   -0.609858
    46  H    0.354999
    47  C   -0.025730
    48  H    0.196256
    49  C    0.583753
    50  C   -0.278341
    51  H    0.165121
    52  H    0.146938
    53  O   -0.597788
    54  C   -0.285473
    55  H    0.148278
    56  H    0.172133
    57  C   -0.293466
    58  H    0.152758
    59  H    0.161828
    60  C   -0.142892
    61  H    0.166133
    62  H    0.150907
    63  N   -0.780101
    64  H    0.335855
    65  H    0.342561
    66  H    0.459204
    67  O   -0.509612
 Sum of Mulliken charges =   1.00000

 Dipole moment (field-independent basis, Debye):
    X=            -11.5579    Y=              6.3745    Z=              9.7090  Tot=             16.3855
 Quadrupole moment (field-independent basis, Debye-Ang):
   XX=            -51.2954   YY=           -170.3440   ZZ=            -25.0041
   XY=            -23.3173   XZ=           -126.6807   YZ=             12.9368

 Normal termination of Gaussian 16 at Thu Jun  2 03:21:07 2022.
