 Gaussian 16, Revision C.01,
 Gaussian 16:  ES64L-G16RevC.01  3-Jul-2019

 ----------------------------------------------------------------------
 # B3LYP/6-31G* empiricaldispersion=gd3 guess=read geom=check nosymm in
 tegral(ultrafinegrid)
 ----------------------------------------------------------------------

 ------------------------------------------------------
 Candidate Structure: Conf:599 Charge calc in gas phase
 ------------------------------------------------------
 Structure from the checkpoint file:  "conf-599.chk"
 Charge =  1 Multiplicity = 1

                          Input orientation:
 ---------------------------------------------------------------------
 Center     Atomic      Atomic             Coordinates (Angstroms)
 Number     Number       Type             X           Y           Z
 ---------------------------------------------------------------------
      1          7           0       -5.945731    1.782254    3.363537
      2          1           0       -6.600794    2.558349    3.238493
      3          1           0       -6.041247    1.076204    2.552690
      4          1           0       -6.152693    1.323365    4.254578
      5          6           0       -4.501996    2.175319    3.207979
      6          1           0       -3.953355    1.949800    4.123902
      7          1           0       -4.430012    3.243980    2.998406
      8          6           0       -4.023012    1.312891    2.006846
      9          8           0       -4.874924    0.577608    1.478139
     10          7           0       -2.757243    1.429890    1.657902
     11          1           0       -2.099416    2.058846    2.126644
     12          6           0       -2.125889    0.705703    0.548624
     13          1           0       -2.465026   -0.333201    0.575885
     14          6           0       -0.617207    0.824977    0.838042
     15          6           0       -2.492441    1.368332   -0.802917
     16          1           0       -3.587676    1.359808   -0.878779
     17          1           0       -2.176403    2.417987   -0.744860
     18          8           0       -0.205298    1.785197    1.496301
     19          6           0       -1.894219    0.719278   -2.067350
     20          1           0       -0.801325    0.721821   -1.983420
     21          6           0       -2.352887   -0.733297   -2.258838
     22          1           0       -3.443623   -0.786359   -2.367202
     23          1           0       -1.897376   -1.161761   -3.156519
     24          1           0       -2.072194   -1.386348   -1.424001
     25          6           0       -2.260313    1.565351   -3.295803
     26          1           0       -3.347196    1.598935   -3.443644
     27          1           0       -1.899645    2.595734   -3.195159
     28          1           0       -1.813244    1.141058   -4.201215
     29          7           0        0.153437   -0.136001    0.307329
     30          1           0       -0.257694   -0.837704   -0.303002
     31          6           0        1.598860   -0.007202    0.118081
     32          1           0        1.871379    1.028615    0.344844
     33          6           0        1.813004   -0.330842   -1.374048
     34          6           0        2.395892   -0.960846    1.043167
     35          1           0        2.088181   -1.983823    0.784521
     36          8           0        1.104035   -1.181941   -1.921099
     37          6           0        3.907239   -0.827196    0.805118
     38          1           0        4.245080    0.200124    0.995784
     39          1           0        4.456378   -1.484380    1.486824
     40          1           0        4.193966   -1.093736   -0.216475
     41          6           0        2.047338   -0.692900    2.513193
     42          1           0        2.316123    0.331429    2.797487
     43          1           0        2.595123   -1.381829    3.164860
     44          1           0        0.977711   -0.824417    2.703852
     45          7           0        2.765754    0.371718   -2.009091
     46          1           0        3.364795    1.024701   -1.513214
     47          6           0        3.105639    0.169987   -3.410374
     48          1           0        3.304110   -0.893887   -3.589365
     49          6           0        4.379305    0.968117   -3.682887
     50          6           0        1.972627    0.596488   -4.381650
     51          1           0        2.327256    0.379159   -5.393263
     52          1           0        1.128004   -0.071630   -4.187714
     53          8           0        4.761172    0.867904   -4.948223
     54          6           0        1.474267    2.050674   -4.274572
     55          1           0        1.073732    2.210532   -3.264147
     56          1           0        0.616848    2.149006   -4.954230
     57          6           0        2.477851    3.189278   -4.567803
     58          1           0        1.954251    4.140545   -4.412829
     59          1           0        3.274284    3.170796   -3.818656
     60          6           0        3.111478    3.185509   -5.980654
     61          1           0        2.903221    2.242838   -6.495912
     62          1           0        2.673466    3.986500   -6.591808
     63          7           0        4.592305    3.304102   -5.909785
     64          1           0        4.980214    3.440583   -6.842935
     65          1           0        4.858604    4.121804   -5.362043
     66          1           0        5.055476    1.796296   -5.268225
     67          8           0        4.896911    1.684426   -2.841073
 ---------------------------------------------------------------------

 SCF Done:  E(RB3LYP) =  -1396.72499470     A.U. after    1 cycles

 Alpha  occ. eigenvalues --  -19.28421 -19.22646 -19.22090 -19.19949 -19.19574
 Alpha  occ. eigenvalues --  -14.61925 -14.50600 -14.45547 -14.43699 -14.41501
 Alpha  occ. eigenvalues --  -10.45205 -10.42420 -10.39105 -10.37800 -10.36627
 Alpha  occ. eigenvalues --  -10.34930 -10.31442 -10.30354 -10.28767 -10.28661
 Alpha  occ. eigenvalues --  -10.27614 -10.27072 -10.25628 -10.25372 -10.25360
 Alpha  occ. eigenvalues --  -10.25329 -10.25284 -10.24411 -10.24358  -1.20887
 Alpha  occ. eigenvalues --   -1.15483  -1.15152  -1.14065  -1.11479  -1.07231
 Alpha  occ. eigenvalues --   -1.06786  -1.02278  -1.00195  -0.96883  -0.92506
 Alpha  occ. eigenvalues --   -0.89896  -0.88438  -0.86757  -0.84937  -0.82462
 Alpha  occ. eigenvalues --   -0.79130  -0.76852  -0.76280  -0.76146  -0.75897
 Alpha  occ. eigenvalues --   -0.75533  -0.75332  -0.71958  -0.70787  -0.69231
 Alpha  occ. eigenvalues --   -0.67450  -0.67383  -0.66068  -0.65597  -0.64724
 Alpha  occ. eigenvalues --   -0.64228  -0.63222  -0.61933  -0.61161  -0.59599
 Alpha  occ. eigenvalues --   -0.58400  -0.57276  -0.56739  -0.56461  -0.56244
 Alpha  occ. eigenvalues --   -0.54934  -0.54308  -0.54153  -0.53597  -0.53257
 Alpha  occ. eigenvalues --   -0.52815  -0.52100  -0.51611  -0.51232  -0.51005
 Alpha  occ. eigenvalues --   -0.50623  -0.49681  -0.48409  -0.48326  -0.47506
 Alpha  occ. eigenvalues --   -0.46952  -0.46436  -0.46418  -0.46071  -0.46024
 Alpha  occ. eigenvalues --   -0.45232  -0.45138  -0.44886  -0.44356  -0.43676
 Alpha  occ. eigenvalues --   -0.42930  -0.42772  -0.41589  -0.41376  -0.41105
 Alpha  occ. eigenvalues --   -0.40939  -0.40508  -0.40389  -0.39847  -0.39277
 Alpha  occ. eigenvalues --   -0.38996  -0.36429  -0.36218  -0.35452  -0.34104
 Alpha  occ. eigenvalues --   -0.33459  -0.33061  -0.32810
 Alpha virt. eigenvalues --   -0.13500  -0.13190  -0.08261  -0.07642  -0.06153
 Alpha virt. eigenvalues --   -0.05991  -0.05251  -0.02553  -0.01757  -0.01182
 Alpha virt. eigenvalues --   -0.00189   0.00533   0.01047   0.01772   0.02895

 Mulliken charges:
               1
     1  N   -0.751712
     2  H    0.422573
     3  H    0.440599
     4  H    0.423060
     5  C   -0.276441
     6  H    0.248801
     7  H    0.248095
     8  C    0.642135
     9  O   -0.532793
    10  N   -0.600440
    11  H    0.374241
    12  C   -0.068278
    13  H    0.191208
    14  C    0.618456
    15  C   -0.257958
    16  H    0.159326
    17  H    0.150130
    18  O   -0.546237
    19  C   -0.107443
    20  H    0.154389
    21  C   -0.449266
    22  H    0.148113
    23  H    0.176513
    24  H    0.134692
    25  C   -0.448549
    26  H    0.146413
    27  H    0.146050
    28  H    0.161827
    29  N   -0.608337
    30  H    0.370938
    31  C   -0.062771
    32  H    0.175132
    33  C    0.632176
    34  C   -0.074134
    35  H    0.146593
    36  O   -0.555610
    37  C   -0.467884
    38  H    0.149401
    39  H    0.165476
    40  H    0.163159
    41  C   -0.444703
    42  H    0.156287
    43  H    0.157718
    44  H    0.140538
    45  N   -0.617697
    46  H    0.359489
    47  C   -0.024481
    48  H    0.193909
    49  C    0.594915
    50  C   -0.291770
    51  H    0.169060
    52  H    0.176432
    53  O   -0.603275
    54  C   -0.280745
    55  H    0.136978
    56  H    0.144825
    57  C   -0.304934
    58  H    0.145270
    59  H    0.173676
    60  C   -0.139790
    61  H    0.169097
    62  H    0.150192
    63  N   -0.777096
    64  H    0.333394
    65  H    0.333753
    66  H    0.456826
    67  O   -0.489514
 Sum of Mulliken charges =   1.00000

 Dipole moment (field-independent basis, Debye):
    X=            -17.4431    Y=             11.2324    Z=              6.9333  Tot=             21.8746
 Quadrupole moment (field-independent basis, Debye-Ang):
   XX=            -49.6981   YY=           -142.8294   ZZ=            -83.4869
   XY=            -32.5971   XZ=            -92.4823   YZ=             -4.6387

 Normal termination of Gaussian 16 at Thu Jun  2 03:21:26 2022.
