 Gaussian 16, Revision C.01,
 Gaussian 16:  ES64L-G16RevC.01  3-Jul-2019

 ----------------------------------------------------------------------
 # B3LYP/6-31G* empiricaldispersion=gd3 guess=read geom=check nosymm in
 tegral(ultrafinegrid)
 ----------------------------------------------------------------------

 ------------------------------------------------------
 Candidate Structure: Conf:950 Charge calc in gas phase
 ------------------------------------------------------
 Structure from the checkpoint file:  "conf-950.chk"
 Charge =  1 Multiplicity = 1

                          Input orientation:
 ---------------------------------------------------------------------
 Center     Atomic      Atomic             Coordinates (Angstroms)
 Number     Number       Type             X           Y           Z
 ---------------------------------------------------------------------
      1          7           0       -5.345811   -1.739017    4.130516
      2          1           0       -6.238626   -1.335476    4.425436
      3          1           0       -5.394713   -2.041672    3.094380
      4          1           0       -5.142750   -2.547207    4.724414
      5          6           0       -4.222166   -0.741260    4.062124
      6          1           0       -3.408997   -1.049782    4.721199
      7          1           0       -4.581058    0.242759    4.368487
      8          6           0       -3.808859   -0.770120    2.563863
      9          8           0       -4.458296   -1.532376    1.825809
     10          7           0       -2.809467    0.011027    2.208601
     11          1           0       -2.291785    0.604864    2.865166
     12          6           0       -2.274348    0.119163    0.846712
     13          1           0       -2.147608   -0.890086    0.444690
     14          6           0       -0.906245    0.806534    1.048688
     15          6           0       -3.233552    0.937927   -0.050343
     16          1           0       -4.220135    0.463248    0.028431
     17          1           0       -3.319969    1.942396    0.383939
     18          8           0       -0.673993    1.406372    2.105625
     19          6           0       -2.861701    1.046647   -1.543592
     20          1           0       -1.898835    1.563862   -1.635949
     21          6           0       -2.738112   -0.327055   -2.220396
     22          1           0       -3.672105   -0.895170   -2.123501
     23          1           0       -2.521125   -0.209138   -3.286428
     24          1           0       -1.932064   -0.942409   -1.802162
     25          6           0       -3.916273    1.904210   -2.259713
     26          1           0       -4.903993    1.427343   -2.219300
     27          1           0       -4.002126    2.898109   -1.805138
     28          1           0       -3.653656    2.038387   -3.314218
     29          7           0       -0.052972    0.712796    0.024316
     30          1           0       -0.312824    0.267774   -0.852851
     31          6           0        1.209240    1.437288   -0.051572
     32          1           0        1.085680    2.396220    0.464128
     33          6           0        1.443666    1.656874   -1.559700
     34          6           0        2.355319    0.642244    0.643624
     35          1           0        1.948608    0.408523    1.636360
     36          8           0        0.833135    0.975668   -2.386194
     37          6           0        2.664786   -0.671066   -0.085926
     38          1           0        3.089718   -0.484548   -1.079065
     39          1           0        3.393241   -1.258371    0.482774
     40          1           0        1.765610   -1.282702   -0.216042
     41          6           0        3.624252    1.482685    0.848146
     42          1           0        4.161168    1.663020   -0.089404
     43          1           0        4.313759    0.954425    1.515072
     44          1           0        3.398125    2.450718    1.313992
     45          7           0        2.343551    2.611847   -1.881256
     46          1           0        2.854275    3.073112   -1.139180
     47          6           0        2.886728    2.783856   -3.226882
     48          1           0        2.323064    2.133851   -3.895253
     49          6           0        4.348552    2.361362   -3.277132
     50          6           0        2.777373    4.266396   -3.669223
     51          1           0        1.727522    4.445522   -3.927770
     52          1           0        2.996148    4.900145   -2.800492
     53          8           0        4.816320    1.715181   -4.193330
     54          6           0        3.692776    4.690991   -4.844036
     55          1           0        3.182677    5.506760   -5.366687
     56          1           0        3.762773    3.870987   -5.569026
     57          6           0        5.121209    5.186199   -4.447790
     58          1           0        5.263138    6.184524   -4.874804
     59          1           0        5.166452    5.321486   -3.360678
     60          6           0        6.322034    4.301232   -4.880463
     61          1           0        5.974552    3.425663   -5.430893
     62          1           0        6.984516    4.867914   -5.547990
     63          7           0        7.084130    3.781910   -3.709553
     64          1           0        7.767430    3.093781   -4.023793
     65          1           0        7.611111    4.538339   -3.272624
     66          1           0        5.999400    3.095194   -2.678151
     67          8           0        5.059014    2.909460   -2.283421
 ---------------------------------------------------------------------

 SCF Done:  E(RB3LYP) =  -1396.71777330     A.U. after    1 cycles

 Alpha  occ. eigenvalues --  -19.28128 -19.22182 -19.21896 -19.19706 -19.18672
 Alpha  occ. eigenvalues --  -14.61623 -14.50164 -14.45178 -14.43962 -14.41077
 Alpha  occ. eigenvalues --  -10.44868 -10.42120 -10.38883 -10.36817 -10.36491
 Alpha  occ. eigenvalues --  -10.34618 -10.31497 -10.29559 -10.28424 -10.27542
 Alpha  occ. eigenvalues --  -10.27319 -10.27107 -10.25569 -10.25164 -10.24801
 Alpha  occ. eigenvalues --  -10.24732 -10.24671 -10.24477 -10.24198  -1.20580
 Alpha  occ. eigenvalues --   -1.15176  -1.14139  -1.13845  -1.11552  -1.06861
 Alpha  occ. eigenvalues --   -1.05514  -1.02027  -1.00375  -0.96281  -0.92198
 Alpha  occ. eigenvalues --   -0.89585  -0.88228  -0.86214  -0.84636  -0.81792
 Alpha  occ. eigenvalues --   -0.79023  -0.76631  -0.75875  -0.75617  -0.75581
 Alpha  occ. eigenvalues --   -0.75250  -0.75187  -0.71524  -0.69147  -0.68943
 Alpha  occ. eigenvalues --   -0.67851  -0.66803  -0.66007  -0.65134  -0.64600
 Alpha  occ. eigenvalues --   -0.63932  -0.63045  -0.61641  -0.60900  -0.59254
 Alpha  occ. eigenvalues --   -0.58180  -0.56888  -0.56705  -0.55760  -0.55233
 Alpha  occ. eigenvalues --   -0.54357  -0.54154  -0.53837  -0.53442  -0.52672
 Alpha  occ. eigenvalues --   -0.52349  -0.51717  -0.51485  -0.51013  -0.50563
 Alpha  occ. eigenvalues --   -0.50177  -0.48313  -0.48168  -0.47670  -0.47316
 Alpha  occ. eigenvalues --   -0.46823  -0.46488  -0.46018  -0.45760  -0.45493
 Alpha  occ. eigenvalues --   -0.44920  -0.44676  -0.44469  -0.43597  -0.43302
 Alpha  occ. eigenvalues --   -0.42534  -0.41610  -0.41512  -0.41053  -0.40872
 Alpha  occ. eigenvalues --   -0.40735  -0.40553  -0.39743  -0.39358  -0.38989
 Alpha  occ. eigenvalues --   -0.38947  -0.36147  -0.35944  -0.35215  -0.34517
 Alpha  occ. eigenvalues --   -0.33437  -0.33141  -0.30600
 Alpha virt. eigenvalues --   -0.13185  -0.12945  -0.07855  -0.07308  -0.05868
 Alpha virt. eigenvalues --   -0.05720  -0.04561  -0.02250  -0.01368  -0.00171
 Alpha virt. eigenvalues --    0.00662   0.01087   0.01353   0.02610   0.03176

 Mulliken charges:
               1
     1  N   -0.752107
     2  H    0.422074
     3  H    0.440413
     4  H    0.422237
     5  C   -0.276095
     6  H    0.247789
     7  H    0.247896
     8  C    0.642277
     9  O   -0.534517
    10  N   -0.603071
    11  H    0.375599
    12  C   -0.069437
    13  H    0.193670
    14  C    0.625600
    15  C   -0.259997
    16  H    0.160732
    17  H    0.150432
    18  O   -0.553193
    19  C   -0.099933
    20  H    0.151017
    21  C   -0.455177
    22  H    0.149396
    23  H    0.175590
    24  H    0.137465
    25  C   -0.447820
    26  H    0.145438
    27  H    0.147540
    28  H    0.163850
    29  N   -0.622840
    30  H    0.383351
    31  C   -0.067373
    32  H    0.176313
    33  C    0.628922
    34  C   -0.068742
    35  H    0.153672
    36  O   -0.542684
    37  C   -0.459371
    38  H    0.168574
    39  H    0.157903
    40  H    0.142861
    41  C   -0.488982
    42  H    0.177342
    43  H    0.163564
    44  H    0.143976
    45  N   -0.606101
    46  H    0.352555
    47  C   -0.047952
    48  H    0.202254
    49  C    0.609017
    50  C   -0.274959
    51  H    0.157902
    52  H    0.143947
    53  O   -0.480832
    54  C   -0.291942
    55  H    0.152186
    56  H    0.167912
    57  C   -0.289261
    58  H    0.152815
    59  H    0.152753
    60  C   -0.158152
    61  H    0.196610
    62  H    0.148744
    63  N   -0.775273
    64  H    0.339184
    65  H    0.327003
    66  H    0.457978
    67  O   -0.630545
 Sum of Mulliken charges =   1.00000

 Dipole moment (field-independent basis, Debye):
    X=            -12.0078    Y=              1.5873    Z=             12.7043  Tot=             17.5529
 Quadrupole moment (field-independent basis, Debye-Ang):
   XX=            -22.5469   YY=           -133.4379   ZZ=            -92.6868
   XY=             61.8019   XZ=           -103.2227   YZ=            -51.7236

 Normal termination of Gaussian 16 at Thu Jun  2 03:21:06 2022.
