 Gaussian 16, Revision C.01,
 Gaussian 16:  ES64L-G16RevC.01  3-Jul-2019

 ----------------------------------------------------------------------
 # B3LYP/6-31G* empiricaldispersion=gd3 guess=read geom=check nosymm in
 tegral(ultrafinegrid)
 ----------------------------------------------------------------------

 -----------------------------------------------------
 Candidate Structure: Conf:81 Charge calc in gas phase
 -----------------------------------------------------
 Structure from the checkpoint file:  "conf-81.chk"
 Charge =  1 Multiplicity = 1

                          Input orientation:
 ---------------------------------------------------------------------
 Center     Atomic      Atomic             Coordinates (Angstroms)
 Number     Number       Type             X           Y           Z
 ---------------------------------------------------------------------
      1          7           0       -4.634583    0.689567    5.552873
      2          1           0       -4.263638    0.259907    6.404549
      3          1           0       -5.451503    1.252736    5.803410
      4          1           0       -4.910012   -0.074058    4.844837
      5          6           0       -3.602012    1.440277    4.756613
      6          1           0       -2.648014    1.437517    5.286774
      7          1           0       -3.928161    2.470782    4.606802
      8          6           0       -3.532844    0.653494    3.417807
      9          8           0       -4.295900   -0.321016    3.309768
     10          7           0       -2.677995    1.103986    2.519212
     11          1           0       -1.980039    1.820942    2.745759
     12          6           0       -2.361657    0.455981    1.242405
     13          1           0       -2.507871   -0.622272    1.352422
     14          6           0       -0.867702    0.786665    1.017951
     15          6           0       -3.207068    1.011164    0.076855
     16          1           0       -3.032381    2.094262    0.030098
     17          1           0       -2.807047    0.593213   -0.856800
     18          8           0       -0.336135    1.685931    1.677337
     19          6           0       -4.718353    0.723317    0.144430
     20          1           0       -5.098605    1.101310    1.104735
     21          6           0       -5.431112    1.487672   -0.981423
     22          1           0       -5.082032    1.146918   -1.964228
     23          1           0       -6.513444    1.324814   -0.939733
     24          1           0       -5.248383    2.566763   -0.916735
     25          6           0       -5.025053   -0.778715    0.064444
     26          1           0       -4.618982   -1.208850   -0.860109
     27          1           0       -4.613550   -1.329144    0.915909
     28          1           0       -6.107026   -0.949761    0.059838
     29          7           0       -0.259455    0.061714    0.070343
     30          1           0       -0.786950   -0.586743   -0.508737
     31          6           0        1.065167    0.363132   -0.468405
     32          1           0        1.314205    1.391684   -0.187525
     33          6           0        0.908935    0.220749   -1.993403
     34          6           0        2.154656   -0.597521    0.089744
     35          1           0        1.897512   -1.606420   -0.263345
     36          8           0        0.088719   -0.581596   -2.453381
     37          6           0        3.553416   -0.231750   -0.431137
     38          1           0        3.822912    0.792510   -0.141323
     39          1           0        4.301097   -0.900504    0.007147
     40          1           0        3.643616   -0.305133   -1.517844
     41          6           0        2.138451   -0.594835    1.625085
     42          1           0        2.334395    0.410124    2.016016
     43          1           0        2.911443   -1.268453    2.009782
     44          1           0        1.174629   -0.928604    2.021466
     45          7           0        1.703036    1.000505   -2.750818
     46          1           0        2.457023    1.529988   -2.322574
     47          6           0        1.864827    0.791167   -4.181924
     48          1           0        1.605584   -0.249828   -4.391954
     49          6           0        3.348889    0.982225   -4.525350
     50          6           0        0.972729    1.725861   -5.032102
     51          1           0        0.955682    2.708218   -4.546047
     52          1           0        1.439892    1.876439   -6.010249
     53          8           0        3.677688    0.637408   -5.764973
     54          6           0       -0.457038    1.205902   -5.225721
     55          1           0       -1.017162    1.961366   -5.793039
     56          1           0       -0.948905    1.107387   -4.251180
     57          6           0       -0.562625   -0.145016   -5.958441
     58          1           0       -0.241922   -0.957211   -5.292488
     59          1           0       -1.624067   -0.336031   -6.157843
     60          6           0        0.196626   -0.239288   -7.292915
     61          1           0       -0.318393   -0.948698   -7.955882
     62          1           0        0.189084    0.732010   -7.801657
     63          7           0        1.620673   -0.636677   -7.116060
     64          1           0        2.059961   -0.708110   -8.035367
     65          1           0        2.886910    0.236719   -6.250367
     66          1           0        1.649337   -1.583142   -6.732995
     67          8           0        4.144879    1.427754   -3.722609
 ---------------------------------------------------------------------

 SCF Done:  E(RB3LYP) =  -1396.72717265     A.U. after    1 cycles

 Alpha  occ. eigenvalues --  -19.28622 -19.22968 -19.22402 -19.20050 -19.18863
 Alpha  occ. eigenvalues --  -14.62105 -14.50605 -14.45788 -14.43813 -14.42065
 Alpha  occ. eigenvalues --  -10.45394 -10.42507 -10.39392 -10.37189 -10.37011
 Alpha  occ. eigenvalues --  -10.35156 -10.31714 -10.30275 -10.29052 -10.29021
 Alpha  occ. eigenvalues --  -10.28288 -10.27304 -10.25699 -10.25628 -10.25574
 Alpha  occ. eigenvalues --  -10.25394 -10.25041 -10.24551 -10.24183  -1.21051
 Alpha  occ. eigenvalues --   -1.15667  -1.14603  -1.14352  -1.11799  -1.07361
 Alpha  occ. eigenvalues --   -1.06671  -1.02500  -1.00422  -0.97466  -0.92781
 Alpha  occ. eigenvalues --   -0.90053  -0.88698  -0.86983  -0.85298  -0.82459
 Alpha  occ. eigenvalues --   -0.79357  -0.76962  -0.76525  -0.76129  -0.76038
 Alpha  occ. eigenvalues --   -0.75724  -0.75284  -0.72102  -0.70439  -0.69203
 Alpha  occ. eigenvalues --   -0.67895  -0.66986  -0.65683  -0.65387  -0.65371
 Alpha  occ. eigenvalues --   -0.64490  -0.63780  -0.62556  -0.62237  -0.60113
 Alpha  occ. eigenvalues --   -0.58951  -0.57654  -0.57589  -0.56902  -0.55812
 Alpha  occ. eigenvalues --   -0.55245  -0.54503  -0.54319  -0.53850  -0.53430
 Alpha  occ. eigenvalues --   -0.53009  -0.52268  -0.51483  -0.51018  -0.50452
 Alpha  occ. eigenvalues --   -0.49962  -0.49323  -0.48710  -0.48241  -0.47962
 Alpha  occ. eigenvalues --   -0.47410  -0.46791  -0.46536  -0.45997  -0.45898
 Alpha  occ. eigenvalues --   -0.45452  -0.44955  -0.44905  -0.44093  -0.43586
 Alpha  occ. eigenvalues --   -0.43532  -0.42525  -0.41930  -0.41730  -0.41564
 Alpha  occ. eigenvalues --   -0.41049  -0.40683  -0.40551  -0.40352  -0.39939
 Alpha  occ. eigenvalues --   -0.39480  -0.36559  -0.36125  -0.35508  -0.34271
 Alpha  occ. eigenvalues --   -0.33896  -0.33317  -0.32302
 Alpha virt. eigenvalues --   -0.13654  -0.13314  -0.08127  -0.07760  -0.06230
 Alpha virt. eigenvalues --   -0.05826  -0.04078  -0.02720  -0.02284  -0.00806
 Alpha virt. eigenvalues --   -0.00461   0.00813   0.01497   0.01675   0.02962

 Mulliken charges:
               1
     1  N   -0.751205
     2  H    0.423562
     3  H    0.423162
     4  H    0.440072
     5  C   -0.278853
     6  H    0.249840
     7  H    0.249853
     8  C    0.638525
     9  O   -0.528967
    10  N   -0.585695
    11  H    0.374087
    12  C   -0.089688
    13  H    0.194332
    14  C    0.633305
    15  C   -0.261243
    16  H    0.153565
    17  H    0.163943
    18  O   -0.546632
    19  C   -0.071059
    20  H    0.113726
    21  C   -0.446763
    22  H    0.154341
    23  H    0.156990
    24  H    0.146755
    25  C   -0.460601
    26  H    0.149203
    27  H    0.158765
    28  H    0.157473
    29  N   -0.605224
    30  H    0.359282
    31  C   -0.062244
    32  H    0.179389
    33  C    0.619124
    34  C   -0.073884
    35  H    0.142597
    36  O   -0.555862
    37  C   -0.473368
    38  H    0.151667
    39  H    0.163858
    40  H    0.171199
    41  C   -0.444588
    42  H    0.160016
    43  H    0.157700
    44  H    0.134585
    45  N   -0.599293
    46  H    0.359999
    47  C   -0.077479
    48  H    0.179587
    49  C    0.605727
    50  C   -0.268456
    51  H    0.154996
    52  H    0.157174
    53  O   -0.608866
    54  C   -0.264821
    55  H    0.140747
    56  H    0.152008
    57  C   -0.277602
    58  H    0.158939
    59  H    0.150093
    60  C   -0.146870
    61  H    0.148278
    62  H    0.163721
    63  N   -0.775483
    64  H    0.337279
    65  H    0.473340
    66  H    0.327555
    67  O   -0.475617
 Sum of Mulliken charges =   1.00000

 Dipole moment (field-independent basis, Debye):
    X=            -18.3087    Y=              2.4667    Z=             13.0666  Tot=             22.6280
 Quadrupole moment (field-independent basis, Debye-Ang):
   XX=           -115.0236   YY=           -167.6165   ZZ=              1.0384
   XY=            -30.3540   XZ=            -81.0942   YZ=             29.8653

 Normal termination of Gaussian 16 at Thu Jun  2 03:14:50 2022.
