 Gaussian 16, Revision C.01,
 Gaussian 16:  ES64L-G16RevC.01  3-Jul-2019

 ----------------------------------------------------------------------
 # B3LYP/6-31G* empiricaldispersion=gd3 guess=read geom=check nosymm in
 tegral(ultrafinegrid)
 ----------------------------------------------------------------------

 ------------------------------------------------------
 Candidate Structure: Conf:879 Charge calc in gas phase
 ------------------------------------------------------
 Structure from the checkpoint file:  "conf-879.chk"
 Charge =  1 Multiplicity = 1

                          Input orientation:
 ---------------------------------------------------------------------
 Center     Atomic      Atomic             Coordinates (Angstroms)
 Number     Number       Type             X           Y           Z
 ---------------------------------------------------------------------
      1          7           0       -1.121004   -1.161357   -2.641325
      2          1           0       -0.699680   -1.589197   -3.464738
      3          1           0        0.460059   -0.355760   -1.946273
      4          1           0       -1.555573   -1.924988   -2.126671
      5          6           0       -2.139415   -0.165925   -3.066567
      6          1           0       -3.143233   -0.598792   -3.175612
      7          1           0       -1.846333    0.265178   -4.024325
      8          6           0       -2.133202    0.972958   -2.050344
      9          8           0       -1.676521    2.086810   -2.308271
     10          7           0       -2.554925    0.651772   -0.794802
     11          1           0       -2.939073   -0.266956   -0.615189
     12          6           0       -2.114991    1.455697    0.346243
     13          1           0       -2.434590    2.487121    0.186819
     14          6           0       -0.569769    1.484843    0.360127
     15          6           0       -2.715527    0.920601    1.654581
     16          1           0       -3.805230    1.042483    1.598260
     17          1           0       -2.525475   -0.161624    1.725057
     18          8           0        0.068343    2.544771    0.298772
     19          6           0       -2.182072    1.599638    2.932119
     20          1           0       -1.106578    1.380501    3.004880
     21          6           0       -2.354459    3.125641    2.894990
     22          1           0       -3.404152    3.398653    2.725909
     23          1           0       -2.046871    3.567563    3.848101
     24          1           0       -1.741752    3.584033    2.110789
     25          6           0       -2.871931    0.993114    4.161770
     26          1           0       -3.948940    1.201546    4.148976
     27          1           0       -2.739494   -0.094468    4.203657
     28          1           0       -2.461640    1.416010    5.084340
     29          7           0        0.020143    0.275964    0.420904
     30          1           0       -0.577331   -0.537790    0.464639
     31          6           0        1.468960    0.043717    0.366503
     32          1           0        1.953358    0.692502    1.100560
     33          6           0        2.018728    0.448620   -0.996260
     34          6           0        1.762345   -1.439518    0.708739
     35          1           0        1.218371   -2.057249   -0.024988
     36          8           0        1.328553    0.097899   -2.098967
     37          6           0        3.259828   -1.753441    0.580217
     38          1           0        3.845933   -1.129930    1.265517
     39          1           0        3.444392   -2.800319    0.839729
     40          1           0        3.636918   -1.583012   -0.431217
     41          6           0        1.264948   -1.785322    2.122308
     42          1           0        1.790885   -1.180132    2.870048
     43          1           0        1.461847   -2.838358    2.345733
     44          1           0        0.190198   -1.616408    2.258241
     45          7           0        3.120824    1.082363   -1.041562
     46          1           0        4.940952    0.977001   -0.449161
     47          6           0        3.691184    1.482808   -2.323392
     48          1           0        3.358624    0.848558   -3.154016
     49          6           0        5.225485    1.367792   -2.257530
     50          6           0        3.319921    2.951104   -2.636133
     51          1           0        3.737482    3.593297   -1.849170
     52          1           0        3.810495    3.224245   -3.576414
     53          8           0        5.718684    1.055293   -1.046879
     54          6           0        1.805664    3.146312   -2.710217
     55          1           0        1.376904    2.789523   -1.769538
     56          1           0        1.382638    2.510257   -3.497531
     57          6           0        1.370113    4.596106   -2.941300
     58          1           0        1.836523    5.268502   -2.206660
     59          1           0        1.700724    4.947129   -3.926222
     60          6           0       -0.148029    4.742655   -2.894467
     61          1           0       -0.488972    5.729392   -3.218278
     62          1           0       -0.640360    3.973756   -3.491565
     63          7           0       -0.681210    4.552263   -1.483872
     64          1           0       -1.695682    4.418448   -1.505531
     65          1           0       -0.314599    3.704154   -0.987327
     66          1           0       -0.463330    5.358762   -0.891017
     67          8           0        5.919775    1.569789   -3.223447
 ---------------------------------------------------------------------

 SCF Done:  E(RB3LYP) =  -1396.72747567     A.U. after    1 cycles

 Alpha  occ. eigenvalues --  -19.27813 -19.26301 -19.26119 -19.24197 -19.18437
 Alpha  occ. eigenvalues --  -14.57633 -14.50486 -14.49950 -14.48037 -14.41359
 Alpha  occ. eigenvalues --  -10.43016 -10.42741 -10.38426 -10.37044 -10.36993
 Alpha  occ. eigenvalues --  -10.36978 -10.35954 -10.34911 -10.31745 -10.31082
 Alpha  occ. eigenvalues --  -10.30851 -10.30437 -10.30212 -10.28165 -10.28125
 Alpha  occ. eigenvalues --  -10.27660 -10.27455 -10.27065 -10.26925  -1.18407
 Alpha  occ. eigenvalues --   -1.17355  -1.16685  -1.15081  -1.12278  -1.07464
 Alpha  occ. eigenvalues --   -1.06957  -1.05743  -1.03300  -1.00714  -0.93569
 Alpha  occ. eigenvalues --   -0.91997  -0.91430  -0.87724  -0.86759  -0.83563
 Alpha  occ. eigenvalues --   -0.82692  -0.80342  -0.78840  -0.78531  -0.77073
 Alpha  occ. eigenvalues --   -0.74913  -0.73609  -0.72486  -0.71361  -0.70182
 Alpha  occ. eigenvalues --   -0.69592  -0.69051  -0.68355  -0.66965  -0.66205
 Alpha  occ. eigenvalues --   -0.65703  -0.64376  -0.63241  -0.62359  -0.62094
 Alpha  occ. eigenvalues --   -0.61992  -0.61048  -0.59928  -0.58889  -0.58293
 Alpha  occ. eigenvalues --   -0.58101  -0.56406  -0.55772  -0.55522  -0.55121
 Alpha  occ. eigenvalues --   -0.54655  -0.53934  -0.53383  -0.52956  -0.52813
 Alpha  occ. eigenvalues --   -0.52118  -0.51686  -0.51285  -0.50345  -0.50048
 Alpha  occ. eigenvalues --   -0.49859  -0.48913  -0.48868  -0.48353  -0.48264
 Alpha  occ. eigenvalues --   -0.47950  -0.47401  -0.47287  -0.46307  -0.45196
 Alpha  occ. eigenvalues --   -0.44770  -0.44322  -0.44018  -0.43971  -0.43614
 Alpha  occ. eigenvalues --   -0.43488  -0.43305  -0.43151  -0.42358  -0.41999
 Alpha  occ. eigenvalues --   -0.41567  -0.39779  -0.38679  -0.38213  -0.36905
 Alpha  occ. eigenvalues --   -0.36817  -0.35267  -0.31819
 Alpha virt. eigenvalues --   -0.13211  -0.12065  -0.09298  -0.09094  -0.08390
 Alpha virt. eigenvalues --   -0.04872  -0.04599  -0.04164  -0.02920  -0.01832
 Alpha virt. eigenvalues --   -0.01261  -0.00704  -0.00559   0.00830   0.01080

 Mulliken charges:
               1
     1  N   -0.766177
     2  H    0.359437
     3  H    0.461822
     4  H    0.327538
     5  C   -0.251353
     6  H    0.183065
     7  H    0.209970
     8  C    0.632302
     9  O   -0.544158
    10  N   -0.597588
    11  H    0.334939
    12  C   -0.039985
    13  H    0.164103
    14  C    0.663883
    15  C   -0.299786
    16  H    0.172975
    17  H    0.130046
    18  O   -0.569771
    19  C   -0.085752
    20  H    0.144682
    21  C   -0.457948
    22  H    0.149866
    23  H    0.172448
    24  H    0.136363
    25  C   -0.448401
    26  H    0.156249
    27  H    0.148958
    28  H    0.168683
    29  N   -0.610613
    30  H    0.332189
    31  C   -0.008126
    32  H    0.193947
    33  C    0.546093
    34  C   -0.127940
    35  H    0.122563
    36  O   -0.654831
    37  C   -0.453883
    38  H    0.164014
    39  H    0.168831
    40  H    0.172493
    41  C   -0.450728
    42  H    0.168999
    43  H    0.177136
    44  H    0.128343
    45  N   -0.502212
    46  H    0.428016
    47  C   -0.091893
    48  H    0.177957
    49  C    0.605713
    50  C   -0.260171
    51  H    0.150590
    52  H    0.181449
    53  O   -0.576261
    54  C   -0.288288
    55  H    0.156771
    56  H    0.156043
    57  C   -0.287184
    58  H    0.156795
    59  H    0.187915
    60  C   -0.191019
    61  H    0.196663
    62  H    0.227615
    63  N   -0.772151
    64  H    0.404556
    65  H    0.473762
    66  H    0.397678
    67  O   -0.457242
 Sum of Mulliken charges =   1.00000

 Dipole moment (field-independent basis, Debye):
    X=            -12.4400    Y=              7.3606    Z=             -2.8399  Tot=             14.7308
 Quadrupole moment (field-independent basis, Debye-Ang):
   XX=           -196.9774   YY=           -100.5379   ZZ=           -150.4571
   XY=            -15.5605   XZ=             24.6047   YZ=            -11.9792

 Normal termination of Gaussian 16 at Thu Jun  2 03:21:11 2022.
