 Gaussian 16, Revision C.01,
 Gaussian 16:  ES64L-G16RevC.01  3-Jul-2019

 ----------------------------------------------------------------------
 # B3LYP/6-31G* empiricaldispersion=gd3 guess=read geom=check nosymm in
 tegral(ultrafinegrid)
 ----------------------------------------------------------------------

 ------------------------------------------------------
 Candidate Structure: Conf:684 Charge calc in gas phase
 ------------------------------------------------------
 Structure from the checkpoint file:  "conf-684.chk"
 Charge =  1 Multiplicity = 1

                          Input orientation:
 ---------------------------------------------------------------------
 Center     Atomic      Atomic             Coordinates (Angstroms)
 Number     Number       Type             X           Y           Z
 ---------------------------------------------------------------------
      1          7           0       -5.058863    2.479844    3.990509
      2          1           0       -5.729054    3.237713    3.837220
      3          1           0       -5.328463    1.616019    3.400806
      4          1           0       -5.060571    2.241327    4.985645
      5          6           0       -3.688121    2.761431    3.438625
      6          1           0       -2.947062    2.711880    4.238121
      7          1           0       -3.666887    3.755328    2.988366
      8          6           0       -3.489990    1.638597    2.382071
      9          8           0       -4.435185    0.843653    2.235559
     10          7           0       -2.340106    1.624305    1.738765
     11          1           0       -1.590531    2.302373    1.905609
     12          6           0       -1.972643    0.649630    0.704545
     13          1           0       -2.257368   -0.346741    1.053281
     14          6           0       -0.439484    0.787869    0.600666
     15          6           0       -2.687088    0.982950   -0.627380
     16          1           0       -3.761851    1.026089   -0.407667
     17          1           0       -2.374393    1.992131   -0.925544
     18          8           0        0.100699    1.829904    0.986199
     19          6           0       -2.459466    0.002025   -1.795157
     20          1           0       -1.390809   -0.027158   -2.038216
     21          6           0       -2.910215   -1.427266   -1.458410
     22          1           0       -3.975354   -1.449829   -1.194681
     23          1           0       -2.757205   -2.086792   -2.317920
     24          1           0       -2.354231   -1.867944   -0.621586
     25          6           0       -3.202184    0.519233   -3.036423
     26          1           0       -4.285339    0.553607   -2.862139
     27          1           0       -2.872253    1.528239   -3.310466
     28          1           0       -3.023130   -0.137574   -3.894106
     29          7           0        0.206905   -0.264639    0.077516
     30          1           0       -0.319345   -1.017571   -0.359419
     31          6           0        1.596276   -0.218696   -0.364801
     32          1           0        1.873679    0.833327   -0.491453
     33          6           0        1.621603   -0.941419   -1.727371
     34          6           0        2.570766   -0.877112    0.650279
     35          1           0        3.573993   -0.791997    0.209608
     36          8           0        0.656760   -1.615850   -2.103089
     37          6           0        2.568106   -0.114488    1.980934
     38          1           0        1.591520   -0.193891    2.471588
     39          1           0        3.319678   -0.533094    2.658782
     40          1           0        2.781782    0.949650    1.838645
     41          6           0        2.259105   -2.365476    0.856014
     42          1           0        1.257080   -2.495872    1.281830
     43          1           0        2.976909   -2.811267    1.551950
     44          1           0        2.302982   -2.930301   -0.081195
     45          7           0        2.756315   -0.809468   -2.434730
     46          1           0        3.547648   -0.279069   -2.084582
     47          6           0        2.995625   -1.522325   -3.682648
     48          1           0        2.680107   -2.563648   -3.566928
     49          6           0        4.488628   -1.429552   -3.963931
     50          6           0        2.227600   -0.893291   -4.885969
     51          1           0        2.070929   -1.680226   -5.630243
     52          1           0        1.238167   -0.624573   -4.505350
     53          8           0        4.854802   -2.128677   -5.025201
     54          6           0        2.926977    0.322988   -5.552367
     55          1           0        3.613165    0.789264   -4.833130
     56          1           0        2.175228    1.090813   -5.763905
     57          6           0        3.673062   -0.022667   -6.875319
     58          1           0        3.744741   -1.108431   -6.990020
     59          1           0        3.074534    0.334357   -7.722558
     60          6           0        5.085889    0.556282   -7.044990
     61          1           0        5.407790    0.368162   -8.074596
     62          1           0        5.070546    1.647997   -6.909904
     63          7           0        6.090414   -0.082619   -6.152278
     64          1           0        7.022458    0.003647   -6.552087
     65          1           0        6.122773    0.383267   -5.245793
     66          1           0        5.576260   -1.573427   -5.504323
     67          8           0        5.209414   -0.652402   -3.350376
 ---------------------------------------------------------------------

 SCF Done:  E(RB3LYP) =  -1396.72377205     A.U. after    2 cycles

 Alpha  occ. eigenvalues --  -19.28266 -19.23203 -19.22122 -19.20382 -19.19862
 Alpha  occ. eigenvalues --  -14.61763 -14.50372 -14.45405 -14.43613 -14.40403
 Alpha  occ. eigenvalues --  -10.45025 -10.42263 -10.39092 -10.38128 -10.36795
 Alpha  occ. eigenvalues --  -10.34756 -10.31536 -10.30421 -10.28501 -10.28025
 Alpha  occ. eigenvalues --  -10.27387 -10.27202 -10.25396 -10.25187 -10.24928
 Alpha  occ. eigenvalues --  -10.24843 -10.24485 -10.24448 -10.24344  -1.20726
 Alpha  occ. eigenvalues --   -1.15699  -1.15324  -1.14074  -1.11654  -1.07092
 Alpha  occ. eigenvalues --   -1.07039  -1.02213  -1.00227  -0.95956  -0.92332
 Alpha  occ. eigenvalues --   -0.89698  -0.88436  -0.86294  -0.84709  -0.82132
 Alpha  occ. eigenvalues --   -0.79114  -0.76709  -0.76000  -0.75919  -0.75747
 Alpha  occ. eigenvalues --   -0.75544  -0.75349  -0.71847  -0.69831  -0.69148
 Alpha  occ. eigenvalues --   -0.67576  -0.67097  -0.65746  -0.65327  -0.64240
 Alpha  occ. eigenvalues --   -0.64005  -0.63275  -0.61767  -0.61069  -0.59443
 Alpha  occ. eigenvalues --   -0.58195  -0.57584  -0.56935  -0.56376  -0.55634
 Alpha  occ. eigenvalues --   -0.54957  -0.54290  -0.53879  -0.53702  -0.53328
 Alpha  occ. eigenvalues --   -0.52462  -0.51801  -0.51601  -0.51041  -0.50662
 Alpha  occ. eigenvalues --   -0.50280  -0.49245  -0.48650  -0.48400  -0.47559
 Alpha  occ. eigenvalues --   -0.47124  -0.46460  -0.46062  -0.45879  -0.45613
 Alpha  occ. eigenvalues --   -0.45026  -0.44786  -0.44239  -0.43651  -0.43464
 Alpha  occ. eigenvalues --   -0.42867  -0.42614  -0.41883  -0.41094  -0.41061
 Alpha  occ. eigenvalues --   -0.40828  -0.40598  -0.39772  -0.39284  -0.39037
 Alpha  occ. eigenvalues --   -0.38877  -0.36942  -0.36288  -0.35273  -0.34342
 Alpha  occ. eigenvalues --   -0.33544  -0.33310  -0.32453
 Alpha virt. eigenvalues --   -0.13324  -0.13071  -0.08078  -0.07466  -0.06175
 Alpha virt. eigenvalues --   -0.05980  -0.05396  -0.02393  -0.01527  -0.00454
 Alpha virt. eigenvalues --    0.00511   0.01035   0.01564   0.02345   0.03043

 Mulliken charges:
               1
     1  N   -0.751959
     2  H    0.422348
     3  H    0.440519
     4  H    0.422552
     5  C   -0.276266
     6  H    0.248201
     7  H    0.247944
     8  C    0.642650
     9  O   -0.533762
    10  N   -0.602151
    11  H    0.375032
    12  C   -0.069847
    13  H    0.192984
    14  C    0.621627
    15  C   -0.259238
    16  H    0.159200
    17  H    0.150198
    18  O   -0.547901
    19  C   -0.103431
    20  H    0.156861
    21  C   -0.452159
    22  H    0.148213
    23  H    0.175783
    24  H    0.132849
    25  C   -0.447999
    26  H    0.144774
    27  H    0.146056
    28  H    0.163197
    29  N   -0.608472
    30  H    0.377652
    31  C   -0.075339
    32  H    0.183195
    33  C    0.638849
    34  C   -0.078195
    35  H    0.143775
    36  O   -0.555273
    37  C   -0.442273
    38  H    0.139760
    39  H    0.156499
    40  H    0.159292
    41  C   -0.462937
    42  H    0.143615
    43  H    0.162639
    44  H    0.165492
    45  N   -0.617310
    46  H    0.358750
    47  C   -0.036134
    48  H    0.192480
    49  C    0.598062
    50  C   -0.268998
    51  H    0.165950
    52  H    0.167754
    53  O   -0.591641
    54  C   -0.297526
    55  H    0.143043
    56  H    0.147762
    57  C   -0.270829
    58  H    0.167391
    59  H    0.147793
    60  C   -0.148320
    61  H    0.159168
    62  H    0.145346
    63  N   -0.784514
    64  H    0.332991
    65  H    0.348020
    66  H    0.451934
    67  O   -0.505727
 Sum of Mulliken charges =   1.00000

 Dipole moment (field-independent basis, Debye):
    X=            -12.0948    Y=             10.9578    Z=              8.3208  Tot=             18.3192
 Quadrupole moment (field-independent basis, Debye-Ang):
   XX=            -63.7401   YY=           -148.0859   ZZ=            -66.6183
   XY=            -45.4637   XZ=           -100.9208   YZ=             30.7845

 Normal termination of Gaussian 16 at Thu Jun  2 03:21:25 2022.
