 Gaussian 16, Revision C.01,
 Gaussian 16:  ES64L-G16RevC.01  3-Jul-2019

 ----------------------------------------------------------------------
 # B3LYP/6-31G* empiricaldispersion=gd3 guess=read geom=check nosymm in
 tegral(ultrafinegrid)
 ----------------------------------------------------------------------

 ------------------------------------------------------
 Candidate Structure: Conf:876 Charge calc in gas phase
 ------------------------------------------------------
 Structure from the checkpoint file:  "conf-876.chk"
 Charge =  1 Multiplicity = 1

                          Input orientation:
 ---------------------------------------------------------------------
 Center     Atomic      Atomic             Coordinates (Angstroms)
 Number     Number       Type             X           Y           Z
 ---------------------------------------------------------------------
      1          7           0       -5.641442   -0.803343    4.406327
      2          1           0       -5.554163   -1.590685    5.053964
      3          1           0       -6.436218   -0.228980    4.698134
      4          1           0       -5.787997   -1.165043    3.397296
      5          6           0       -4.366216   -0.027171    4.222695
      6          1           0       -3.589696   -0.424400    4.878419
      7          1           0       -4.534915    1.024693    4.459426
      8          6           0       -4.032975   -0.239797    2.719142
      9          8           0       -4.840440   -0.926301    2.066783
     10          7           0       -2.929338    0.320872    2.270997
     11          1           0       -2.284345    0.859381    2.860102
     12          6           0       -2.440587    0.228511    0.890719
     13          1           0       -2.511537   -0.814048    0.568015
     14          6           0       -0.964894    0.672592    1.000762
     15          6           0       -3.273980    1.138520   -0.042999
     16          1           0       -4.325847    0.858466    0.099306
     17          1           0       -3.161363    2.171315    0.311733
     18          8           0       -0.591721    1.302851    1.998966
     19          6           0       -2.948378    1.067098   -1.549320
     20          1           0       -1.911006    1.385761   -1.707987
     21          6           0       -3.106715   -0.351056   -2.118344
     22          1           0       -4.125169   -0.726079   -1.954709
     23          1           0       -2.911799   -0.353667   -3.195105
     24          1           0       -2.411664   -1.072774   -1.672483
     25          6           0       -3.854706    2.051941   -2.303562
     26          1           0       -4.911218    1.773313   -2.199148
     27          1           0       -3.736777    3.075171   -1.927843
     28          1           0       -3.615196    2.056211   -3.372087
     29          7           0       -0.184608    0.345542   -0.031500
     30          1           0       -0.555346   -0.102949   -0.867754
     31          6           0        1.178254    0.829196   -0.215147
     32          1           0        1.242386    1.844935    0.191378
     33          6           0        1.374261    0.850841   -1.747299
     34          6           0        2.199464   -0.072648    0.538758
     35          1           0        1.794507   -0.138466    1.557347
     36          8           0        0.578235    0.250627   -2.481671
     37          6           0        2.263171   -1.483888   -0.058575
     38          1           0        2.683043   -1.466693   -1.071031
     39          1           0        2.900364   -2.129155    0.555313
     40          1           0        1.270456   -1.943505   -0.114778
     41          6           0        3.594234    0.561485    0.637163
     42          1           0        4.112103    0.581431   -0.327299
     43          1           0        4.217197   -0.018222    1.326590
     44          1           0        3.544941    1.588001    1.021669
     45          7           0        2.441726    1.523786   -2.195969
     46          1           0        3.097402    1.980342   -1.569393
     47          6           0        2.885891    1.496354   -3.585387
     48          1           0        2.714807    0.497988   -3.994312
     49          6           0        4.377269    1.863800   -3.615737
     50          6           0        2.126626    2.539057   -4.450308
     51          1           0        2.223164    2.245469   -5.500922
     52          1           0        1.066233    2.452019   -4.193328
     53          8           0        4.981328    1.720051   -4.703305
     54          6           0        2.614849    3.999604   -4.266594
     55          1           0        3.006195    4.120929   -3.249009
     56          1           0        1.754289    4.673157   -4.336424
     57          6           0        3.675326    4.454474   -5.314073
     58          1           0        3.978111    3.605950   -5.935738
     59          1           0        3.218446    5.182565   -5.994231
     60          6           0        4.946417    5.129653   -4.779065
     61          1           0        5.461542    5.649077   -5.592121
     62          1           0        4.722473    5.859492   -3.995056
     63          7           0        5.932753    4.147401   -4.203670
     64          1           0        6.861341    4.551515   -4.073780
     65          1           0        5.592590    3.681618   -3.294619
     66          1           0        5.977142    3.270144   -4.775281
     67          8           0        4.816682    2.466091   -2.573979
 ---------------------------------------------------------------------

 SCF Done:  E(RB3LYP) =  -1396.72135528     A.U. after    1 cycles

 Alpha  occ. eigenvalues --  -19.27828 -19.21334 -19.18470 -19.16630 -19.15765
 Alpha  occ. eigenvalues --  -14.61326 -14.49803 -14.49161 -14.44441 -14.41805
 Alpha  occ. eigenvalues --  -10.44545 -10.41834 -10.38289 -10.35412 -10.34173
 Alpha  occ. eigenvalues --  -10.33749 -10.32281 -10.30580 -10.28065 -10.27810
 Alpha  occ. eigenvalues --  -10.26941 -10.26383 -10.26334 -10.25097 -10.24782
 Alpha  occ. eigenvalues --  -10.24559 -10.24416 -10.23698 -10.23615  -1.20278
 Alpha  occ. eigenvalues --   -1.14859  -1.13255  -1.10431  -1.09712  -1.06492
 Alpha  occ. eigenvalues --   -1.04286  -1.01322  -1.00731  -0.98259  -0.91838
 Alpha  occ. eigenvalues --   -0.89202  -0.87548  -0.86709  -0.84220  -0.82400
 Alpha  occ. eigenvalues --   -0.78954  -0.76595  -0.76060  -0.75567  -0.75348
 Alpha  occ. eigenvalues --   -0.74915  -0.74714  -0.71228  -0.70230  -0.68412
 Alpha  occ. eigenvalues --   -0.67076  -0.66889  -0.64946  -0.64642  -0.63727
 Alpha  occ. eigenvalues --   -0.63559  -0.63261  -0.61405  -0.61314  -0.60882
 Alpha  occ. eigenvalues --   -0.58898  -0.58366  -0.56531  -0.55927  -0.55113
 Alpha  occ. eigenvalues --   -0.54672  -0.53700  -0.53360  -0.53088  -0.52646
 Alpha  occ. eigenvalues --   -0.52237  -0.51373  -0.51011  -0.50867  -0.50247
 Alpha  occ. eigenvalues --   -0.49715  -0.49462  -0.47917  -0.47393  -0.46971
 Alpha  occ. eigenvalues --   -0.46769  -0.46055  -0.45715  -0.45463  -0.45121
 Alpha  occ. eigenvalues --   -0.44598  -0.44304  -0.44052  -0.43335  -0.43007
 Alpha  occ. eigenvalues --   -0.42866  -0.42180  -0.40968  -0.40713  -0.40419
 Alpha  occ. eigenvalues --   -0.40336  -0.40021  -0.39927  -0.39717  -0.38850
 Alpha  occ. eigenvalues --   -0.38598  -0.35545  -0.34208  -0.32687  -0.32669
 Alpha  occ. eigenvalues --   -0.31781  -0.30673  -0.29617
 Alpha virt. eigenvalues --   -0.12894  -0.12679  -0.07451  -0.06868  -0.05523
 Alpha virt. eigenvalues --   -0.04297  -0.02768  -0.01952  -0.01544  -0.01057
 Alpha virt. eigenvalues --    0.00380   0.01669   0.02386   0.02982   0.03176

 Mulliken charges:
               1
     1  N   -0.752500
     2  H    0.421618
     3  H    0.421267
     4  H    0.440283
     5  C   -0.275910
     6  H    0.247415
     7  H    0.247176
     8  C    0.642194
     9  O   -0.535827
    10  N   -0.602613
    11  H    0.375294
    12  C   -0.069301
    13  H    0.192916
    14  C    0.624316
    15  C   -0.259492
    16  H    0.159275
    17  H    0.149139
    18  O   -0.555894
    19  C   -0.099530
    20  H    0.152682
    21  C   -0.453799
    22  H    0.147349
    23  H    0.174398
    24  H    0.139121
    25  C   -0.447768
    26  H    0.144647
    27  H    0.145798
    28  H    0.162257
    29  N   -0.622750
    30  H    0.383519
    31  C   -0.063100
    32  H    0.173627
    33  C    0.629866
    34  C   -0.068938
    35  H    0.151113
    36  O   -0.563451
    37  C   -0.457947
    38  H    0.164997
    39  H    0.155621
    40  H    0.141646
    41  C   -0.476549
    42  H    0.172849
    43  H    0.159170
    44  H    0.146169
    45  N   -0.611950
    46  H    0.364349
    47  C   -0.040857
    48  H    0.180773
    49  C    0.603481
    50  C   -0.267105
    51  H    0.162201
    52  H    0.159865
    53  O   -0.583884
    54  C   -0.296492
    55  H    0.150472
    56  H    0.147710
    57  C   -0.290400
    58  H    0.191976
    59  H    0.162852
    60  C   -0.176394
    61  H    0.183384
    62  H    0.186296
    63  N   -0.764712
    64  H    0.377930
    65  H    0.423116
    66  H    0.408877
    67  O   -0.631842
 Sum of Mulliken charges =   1.00000

 Dipole moment (field-independent basis, Debye):
    X=            -12.4436    Y=              7.0097    Z=             11.2588  Tot=             18.1863
 Quadrupole moment (field-independent basis, Debye-Ang):
   XX=            -23.0405   YY=           -123.3291   ZZ=            -72.0182
   XY=             56.5605   XZ=           -120.1874   YZ=            -55.1098

 Normal termination of Gaussian 16 at Thu Jun  2 03:21:03 2022.
