 Gaussian 16, Revision C.01,
 Gaussian 16:  ES64L-G16RevC.01  3-Jul-2019

 ----------------------------------------------------------------------
 # B3LYP/6-31G* empiricaldispersion=gd3 guess=read geom=check nosymm in
 tegral(ultrafinegrid)
 ----------------------------------------------------------------------

 ------------------------------------------------------
 Candidate Structure: Conf:472 Charge calc in gas phase
 ------------------------------------------------------
 Structure from the checkpoint file:  "conf-472.chk"
 Charge =  1 Multiplicity = 1

                          Input orientation:
 ---------------------------------------------------------------------
 Center     Atomic      Atomic             Coordinates (Angstroms)
 Number     Number       Type             X           Y           Z
 ---------------------------------------------------------------------
      1          7           0       -1.445277   -2.670697    2.900426
      2          1           0       -1.679207   -3.449705    3.521780
      3          1           0       -1.458980   -2.953424    1.883135
      4          1           0       -0.486095   -2.355677    3.094532
      5          6           0       -2.424784   -1.529497    2.937106
      6          1           0       -2.105144   -0.791992    3.674591
      7          1           0       -3.407129   -1.924272    3.207340
      8          6           0       -2.411146   -1.000113    1.481413
      9          8           0       -1.955831   -1.762481    0.619135
     10          7           0       -2.873199    0.231319    1.270733
     11          1           0       -3.104539    0.814457    2.068628
     12          6           0       -2.579276    0.969611    0.014040
     13          1           0       -2.531713    0.220311   -0.777085
     14          6           0       -1.187604    1.587027    0.296594
     15          6           0       -3.646446    2.020816   -0.270446
     16          1           0       -3.570290    2.802283    0.495501
     17          1           0       -3.373890    2.503536   -1.218168
     18          8           0       -1.085017    2.639207    0.916951
     19          6           0       -5.087515    1.484907   -0.360188
     20          1           0       -5.348005    1.042680    0.614176
     21          6           0       -6.053540    2.649198   -0.621321
     22          1           0       -5.846851    3.114857   -1.592904
     23          1           0       -7.092103    2.301605   -0.632809
     24          1           0       -5.964672    3.425687    0.147192
     25          6           0       -5.241073    0.394233   -1.430508
     26          1           0       -4.934945    0.769580   -2.415284
     27          1           0       -4.641968   -0.497222   -1.209073
     28          1           0       -6.285466    0.073953   -1.509108
     29          7           0       -0.150112    0.779089   -0.028333
     30          1           0       -0.270191   -0.010419   -0.656153
     31          6           0        1.227833    1.064661    0.331996
     32          1           0        1.346417    2.150242    0.405094
     33          6           0        2.112470    0.486021   -0.785650
     34          6           0        1.624467    0.424368    1.700011
     35          1           0        2.668631    0.707287    1.888161
     36          8           0        1.685059   -0.400859   -1.527854
     37          6           0        0.769430    0.975781    2.848616
     38          1           0       -0.276234    0.656200    2.740771
     39          1           0        1.144378    0.611605    3.812452
     40          1           0        0.761718    2.068249    2.867352
     41          6           0        1.548110   -1.110036    1.649167
     42          1           0        0.553214   -1.425319    1.308015
     43          1           0        1.756109   -1.532749    2.642642
     44          1           0        2.268758   -1.545184    0.951381
     45          7           0        3.367937    0.972290   -0.829618
     46          1           0        3.714656    1.555481   -0.073053
     47          6           0        4.425099    0.337152   -1.610935
     48          1           0        4.336214   -0.752221   -1.485736
     49          6           0        5.754607    0.753198   -0.937366
     50          6           0        4.326758    0.645666   -3.110997
     51          1           0        5.000533   -0.041044   -3.629498
     52          1           0        3.317795    0.369913   -3.432000
     53          8           0        6.880216    0.569397   -1.605683
     54          6           0        4.641665    2.110298   -3.490877
     55          1           0        5.235741    2.592678   -2.702339
     56          1           0        3.705646    2.676787   -3.540939
     57          6           0        5.399936    2.254322   -4.823196
     58          1           0        4.969865    1.575362   -5.574368
     59          1           0        5.258815    3.268024   -5.217551
     60          6           0        6.913341    2.025991   -4.723496
     61          1           0        7.379758    2.253151   -5.693012
     62          1           0        7.335849    2.721224   -3.988636
     63          7           0        7.260557    0.658699   -4.262185
     64          1           0        8.275792    0.562361   -4.222475
     65          1           0        6.820915    0.456869   -2.613896
     66          1           0        6.940663   -0.028473   -4.945276
     67          8           0        5.747095    1.191325    0.199276
 ---------------------------------------------------------------------

 SCF Done:  E(RB3LYP) =  -1396.71695786     A.U. after    1 cycles

 Alpha  occ. eigenvalues --  -19.28772 -19.23442 -19.21439 -19.20569 -19.19501
 Alpha  occ. eigenvalues --  -14.62802 -14.51853 -14.45649 -14.44173 -14.42274
 Alpha  occ. eigenvalues --  -10.45843 -10.42950 -10.38804 -10.38136 -10.37487
 Alpha  occ. eigenvalues --  -10.34853 -10.32618 -10.31255 -10.30061 -10.29148
 Alpha  occ. eigenvalues --  -10.28805 -10.28109 -10.28000 -10.27959 -10.25987
 Alpha  occ. eigenvalues --  -10.25960 -10.25719 -10.25685 -10.25060  -1.21391
 Alpha  occ. eigenvalues --   -1.16379  -1.15193  -1.13684  -1.12283  -1.08031
 Alpha  occ. eigenvalues --   -1.07118  -1.02255  -1.00868  -0.97816  -0.92938
 Alpha  occ. eigenvalues --   -0.90783  -0.89954  -0.87524  -0.85329  -0.83489
 Alpha  occ. eigenvalues --   -0.80619  -0.79334  -0.77228  -0.76678  -0.76396
 Alpha  occ. eigenvalues --   -0.75733  -0.75133  -0.74016  -0.70807  -0.69913
 Alpha  occ. eigenvalues --   -0.68452  -0.67722  -0.66750  -0.66417  -0.65632
 Alpha  occ. eigenvalues --   -0.64460  -0.64323  -0.63819  -0.62474  -0.60388
 Alpha  occ. eigenvalues --   -0.59893  -0.58316  -0.57847  -0.56820  -0.56212
 Alpha  occ. eigenvalues --   -0.55965  -0.55591  -0.55165  -0.54609  -0.53701
 Alpha  occ. eigenvalues --   -0.53492  -0.53229  -0.51864  -0.51472  -0.51313
 Alpha  occ. eigenvalues --   -0.50962  -0.50137  -0.49769  -0.49096  -0.49018
 Alpha  occ. eigenvalues --   -0.48522  -0.48307  -0.47630  -0.47208  -0.46519
 Alpha  occ. eigenvalues --   -0.46277  -0.45231  -0.45114  -0.44534  -0.44239
 Alpha  occ. eigenvalues --   -0.44112  -0.43765  -0.43258  -0.42964  -0.42080
 Alpha  occ. eigenvalues --   -0.41386  -0.41239  -0.41164  -0.40727  -0.40717
 Alpha  occ. eigenvalues --   -0.40193  -0.36738  -0.35791  -0.35014  -0.34665
 Alpha  occ. eigenvalues --   -0.34050  -0.33884  -0.33084
 Alpha virt. eigenvalues --   -0.15337  -0.12617  -0.08342  -0.07855  -0.07268
 Alpha virt. eigenvalues --   -0.06522  -0.05230  -0.03740  -0.03251  -0.02000
 Alpha virt. eigenvalues --   -0.01062  -0.00544   0.00452   0.01019   0.01726

 Mulliken charges:
               1
     1  N   -0.745103
     2  H    0.424390
     3  H    0.439097
     4  H    0.426386
     5  C   -0.287019
     6  H    0.241448
     7  H    0.255394
     8  C    0.656158
     9  O   -0.520998
    10  N   -0.578518
    11  H    0.359950
    12  C   -0.088134
    13  H    0.197883
    14  C    0.624791
    15  C   -0.284847
    16  H    0.170686
    17  H    0.168249
    18  O   -0.519042
    19  C   -0.075841
    20  H    0.111516
    21  C   -0.444930
    22  H    0.155536
    23  H    0.157510
    24  H    0.150765
    25  C   -0.455959
    26  H    0.155559
    27  H    0.138257
    28  H    0.162291
    29  N   -0.612390
    30  H    0.364259
    31  C   -0.062158
    32  H    0.191953
    33  C    0.624277
    34  C   -0.072253
    35  H    0.168651
    36  O   -0.549324
    37  C   -0.456703
    38  H    0.094638
    39  H    0.148036
    40  H    0.198225
    41  C   -0.497561
    42  H    0.124190
    43  H    0.133727
    44  H    0.196795
    45  N   -0.609112
    46  H    0.360388
    47  C   -0.063634
    48  H    0.183512
    49  C    0.593004
    50  C   -0.292361
    51  H    0.144546
    52  H    0.182396
    53  O   -0.612427
    54  C   -0.271852
    55  H    0.148800
    56  H    0.154162
    57  C   -0.275355
    58  H    0.142130
    59  H    0.158153
    60  C   -0.143938
    61  H    0.153073
    62  H    0.169087
    63  N   -0.776042
    64  H    0.341249
    65  H    0.479582
    66  H    0.326155
    67  O   -0.481355
 Sum of Mulliken charges =   1.00000

 Dipole moment (field-independent basis, Debye):
    X=             -3.5814    Y=             -6.7757    Z=              5.2426  Tot=              9.2855
 Quadrupole moment (field-independent basis, Debye-Ang):
   XX=           -105.8609   YY=           -150.8653   ZZ=            -99.3410
   XY=             12.6943   XZ=            -71.3201   YZ=            -41.2279

 Normal termination of Gaussian 16 at Thu Jun  2 03:14:55 2022.
