 Gaussian 16, Revision C.01,
 Gaussian 16:  ES64L-G16RevC.01  3-Jul-2019

 ----------------------------------------------------------------------
 # B3LYP/6-31G* empiricaldispersion=gd3 guess=read geom=check nosymm in
 tegral(ultrafinegrid)
 ----------------------------------------------------------------------

 ------------------------------------------------------
 Candidate Structure: Conf:549 Charge calc in gas phase
 ------------------------------------------------------
 Structure from the checkpoint file:  "conf-549.chk"
 Charge =  1 Multiplicity = 1

                          Input orientation:
 ---------------------------------------------------------------------
 Center     Atomic      Atomic             Coordinates (Angstroms)
 Number     Number       Type             X           Y           Z
 ---------------------------------------------------------------------
      1          7           0       -5.402213    0.679996    4.322398
      2          1           0       -5.107799    0.305044    5.227743
      3          1           0       -6.317105    1.123449    4.435713
      4          1           0       -5.454513   -0.114770    3.590293
      5          6           0       -4.374345    1.564710    3.671976
      6          1           0       -3.520987    1.699787    4.338703
      7          1           0       -4.813110    2.537719    3.445428
      8          6           0       -3.994824    0.784627    2.381535
      9          8           0       -4.599195   -0.285980    2.190520
     10          7           0       -3.080324    1.338340    1.612151
     11          1           0       -2.517132    2.140827    1.922592
     12          6           0       -2.470639    0.726455    0.426482
     13          1           0       -2.477703   -0.360067    0.550322
     14          6           0       -1.019343    1.268838    0.445513
     15          6           0       -3.182470    1.136863   -0.877784
     16          1           0       -3.149057    2.232639   -0.941692
     17          1           0       -2.582528    0.758925   -1.716034
     18          8           0       -0.746286    2.242390    1.162411
     19          6           0       -4.632511    0.643607   -1.037849
     20          1           0       -5.210091    0.981505   -0.164714
     21          6           0       -5.251760    1.281763   -2.290472
     22          1           0       -4.706371    0.976443   -3.192178
     23          1           0       -6.294942    0.970540   -2.412972
     24          1           0       -5.228627    2.376842   -2.240009
     25          6           0       -4.718268   -0.887657   -1.106414
     26          1           0       -4.115679   -1.273016   -1.938747
     27          1           0       -4.376487   -1.360564   -0.180882
     28          1           0       -5.753013   -1.207380   -1.272051
     29          7           0       -0.166927    0.640107   -0.360604
     30          1           0       -0.443581   -0.139122   -0.960334
     31          6           0        1.225727    1.023366   -0.567035
     32          1           0        1.276815    2.111261   -0.690333
     33          6           0        1.626329    0.304056   -1.874973
     34          6           0        2.108451    0.614342    0.651818
     35          1           0        1.552473    0.985224    1.522650
     36          8           0        0.921814   -0.619830   -2.304083
     37          6           0        2.248222   -0.909020    0.767765
     38          1           0        2.840045   -1.316115   -0.059758
     39          1           0        2.756712   -1.173383    1.701184
     40          1           0        1.272414   -1.407314    0.758475
     41          6           0        3.478725    1.308218    0.654462
     42          1           0        4.144331    0.946629   -0.136451
     43          1           0        3.981230    1.122941    1.610379
     44          1           0        3.375548    2.395196    0.543515
     45          7           0        2.760517    0.724881   -2.447383
     46          1           0        3.361989    1.411129   -1.992807
     47          6           0        3.515578   -0.038601   -3.436866
     48          1           0        3.169965   -1.073964   -3.429945
     49          6           0        5.017882    0.032884   -3.034591
     50          6           0        3.312801    0.572781   -4.845477
     51          1           0        2.255725    0.454208   -5.108886
     52          1           0        3.487343    1.655620   -4.765673
     53          8           0        5.742181   -0.888429   -3.473297
     54          6           0        4.204946   -0.034009   -5.957125
     55          1           0        3.600210   -0.228272   -6.849877
     56          1           0        4.612052   -0.991485   -5.618776
     57          6           0        5.376979    0.866729   -6.411907
     58          1           0        5.860480    0.402853   -7.284943
     59          1           0        4.974153    1.836661   -6.744324
     60          6           0        6.412181    1.093984   -5.319751
     61          1           0        6.015224    1.595997   -4.432995
     62          1           0        6.876930    0.171902   -4.968686
     63          7           0        7.538027    2.003853   -5.835296
     64          1           0        8.230874    2.166087   -5.095969
     65          1           0        8.020525    1.585541   -6.638251
     66          1           0        7.174191    2.915834   -6.133666
     67          8           0        5.357585    1.090456   -2.423212
 ---------------------------------------------------------------------

 SCF Done:  E(RB3LYP) =  -1396.66905416     A.U. after    3 cycles

 Alpha  occ. eigenvalues --  -19.27351 -19.20367 -19.16496 -19.10903 -19.10464
 Alpha  occ. eigenvalues --  -14.60843 -14.58114 -14.49103 -14.43309 -14.39526
 Alpha  occ. eigenvalues --  -10.44033 -10.41291 -10.37286 -10.33452 -10.33411
 Alpha  occ. eigenvalues --  -10.32223 -10.29051 -10.28676 -10.27952 -10.27455
 Alpha  occ. eigenvalues --  -10.26897 -10.24791 -10.24705 -10.24405 -10.24378
 Alpha  occ. eigenvalues --  -10.24194 -10.23361 -10.22089 -10.21656  -1.19779
 Alpha  occ. eigenvalues --   -1.14350  -1.12248  -1.11914  -1.08282  -1.05847
 Alpha  occ. eigenvalues --   -1.04064  -1.00052  -0.96667  -0.94871  -0.91323
 Alpha  occ. eigenvalues --   -0.88639  -0.88068  -0.86030  -0.83592  -0.81698
 Alpha  occ. eigenvalues --   -0.77753  -0.75722  -0.75424  -0.75194  -0.74876
 Alpha  occ. eigenvalues --   -0.74454  -0.73002  -0.71890  -0.70725  -0.70319
 Alpha  occ. eigenvalues --   -0.68832  -0.67255  -0.66308  -0.64023  -0.63873
 Alpha  occ. eigenvalues --   -0.63019  -0.62356  -0.61462  -0.61011  -0.60180
 Alpha  occ. eigenvalues --   -0.59331  -0.57927  -0.56212  -0.55738  -0.54529
 Alpha  occ. eigenvalues --   -0.54074  -0.52906  -0.52524  -0.52299  -0.51218
 Alpha  occ. eigenvalues --   -0.50786  -0.50440  -0.49842  -0.49434  -0.48581
 Alpha  occ. eigenvalues --   -0.48214  -0.47641  -0.46897  -0.46596  -0.46210
 Alpha  occ. eigenvalues --   -0.45401  -0.45282  -0.44717  -0.44051  -0.43955
 Alpha  occ. eigenvalues --   -0.43256  -0.42553  -0.42305  -0.42150  -0.41171
 Alpha  occ. eigenvalues --   -0.40811  -0.40424  -0.40187  -0.40128  -0.39645
 Alpha  occ. eigenvalues --   -0.39201  -0.38728  -0.38567  -0.38368  -0.38082
 Alpha  occ. eigenvalues --   -0.36989  -0.34463  -0.32928  -0.30737  -0.30308
 Alpha  occ. eigenvalues --   -0.26646  -0.25394  -0.24194
 Alpha virt. eigenvalues --   -0.12424  -0.12166  -0.09366  -0.06841  -0.05851
 Alpha virt. eigenvalues --   -0.04953  -0.02716  -0.02476  -0.02258  -0.01425
 Alpha virt. eigenvalues --   -0.00998   0.01120   0.01485   0.02438   0.02687

 Mulliken charges:
               1
     1  N   -0.752577
     2  H    0.421161
     3  H    0.420407
     4  H    0.439942
     5  C   -0.278107
     6  H    0.247973
     7  H    0.247376
     8  C    0.638243
     9  O   -0.532681
    10  N   -0.584454
    11  H    0.372900
    12  C   -0.089032
    13  H    0.193445
    14  C    0.637365
    15  C   -0.258051
    16  H    0.150148
    17  H    0.167259
    18  O   -0.560810
    19  C   -0.070413
    20  H    0.111050
    21  C   -0.446271
    22  H    0.155536
    23  H    0.153481
    24  H    0.144057
    25  C   -0.459819
    26  H    0.152159
    27  H    0.158811
    28  H    0.153189
    29  N   -0.618574
    30  H    0.365420
    31  C   -0.051672
    32  H    0.168565
    33  C    0.612285
    34  C   -0.074059
    35  H    0.147301
    36  O   -0.563634
    37  C   -0.456740
    38  H    0.173108
    39  H    0.149079
    40  H    0.135457
    41  C   -0.484793
    42  H    0.195797
    43  H    0.149569
    44  H    0.138886
    45  N   -0.603080
    46  H    0.353584
    47  C   -0.044677
    48  H    0.169877
    49  C    0.570742
    50  C   -0.276063
    51  H    0.157819
    52  H    0.123497
    53  O   -0.587033
    54  C   -0.270028
    55  H    0.144565
    56  H    0.197372
    57  C   -0.287885
    58  H    0.140641
    59  H    0.136683
    60  C   -0.229087
    61  H    0.242047
    62  H    0.256859
    63  N   -0.736842
    64  H    0.425985
    65  H    0.408820
    66  H    0.406931
    67  O   -0.619005
 Sum of Mulliken charges =   1.00000

 Dipole moment (field-independent basis, Debye):
    X=             -5.8592    Y=             11.8207    Z=              0.9296  Tot=             13.2258
 Quadrupole moment (field-independent basis, Debye-Ang):
   XX=             51.1715   YY=           -160.0240   ZZ=              5.2545
   XY=             32.9791   XZ=           -198.7695   YZ=            -32.1828

 Normal termination of Gaussian 16 at Thu Jun  2 03:15:19 2022.
