 Gaussian 16, Revision C.01,
 Gaussian 16:  ES64L-G16RevC.01  3-Jul-2019

 ----------------------------------------------------------------------
 # B3LYP/6-31G* empiricaldispersion=gd3 guess=read geom=check nosymm in
 tegral(ultrafinegrid)
 ----------------------------------------------------------------------

 ------------------------------------------------------
 Candidate Structure: Conf:150 Charge calc in gas phase
 ------------------------------------------------------
 Structure from the checkpoint file:  "conf-150.chk"
 Charge =  1 Multiplicity = 1

                          Input orientation:
 ---------------------------------------------------------------------
 Center     Atomic      Atomic             Coordinates (Angstroms)
 Number     Number       Type             X           Y           Z
 ---------------------------------------------------------------------
      1          7           0       -5.680322    1.206841    4.532233
      2          1           0       -5.380253    0.789631    5.417233
      3          1           0       -6.540355    1.735529    4.697070
      4          1           0       -5.842809    0.431262    3.797575
      5          6           0       -4.600597    1.996865    3.844621
      6          1           0       -3.721576    2.070595    4.487098
      7          1           0       -4.966155    2.999465    3.616696
      8          6           0       -4.321203    1.176675    2.553818
      9          8           0       -5.039330    0.176813    2.371689
     10          7           0       -3.358428    1.627515    1.776391
     11          1           0       -2.705349    2.361402    2.085455
     12          6           0       -2.798593    0.934229    0.611007
     13          1           0       -2.931036   -0.142521    0.747101
     14          6           0       -1.294945    1.309418    0.663021
     15          6           0       -3.429079    1.405163   -0.712982
     16          1           0       -3.268664    2.488879   -0.788328
     17          1           0       -2.858517    0.949521   -1.533582
     18          8           0       -0.942742    2.266178    1.366536
     19          6           0       -4.923061    1.080172   -0.896032
     20          1           0       -5.472752    1.499023   -0.040283
     21          6           0       -5.442008    1.762223   -2.170636
     22          1           0       -4.920193    1.377129   -3.056100
     23          1           0       -6.512409    1.573664   -2.308381
     24          1           0       -5.290673    2.847720   -2.138527
     25          6           0       -5.186332   -0.431706   -0.939762
     26          1           0       -4.612087   -0.902523   -1.748186
     27          1           0       -4.924645   -0.920837    0.003084
     28          1           0       -6.247149   -0.632331   -1.126800
     29          7           0       -0.493122    0.552362   -0.083809
     30          1           0       -0.868137   -0.123262   -0.749603
     31          6           0        0.930641    0.791470   -0.297716
     32          1           0        1.122917    1.863840   -0.189598
     33          6           0        1.224475    0.324293   -1.740013
     34          6           0        1.832635    0.008664    0.702709
     35          1           0        2.868592    0.212495    0.402002
     36          8           0        0.389558   -0.364527   -2.352577
     37          6           0        1.635685    0.505071    2.139854
     38          1           0        0.625997    0.279127    2.503660
     39          1           0        2.351517    0.012565    2.807253
     40          1           0        1.780284    1.587466    2.217233
     41          6           0        1.608749   -1.506495    0.601863
     42          1           0        0.579680   -1.772816    0.876295
     43          1           0        2.284600   -2.031866    1.284231
     44          1           0        1.797980   -1.881572   -0.408971
     45          7           0        2.440497    0.658701   -2.183183
     46          1           0        3.130819    1.039068   -1.504467
     47          6           0        3.245684   -0.178029   -3.072576
     48          1           0        2.878876   -1.211682   -3.021903
     49          6           0        4.723511   -0.148503   -2.464774
     50          6           0        3.262365    0.273506   -4.526352
     51          1           0        3.503055    1.345095   -4.568015
     52          1           0        4.091230   -0.266667   -4.998694
     53          8           0        5.574079   -0.730246   -3.153121
     54          6           0        1.950795    0.003479   -5.269332
     55          1           0        1.123036    0.546407   -4.797490
     56          1           0        1.701108   -1.063187   -5.188907
     57          6           0        2.076520    0.388553   -6.753206
     58          1           0        2.282138    1.465205   -6.840034
     59          1           0        2.936026   -0.143511   -7.186538
     60          6           0        0.818873    0.038924   -7.526262
     61          1           0        0.587934   -1.028532   -7.489093
     62          1           0       -0.054637    0.607032   -7.197195
     63          7           0        1.004639    0.374343   -9.017910
     64          1           0        0.178752    0.151720   -9.586322
     65          1           0        1.213723    1.372879   -9.136943
     66          1           0        1.803405   -0.146031   -9.400997
     67          8           0        4.813594    0.472450   -1.367012
 ---------------------------------------------------------------------

 SCF Done:  E(RB3LYP) =  -1396.63171733     A.U. after    1 cycles

 Alpha  occ. eigenvalues --  -19.27381 -19.20097 -19.15889 -19.07241 -19.06125
 Alpha  occ. eigenvalues --  -14.62900 -14.60913 -14.49023 -14.43050 -14.36868
 Alpha  occ. eigenvalues --  -10.44036 -10.41275 -10.39383 -10.37050 -10.33421
 Alpha  occ. eigenvalues --  -10.32168 -10.30869 -10.27894 -10.27776 -10.27406
 Alpha  occ. eigenvalues --  -10.25751 -10.25166 -10.25098 -10.24803 -10.23219
 Alpha  occ. eigenvalues --  -10.22682 -10.21833 -10.21281 -10.21094  -1.19773
 Alpha  occ. eigenvalues --   -1.16704  -1.14402  -1.12042  -1.07077  -1.05769
 Alpha  occ. eigenvalues --   -1.00264  -0.99666  -0.94495  -0.92348  -0.91462
 Alpha  occ. eigenvalues --   -0.91389  -0.88907  -0.85491  -0.83828  -0.83242
 Alpha  occ. eigenvalues --   -0.78225  -0.76511  -0.75991  -0.75561  -0.75341
 Alpha  occ. eigenvalues --   -0.74949  -0.74612  -0.74475  -0.72192  -0.70653
 Alpha  occ. eigenvalues --   -0.69492  -0.67365  -0.65799  -0.65375  -0.64284
 Alpha  occ. eigenvalues --   -0.63252  -0.62958  -0.61546  -0.60995  -0.60017
 Alpha  occ. eigenvalues --   -0.59525  -0.58475  -0.57844  -0.56375  -0.54831
 Alpha  occ. eigenvalues --   -0.53669  -0.53225  -0.52857  -0.52511  -0.52386
 Alpha  occ. eigenvalues --   -0.51419  -0.51090  -0.49570  -0.49379  -0.48877
 Alpha  occ. eigenvalues --   -0.48002  -0.47736  -0.46872  -0.46504  -0.46039
 Alpha  occ. eigenvalues --   -0.45875  -0.45483  -0.44420  -0.43668  -0.43448
 Alpha  occ. eigenvalues --   -0.42468  -0.42357  -0.42207  -0.41592  -0.41321
 Alpha  occ. eigenvalues --   -0.40896  -0.40740  -0.39690  -0.38888  -0.38718
 Alpha  occ. eigenvalues --   -0.38334  -0.37495  -0.37449  -0.37009  -0.36410
 Alpha  occ. eigenvalues --   -0.34575  -0.34307  -0.32412  -0.29877  -0.28732
 Alpha  occ. eigenvalues --   -0.22299  -0.22076  -0.20345
 Alpha virt. eigenvalues --   -0.13542  -0.12571  -0.12069  -0.06908  -0.06866
 Alpha virt. eigenvalues --   -0.06691  -0.05555  -0.04897  -0.04015  -0.01833
 Alpha virt. eigenvalues --   -0.01458  -0.01078  -0.00518   0.01057   0.01070

 Mulliken charges:
               1
     1  N   -0.752201
     2  H    0.422020
     3  H    0.420021
     4  H    0.438773
     5  C   -0.278453
     6  H    0.249858
     7  H    0.247526
     8  C    0.636514
     9  O   -0.534662
    10  N   -0.584295
    11  H    0.374559
    12  C   -0.089930
    13  H    0.192137
    14  C    0.635556
    15  C   -0.259339
    16  H    0.151002
    17  H    0.163344
    18  O   -0.556780
    19  C   -0.069640
    20  H    0.115559
    21  C   -0.444846
    22  H    0.145007
    23  H    0.152964
    24  H    0.145107
    25  C   -0.459363
    26  H    0.145336
    27  H    0.162826
    28  H    0.151994
    29  N   -0.600518
    30  H    0.355567
    31  C   -0.069024
    32  H    0.177693
    33  C    0.594531
    34  C   -0.096057
    35  H    0.196336
    36  O   -0.590931
    37  C   -0.438828
    38  H    0.119116
    39  H    0.152360
    40  H    0.154773
    41  C   -0.460332
    42  H    0.120289
    43  H    0.158991
    44  H    0.170157
    45  N   -0.595575
    46  H    0.363212
    47  C   -0.088666
    48  H    0.140497
    49  C    0.588542
    50  C   -0.256468
    51  H    0.131141
    52  H    0.171042
    53  O   -0.576868
    54  C   -0.265509
    55  H    0.164642
    56  H    0.150324
    57  C   -0.291147
    58  H    0.161225
    59  H    0.165652
    60  C   -0.205242
    61  H    0.225679
    62  H    0.221679
    63  N   -0.731203
    64  H    0.422790
    65  H    0.423457
    66  H    0.425748
    67  O   -0.609669
 Sum of Mulliken charges =   1.00000

 Dipole moment (field-independent basis, Debye):
    X=            -29.8929    Y=              7.9122    Z=            -13.5949  Tot=             33.7788
 Quadrupole moment (field-independent basis, Debye-Ang):
   XX=           -143.1492   YY=           -164.4535   ZZ=            213.0209
   XY=            -29.1136   XZ=            -90.2043   YZ=              5.5133

 Normal termination of Gaussian 16 at Thu Jun  2 03:14:49 2022.
