 Gaussian 16, Revision C.01,
 Gaussian 16:  ES64L-G16RevC.01  3-Jul-2019

 ----------------------------------------------------------------------
 # B3LYP/6-31G* empiricaldispersion=gd3 guess=read geom=check nosymm in
 tegral(ultrafinegrid)
 ----------------------------------------------------------------------

 ------------------------------------------------------
 Candidate Structure: Conf:961 Charge calc in gas phase
 ------------------------------------------------------
 Structure from the checkpoint file:  "conf-961.chk"
 Charge =  1 Multiplicity = 1

                          Input orientation:
 ---------------------------------------------------------------------
 Center     Atomic      Atomic             Coordinates (Angstroms)
 Number     Number       Type             X           Y           Z
 ---------------------------------------------------------------------
      1          7           0       -5.164226    0.064946    4.699756
      2          1           0       -5.882365    0.723833    5.011331
      3          1           0       -5.424669   -0.345952    3.735083
      4          1           0       -5.088328   -0.684226    5.392671
      5          6           0       -3.849247    0.714238    4.364995
      6          1           0       -3.056421    0.291829    4.984512
      7          1           0       -3.911055    1.789317    4.542060
      8          6           0       -3.659337    0.381985    2.858360
      9          8           0       -4.568973   -0.271643    2.317191
     10          7           0       -2.554386    0.818461    2.289410
     11          1           0       -1.824686    1.337162    2.789770
     12          6           0       -2.193684    0.602824    0.883715
     13          1           0       -2.375530   -0.447191    0.637519
     14          6           0       -0.683921    0.925158    0.844060
     15          6           0       -3.028222    1.523857   -0.038425
     16          1           0       -4.083074    1.340102    0.203301
     17          1           0       -2.806456    2.562281    0.240022
     18          8           0       -0.176188    1.582436    1.761155
     19          6           0       -2.835224    1.340157   -1.557825
     20          1           0       -1.792616    1.563089   -1.815676
     21          6           0       -3.150589   -0.090048   -2.021877
     22          1           0       -4.178484   -0.368544   -1.756682
     23          1           0       -3.046237   -0.170650   -3.108205
     24          1           0       -2.481299   -0.841518   -1.585500
     25          6           0       -3.720992    2.352386   -2.300209
     26          1           0       -4.783636    2.168918   -2.095988
     27          1           0       -3.492434    3.381932   -2.000772
     28          1           0       -3.571679    2.275761   -3.382320
     29          7           0       -0.020598    0.469841   -0.222869
     30          1           0       -0.493460   -0.005467   -0.988436
     31          6           0        1.358523    0.824307   -0.534420
     32          1           0        1.534376    1.851265   -0.194303
     33          6           0        1.441470    0.747925   -2.072581
     34          6           0        2.360633   -0.117042    0.196945
     35          1           0        2.042352   -0.077535    1.247009
     36          8           0        0.568336    0.155786   -2.716404
     37          6           0        2.250331   -1.564276   -0.298566
     38          1           0        2.574704   -1.652431   -1.342014
     39          1           0        2.885069   -2.222161    0.304161
     40          1           0        1.221864   -1.935609   -0.234683
     41          6           0        3.807121    0.392507    0.131762
     42          1           0        4.233366    0.295648   -0.872238
     43          1           0        4.438593   -0.192925    0.808079
     44          1           0        3.881877    1.443167    0.439200
     45          7           0        2.512298    1.331157   -2.636607
     46          1           0        3.197788    1.832858   -2.082979
     47          6           0        2.805113    1.255291   -4.060247
     48          1           0        2.507542    0.274807   -4.438585
     49          6           0        4.296207    1.474566   -4.246669
     50          6           0        2.043808    2.369029   -4.842657
     51          1           0        0.980040    2.158537   -4.692646
     52          1           0        2.250257    3.318884   -4.332290
     53          8           0        4.734260    0.974673   -5.393459
     54          6           0        2.367712    2.483915   -6.355692
     55          1           0        1.425383    2.475719   -6.915626
     56          1           0        2.923591    1.604256   -6.688770
     57          6           0        3.112151    3.771939   -6.773847
     58          1           0        3.206411    3.776394   -7.869666
     59          1           0        2.473099    4.631593   -6.529510
     60          6           0        4.490156    4.082832   -6.167366
     61          1           0        4.751465    5.112921   -6.449010
     62          1           0        4.453423    4.051228   -5.074404
     63          7           0        5.562818    3.141610   -6.587706
     64          1           0        6.466733    3.501765   -6.283347
     65          1           0        5.315563    1.696924   -5.851761
     66          1           0        5.600434    3.084706   -7.605878
     67          8           0        4.946447    2.157528   -3.469636
 ---------------------------------------------------------------------

 SCF Done:  E(RB3LYP) =  -1396.72454535     A.U. after    1 cycles

 Alpha  occ. eigenvalues --  -19.28146 -19.21879 -19.21845 -19.19591 -19.19350
 Alpha  occ. eigenvalues --  -14.61645 -14.50181 -14.45142 -14.43526 -14.41473
 Alpha  occ. eigenvalues --  -10.44887 -10.42133 -10.38862 -10.37105 -10.36648
 Alpha  occ. eigenvalues --  -10.34642 -10.31414 -10.29872 -10.28484 -10.28249
 Alpha  occ. eigenvalues --  -10.27419 -10.27018 -10.25504 -10.25308 -10.25268
 Alpha  occ. eigenvalues --  -10.24942 -10.24438 -10.24390 -10.24238  -1.20596
 Alpha  occ. eigenvalues --   -1.15196  -1.14414  -1.13833  -1.11419  -1.06878
 Alpha  occ. eigenvalues --   -1.06067  -1.01994  -1.00079  -0.96842  -0.92227
 Alpha  occ. eigenvalues --   -0.89628  -0.88212  -0.86262  -0.84678  -0.82176
 Alpha  occ. eigenvalues --   -0.79065  -0.76694  -0.75980  -0.75873  -0.75636
 Alpha  occ. eigenvalues --   -0.75341  -0.75240  -0.71585  -0.70190  -0.69084
 Alpha  occ. eigenvalues --   -0.68073  -0.66935  -0.65337  -0.65130  -0.64060
 Alpha  occ. eigenvalues --   -0.63946  -0.62987  -0.61660  -0.61084  -0.59268
 Alpha  occ. eigenvalues --   -0.57998  -0.57468  -0.56729  -0.56118  -0.55363
 Alpha  occ. eigenvalues --   -0.54409  -0.54080  -0.53871  -0.53352  -0.52765
 Alpha  occ. eigenvalues --   -0.52126  -0.51899  -0.51453  -0.51093  -0.50677
 Alpha  occ. eigenvalues --   -0.50556  -0.50115  -0.48193  -0.47926  -0.47535
 Alpha  occ. eigenvalues --   -0.47170  -0.46532  -0.46123  -0.45680  -0.45346
 Alpha  occ. eigenvalues --   -0.45021  -0.44791  -0.44230  -0.43495  -0.43339
 Alpha  occ. eigenvalues --   -0.42579  -0.41957  -0.41430  -0.41154  -0.40899
 Alpha  occ. eigenvalues --   -0.40705  -0.40601  -0.40152  -0.39822  -0.39303
 Alpha  occ. eigenvalues --   -0.38999  -0.36099  -0.35576  -0.34848  -0.33868
 Alpha  occ. eigenvalues --   -0.33642  -0.32928  -0.31985
 Alpha virt. eigenvalues --   -0.13205  -0.12959  -0.07863  -0.07315  -0.05854
 Alpha virt. eigenvalues --   -0.05677  -0.04870  -0.02269  -0.01391  -0.00231
 Alpha virt. eigenvalues --    0.00217   0.01203   0.01539   0.02554   0.03280

 Mulliken charges:
               1
     1  N   -0.752068
     2  H    0.422074
     3  H    0.440280
     4  H    0.422322
     5  C   -0.276153
     6  H    0.248028
     7  H    0.247978
     8  C    0.642174
     9  O   -0.534713
    10  N   -0.603033
    11  H    0.375798
    12  C   -0.069030
    13  H    0.193168
    14  C    0.624979
    15  C   -0.259872
    16  H    0.160669
    17  H    0.150546
    18  O   -0.552795
    19  C   -0.099479
    20  H    0.150012
    21  C   -0.454413
    22  H    0.149450
    23  H    0.173970
    24  H    0.137960
    25  C   -0.447672
    26  H    0.145883
    27  H    0.147571
    28  H    0.162015
    29  N   -0.622968
    30  H    0.382459
    31  C   -0.063244
    32  H    0.176886
    33  C    0.631642
    34  C   -0.069929
    35  H    0.154495
    36  O   -0.556727
    37  C   -0.458038
    38  H    0.163521
    39  H    0.158466
    40  H    0.142413
    41  C   -0.474853
    42  H    0.165133
    43  H    0.164214
    44  H    0.150156
    45  N   -0.614919
    46  H    0.357627
    47  C   -0.027283
    48  H    0.191545
    49  C    0.589097
    50  C   -0.281725
    51  H    0.170746
    52  H    0.144362
    53  O   -0.602204
    54  C   -0.280182
    55  H    0.147585
    56  H    0.176777
    57  C   -0.277821
    58  H    0.140854
    59  H    0.149845
    60  C   -0.156771
    61  H    0.149540
    62  H    0.178736
    63  N   -0.775642
    64  H    0.341435
    65  H    0.458414
    66  H    0.330152
    67  O   -0.499444
 Sum of Mulliken charges =   1.00000

 Dipole moment (field-independent basis, Debye):
    X=            -13.2495    Y=              5.9955    Z=             10.3630  Tot=             17.8574
 Quadrupole moment (field-independent basis, Debye-Ang):
   XX=            -64.9326   YY=           -154.0955   ZZ=            -31.8297
   XY=             11.0038   XZ=           -120.2914   YZ=            -31.6653

 Normal termination of Gaussian 16 at Thu Jun  2 03:21:08 2022.
