 Gaussian 16, Revision C.01,
 Gaussian 16:  ES64L-G16RevC.01  3-Jul-2019

 ----------------------------------------------------------------------
 # B3LYP/6-31G* empiricaldispersion=gd3 guess=read geom=check nosymm in
 tegral(ultrafinegrid)
 ----------------------------------------------------------------------

 ------------------------------------------------------
 Candidate Structure: Conf:617 Charge calc in gas phase
 ------------------------------------------------------
 Structure from the checkpoint file:  "conf-617.chk"
 Charge =  1 Multiplicity = 1

                          Input orientation:
 ---------------------------------------------------------------------
 Center     Atomic      Atomic             Coordinates (Angstroms)
 Number     Number       Type             X           Y           Z
 ---------------------------------------------------------------------
      1          7           0       -5.482689    0.615864    4.830857
      2          1           0       -5.302198    0.006009    5.632682
      3          1           0       -6.244325    1.254521    5.074180
      4          1           0       -5.750608    0.024796    3.970196
      5          6           0       -4.253054    1.309342    4.310665
      6          1           0       -3.395569    1.071763    4.942684
      7          1           0       -4.410545    2.389101    4.307688
      8          6           0       -4.097807    0.741622    2.871831
      9          8           0       -4.961421   -0.072683    2.503970
     10          7           0       -3.070600    1.189158    2.175643
     11          1           0       -2.320052    1.739783    2.608216
     12          6           0       -2.660415    0.708572    0.851958
     13          1           0       -2.961913   -0.338009    0.751488
     14          6           0       -1.118027    0.832449    0.877897
     15          6           0       -3.248943    1.562678   -0.289684
     16          1           0       -2.921779    2.598545   -0.129442
     17          1           0       -2.782985    1.232212   -1.227457
     18          8           0       -0.575390    1.514792    1.755712
     19          6           0       -4.779921    1.511742   -0.448625
     20          1           0       -5.235600    1.790798    0.512737
     21          6           0       -5.216643    2.546045   -1.497117
     22          1           0       -4.783765    2.312467   -2.477858
     23          1           0       -6.306207    2.552257   -1.609315
     24          1           0       -4.898674    3.558955   -1.223359
     25          6           0       -5.276019    0.108741   -0.825738
     26          1           0       -4.809501   -0.229643   -1.759807
     27          1           0       -5.065099   -0.626914   -0.043759
     28          1           0       -6.360217    0.114315   -0.982269
     29          7           0       -0.471717    0.199234   -0.104735
     30          1           0       -0.956837   -0.333367   -0.824116
     31          6           0        0.971880    0.269390   -0.304364
     32          1           0        1.293852    1.304384   -0.144034
     33          6           0        1.189725   -0.144304   -1.770499
     34          6           0        1.728305   -0.647506    0.705345
     35          1           0        1.329381   -0.350926    1.683738
     36          8           0        0.322958   -0.784839   -2.374778
     37          6           0        1.418285   -2.131902    0.474958
     38          1           0        1.822356   -2.479548   -0.482761
     39          1           0        1.868950   -2.739889    1.266354
     40          1           0        0.340026   -2.325155    0.471384
     41          6           0        3.240631   -0.383304    0.722885
     42          1           0        3.739020   -0.728165   -0.189097
     43          1           0        3.699549   -0.916223    1.562270
     44          1           0        3.463116    0.683354    0.851772
     45          7           0        2.365751    0.212432   -2.318849
     46          1           0        3.110725    0.590090   -1.741775
     47          6           0        2.816820   -0.357337   -3.583582
     48          1           0        2.610560   -1.437376   -3.554795
     49          6           0        4.355511   -0.196785   -3.595249
     50          6           0        2.090367    0.231753   -4.812256
     51          1           0        1.122740    0.618852   -4.484400
     52          1           0        2.659561    1.088723   -5.189148
     53          8           0        5.009284   -0.344879   -4.735538
     54          6           0        1.868264   -0.834860   -5.901991
     55          1           0        0.959506   -1.396787   -5.656494
     56          1           0        2.682946   -1.568707   -5.870761
     57          6           0        1.769963   -0.285174   -7.331407
     58          1           0        1.622541   -1.127841   -8.020518
     59          1           0        0.888131    0.358815   -7.441280
     60          6           0        3.008946    0.513188   -7.764358
     61          1           0        2.978168    0.681615   -8.850275
     62          1           0        3.011102    1.501337   -7.292131
     63          7           0        4.249601   -0.168367   -7.334485
     64          1           0        5.066149    0.364090   -7.634156
     65          1           0        4.501430   -0.338924   -5.612068
     66          1           0        4.324412   -1.078395   -7.790797
     67          8           0        4.947184    0.024901   -2.553559
 ---------------------------------------------------------------------

 SCF Done:  E(RB3LYP) =  -1396.72196263     A.U. after    1 cycles

 Alpha  occ. eigenvalues --  -19.28405 -19.22816 -19.22067 -19.19707 -19.18666
 Alpha  occ. eigenvalues --  -14.61892 -14.50339 -14.45392 -14.43184 -14.41555
 Alpha  occ. eigenvalues --  -10.45160 -10.42299 -10.39049 -10.37438 -10.36530
 Alpha  occ. eigenvalues --  -10.34878 -10.31407 -10.30474 -10.28787 -10.28688
 Alpha  occ. eigenvalues --  -10.28046 -10.26882 -10.25501 -10.25459 -10.25397
 Alpha  occ. eigenvalues --  -10.25328 -10.25144 -10.24242 -10.23935  -1.20834
 Alpha  occ. eigenvalues --   -1.15444  -1.14440  -1.14015  -1.11496  -1.07105
 Alpha  occ. eigenvalues --   -1.06292  -1.02096  -0.99883  -0.97261  -0.92536
 Alpha  occ. eigenvalues --   -0.89808  -0.88364  -0.86780  -0.85031  -0.82297
 Alpha  occ. eigenvalues --   -0.79088  -0.76713  -0.76291  -0.75842  -0.75811
 Alpha  occ. eigenvalues --   -0.75508  -0.75148  -0.71851  -0.70577  -0.69121
 Alpha  occ. eigenvalues --   -0.68134  -0.67395  -0.65152  -0.65063  -0.64445
 Alpha  occ. eigenvalues --   -0.64158  -0.64081  -0.62462  -0.61965  -0.59559
 Alpha  occ. eigenvalues --   -0.58519  -0.58107  -0.57373  -0.56279  -0.55927
 Alpha  occ. eigenvalues --   -0.54750  -0.54217  -0.53672  -0.53564  -0.52859
 Alpha  occ. eigenvalues --   -0.52587  -0.52230  -0.51496  -0.50779  -0.50447
 Alpha  occ. eigenvalues --   -0.49691  -0.49321  -0.48911  -0.47935  -0.47894
 Alpha  occ. eigenvalues --   -0.47510  -0.47414  -0.46510  -0.45670  -0.45225
 Alpha  occ. eigenvalues --   -0.45113  -0.44615  -0.44502  -0.43789  -0.43329
 Alpha  occ. eigenvalues --   -0.42392  -0.42074  -0.41611  -0.41338  -0.41272
 Alpha  occ. eigenvalues --   -0.40662  -0.40538  -0.40464  -0.39766  -0.39682
 Alpha  occ. eigenvalues --   -0.39514  -0.36166  -0.35926  -0.35036  -0.34477
 Alpha  occ. eigenvalues --   -0.33467  -0.33068  -0.32080
 Alpha virt. eigenvalues --   -0.13432  -0.13134  -0.07895  -0.07524  -0.06013
 Alpha virt. eigenvalues --   -0.05523  -0.04275  -0.02502  -0.02066  -0.00483
 Alpha virt. eigenvalues --   -0.00122   0.01119   0.01753   0.02043   0.03199

 Mulliken charges:
               1
     1  N   -0.751421
     2  H    0.423096
     3  H    0.422741
     4  H    0.440037
     5  C   -0.278749
     6  H    0.249373
     7  H    0.249478
     8  C    0.638075
     9  O   -0.529429
    10  N   -0.585238
    11  H    0.373932
    12  C   -0.088555
    13  H    0.193807
    14  C    0.638072
    15  C   -0.257737
    16  H    0.153185
    17  H    0.162156
    18  O   -0.552673
    19  C   -0.071073
    20  H    0.112978
    21  C   -0.446655
    22  H    0.154650
    23  H    0.156435
    24  H    0.146499
    25  C   -0.460281
    26  H    0.149572
    27  H    0.158914
    28  H    0.156700
    29  N   -0.619006
    30  H    0.363779
    31  C   -0.051225
    32  H    0.178166
    33  C    0.622092
    34  C   -0.078409
    35  H    0.155967
    36  O   -0.557155
    37  C   -0.454860
    38  H    0.161510
    39  H    0.157096
    40  H    0.138709
    41  C   -0.481592
    42  H    0.177829
    43  H    0.161458
    44  H    0.150647
    45  N   -0.622937
    46  H    0.368438
    47  C   -0.050977
    48  H    0.191146
    49  C    0.586462
    50  C   -0.282879
    51  H    0.172782
    52  H    0.147406
    53  O   -0.613410
    54  C   -0.278316
    55  H    0.163990
    56  H    0.138761
    57  C   -0.278985
    58  H    0.146987
    59  H    0.152188
    60  C   -0.140772
    61  H    0.151394
    62  H    0.160588
    63  N   -0.774673
    64  H    0.339668
    65  H    0.485064
    66  H    0.329609
    67  O   -0.474429
 Sum of Mulliken charges =   1.00000

 Dipole moment (field-independent basis, Debye):
    X=            -17.9767    Y=              3.9732    Z=              8.6741  Tot=             20.3517
 Quadrupole moment (field-independent basis, Debye-Ang):
   XX=            -77.9726   YY=           -166.5017   ZZ=             -3.8077
   XY=            -23.8419   XZ=           -121.3293   YZ=             13.2820

 Normal termination of Gaussian 16 at Thu Jun  2 03:21:23 2022.
