 Gaussian 16, Revision C.01,
 Gaussian 16:  ES64L-G16RevC.01  3-Jul-2019

 ----------------------------------------------------------------------
 # B3LYP/6-31G* empiricaldispersion=gd3 guess=read geom=check nosymm in
 tegral(ultrafinegrid)
 ----------------------------------------------------------------------

 -----------------------------------------------------
 Candidate Structure: Conf:84 Charge calc in gas phase
 -----------------------------------------------------
 Structure from the checkpoint file:  "conf-84.chk"
 Charge =  1 Multiplicity = 1

                          Input orientation:
 ---------------------------------------------------------------------
 Center     Atomic      Atomic             Coordinates (Angstroms)
 Number     Number       Type             X           Y           Z
 ---------------------------------------------------------------------
      1          7           0       -5.986955    0.423704    3.976079
      2          1           0       -5.924431   -0.103488    4.851101
      3          1           0       -6.829237    1.004052    4.006721
      4          1           0       -6.029752   -0.254394    3.139541
      5          6           0       -4.735275    1.188614    3.641667
      6          1           0       -4.008707    1.086534    4.449652
      7          1           0       -4.973407    2.244348    3.502168
      8          6           0       -4.246009    0.525414    2.323671
      9          8           0       -4.952380   -0.391672    1.872052
     10          7           0       -3.133287    1.008237    1.804671
     11          1           0       -2.532253    1.661034    2.319890
     12          6           0       -2.426194    0.460150    0.642618
     13          1           0       -2.627582   -0.613303    0.586215
     14          6           0       -0.934963    0.721892    0.958884
     15          6           0       -2.821933    1.165040   -0.671516
     16          1           0       -2.612777    2.235824   -0.546794
     17          1           0       -2.146313    0.807578   -1.460221
     18          8           0       -0.632449    1.530565    1.842945
     19          6           0       -4.277610    0.962161   -1.131286
     20          1           0       -4.943718    1.273923   -0.313409
     21          6           0       -4.558601    1.865547   -2.341530
     22          1           0       -3.913538    1.594780   -3.186737
     23          1           0       -5.597819    1.763475   -2.672219
     24          1           0       -4.379776    2.921833   -2.108248
     25          6           0       -4.579852   -0.505799   -1.463589
     26          1           0       -3.903397   -0.873837   -2.245591
     27          1           0       -4.485997   -1.154255   -0.587258
     28          1           0       -5.604111   -0.611642   -1.837341
     29          7           0       -0.064673    0.043084    0.201883
     30          1           0       -0.382687   -0.522817   -0.581506
     31          6           0        1.374729    0.292423    0.176551
     32          1           0        1.553050    1.283359    0.606840
     33          6           0        1.750673    0.251926   -1.317402
     34          6           0        2.163404   -0.771846    0.994769
     35          1           0        2.004626   -1.736902    0.492728
     36          8           0        1.097180   -0.448678   -2.096020
     37          6           0        3.670079   -0.469538    1.020288
     38          1           0        3.863487    0.516585    1.463086
     39          1           0        4.187769   -1.209849    1.638642
     40          1           0        4.133447   -0.487983    0.030619
     41          6           0        1.615244   -0.867138    2.426031
     42          1           0        1.701585    0.095501    2.942633
     43          1           0        2.180095   -1.613290    2.994865
     44          1           0        0.561787   -1.162895    2.438784
     45          7           0        2.806903    1.001037   -1.689731
     46          1           0        3.416466    1.398446   -0.980865
     47          6           0        3.448935    0.830378   -2.991306
     48          1           0        3.500963   -0.246731   -3.207411
     49          6           0        4.906394    1.315787   -2.814168
     50          6           0        2.671048    1.499009   -4.132774
     51          1           0        3.087944    1.128081   -5.072358
     52          1           0        1.646898    1.116554   -4.091841
     53          8           0        5.620653    1.568779   -3.899016
     54          6           0        2.681380    3.043883   -4.105235
     55          1           0        3.536364    3.411842   -3.521580
     56          1           0        1.790489    3.399238   -3.575881
     57          6           0        2.738589    3.686376   -5.503542
     58          1           0        2.062684    3.153171   -6.188574
     59          1           0        2.364111    4.716159   -5.450998
     60          6           0        4.144084    3.758428   -6.114188
     61          1           0        4.101461    4.320710   -7.058499
     62          1           0        4.803402    4.312535   -5.435795
     63          7           0        4.758251    2.421658   -6.304094
     64          1           0        5.688528    2.529775   -6.709345
     65          1           0        5.122306    1.707426   -4.770627
     66          1           0        4.217522    1.884380   -6.982261
     67          8           0        5.383596    1.413277   -1.698099
 ---------------------------------------------------------------------

 SCF Done:  E(RB3LYP) =  -1396.72181017     A.U. after    1 cycles

 Alpha  occ. eigenvalues --  -19.28477 -19.22830 -19.22158 -19.19664 -19.18769
 Alpha  occ. eigenvalues --  -14.61965 -14.50438 -14.45517 -14.43281 -14.41784
 Alpha  occ. eigenvalues --  -10.45240 -10.42375 -10.39149 -10.37404 -10.36531
 Alpha  occ. eigenvalues --  -10.34945 -10.31414 -10.30446 -10.28861 -10.28818
 Alpha  occ. eigenvalues --  -10.28118 -10.27066 -10.25730 -10.25487 -10.25411
 Alpha  occ. eigenvalues --  -10.25377 -10.25340 -10.24351 -10.23972  -1.20909
 Alpha  occ. eigenvalues --   -1.15519  -1.14514  -1.14107  -1.11456  -1.07190
 Alpha  occ. eigenvalues --   -1.06417  -1.02231  -0.99923  -0.97377  -0.92611
 Alpha  occ. eigenvalues --   -0.89887  -0.88442  -0.86794  -0.85108  -0.82628
 Alpha  occ. eigenvalues --   -0.79210  -0.76777  -0.76366  -0.75933  -0.75909
 Alpha  occ. eigenvalues --   -0.75580  -0.75065  -0.71921  -0.70271  -0.68903
 Alpha  occ. eigenvalues --   -0.67654  -0.67271  -0.66073  -0.65222  -0.65120
 Alpha  occ. eigenvalues --   -0.64169  -0.63682  -0.62685  -0.62113  -0.59880
 Alpha  occ. eigenvalues --   -0.58611  -0.57625  -0.57421  -0.56528  -0.55414
 Alpha  occ. eigenvalues --   -0.54962  -0.54422  -0.53820  -0.53620  -0.53538
 Alpha  occ. eigenvalues --   -0.53154  -0.52185  -0.51268  -0.50911  -0.50434
 Alpha  occ. eigenvalues --   -0.49871  -0.49241  -0.48338  -0.48084  -0.47924
 Alpha  occ. eigenvalues --   -0.47395  -0.46938  -0.46587  -0.45927  -0.45379
 Alpha  occ. eigenvalues --   -0.45278  -0.44705  -0.44680  -0.43682  -0.43402
 Alpha  occ. eigenvalues --   -0.42430  -0.42402  -0.41937  -0.41618  -0.41389
 Alpha  occ. eigenvalues --   -0.40877  -0.40520  -0.40420  -0.40297  -0.39789
 Alpha  occ. eigenvalues --   -0.39691  -0.36317  -0.36043  -0.35224  -0.34219
 Alpha  occ. eigenvalues --   -0.33283  -0.33050  -0.32351
 Alpha virt. eigenvalues --   -0.13517  -0.13186  -0.07942  -0.07568  -0.06091
 Alpha virt. eigenvalues --   -0.05631  -0.04471  -0.02572  -0.02134  -0.00516
 Alpha virt. eigenvalues --   -0.00189   0.00997   0.01675   0.02116   0.03118

 Mulliken charges:
               1
     1  N   -0.751347
     2  H    0.423326
     3  H    0.422818
     4  H    0.440135
     5  C   -0.278733
     6  H    0.249574
     7  H    0.249413
     8  C    0.638461
     9  O   -0.529130
    10  N   -0.585438
    11  H    0.373719
    12  C   -0.089968
    13  H    0.194550
    14  C    0.633583
    15  C   -0.260782
    16  H    0.152359
    17  H    0.165089
    18  O   -0.548471
    19  C   -0.070931
    20  H    0.113091
    21  C   -0.446801
    22  H    0.154973
    23  H    0.156656
    24  H    0.145517
    25  C   -0.460774
    26  H    0.150759
    27  H    0.158762
    28  H    0.156930
    29  N   -0.605473
    30  H    0.360191
    31  C   -0.063167
    32  H    0.178437
    33  C    0.616886
    34  C   -0.073306
    35  H    0.143698
    36  O   -0.549601
    37  C   -0.475003
    38  H    0.150893
    39  H    0.163189
    40  H    0.173720
    41  C   -0.444258
    42  H    0.159709
    43  H    0.156814
    44  H    0.133666
    45  N   -0.606318
    46  H    0.365005
    47  C   -0.064647
    48  H    0.191794
    49  C    0.592949
    50  C   -0.293292
    51  H    0.145113
    52  H    0.178504
    53  O   -0.612547
    54  C   -0.269611
    55  H    0.149776
    56  H    0.147307
    57  C   -0.274321
    58  H    0.140231
    59  H    0.153909
    60  C   -0.142746
    61  H    0.150573
    62  H    0.168501
    63  N   -0.774122
    64  H    0.340749
    65  H    0.479277
    66  H    0.325467
    67  O   -0.475283
 Sum of Mulliken charges =   1.00000

 Dipole moment (field-independent basis, Debye):
    X=            -19.1798    Y=              5.9573    Z=              6.8774  Tot=             21.2286
 Quadrupole moment (field-independent basis, Debye-Ang):
   XX=            -52.1090   YY=           -159.6048   ZZ=            -51.2025
   XY=            -12.2604   XZ=           -115.9755   YZ=            -16.3304

 Normal termination of Gaussian 16 at Thu Jun  2 03:14:52 2022.
