 Gaussian 16, Revision C.01,
 Gaussian 16:  ES64L-G16RevC.01  3-Jul-2019

 ----------------------------------------------------------------------
 # B3LYP/6-31G* empiricaldispersion=gd3 guess=read geom=check nosymm in
 tegral(ultrafinegrid)
 ----------------------------------------------------------------------

 ------------------------------------------------------
 Candidate Structure: Conf:231 Charge calc in gas phase
 ------------------------------------------------------
 Structure from the checkpoint file:  "conf-231.chk"
 Charge =  1 Multiplicity = 1

                          Input orientation:
 ---------------------------------------------------------------------
 Center     Atomic      Atomic             Coordinates (Angstroms)
 Number     Number       Type             X           Y           Z
 ---------------------------------------------------------------------
      1          7           0       -1.920643   -0.940943    3.945090
      2          1           0       -0.967165   -0.563512    4.018715
      3          1           0       -2.221321   -1.280883    4.863146
      4          1           0       -1.885345   -1.716602    3.232446
      5          6           0       -2.857853    0.053782    3.313868
      6          1           0       -2.574749    1.065605    3.607278
      7          1           0       -3.871825   -0.162295    3.659382
      8          6           0       -2.716639   -0.231857    1.799970
      9          8           0       -2.294661   -1.352435    1.487105
     10          7           0       -3.037590    0.745100    0.953542
     11          1           0       -3.283215    1.660326    1.314392
     12          6           0       -2.721258    0.670402   -0.494779
     13          1           0       -2.853168   -0.374429   -0.782984
     14          6           0       -1.228882    1.079091   -0.606290
     15          6           0       -3.637802    1.585303   -1.301013
     16          1           0       -3.402011    2.625083   -1.042357
     17          1           0       -3.353434    1.471390   -2.354852
     18          8           0       -0.900540    2.242017   -0.825909
     19          6           0       -5.145674    1.312078   -1.142937
     20          1           0       -5.415111    1.466372   -0.085902
     21          6           0       -5.939834    2.324831   -1.980329
     22          1           0       -5.722095    2.200698   -3.048277
     23          1           0       -7.017344    2.187100   -1.842208
     24          1           0       -5.692473    3.356814   -1.705856
     25          6           0       -5.522619   -0.127626   -1.521855
     26          1           0       -5.221243   -0.350189   -2.553192
     27          1           0       -5.053480   -0.871210   -0.866322
     28          1           0       -6.605862   -0.273325   -1.455627
     29          7           0       -0.370500    0.073799   -0.314952
     30          1           0       -0.715803   -0.876839   -0.243637
     31          6           0        1.075282    0.232321   -0.181317
     32          1           0        1.301262    1.286965   -0.351628
     33          6           0        1.707309   -0.669291   -1.253668
     34          6           0        1.550827   -0.204184    1.224015
     35          1           0        1.235315   -1.249659    1.343349
     36          8           0        1.492151   -1.876508   -1.222137
     37          6           0        3.082008   -0.150385    1.322928
     38          1           0        3.454942    0.859304    1.109604
     39          1           0        3.418024   -0.422738    2.328987
     40          1           0        3.550568   -0.849817    0.623425
     41          6           0        0.898217    0.649735    2.320574
     42          1           0        1.251712    1.686736    2.285965
     43          1           0        1.152001    0.257544    3.316540
     44          1           0       -0.192764    0.681435    2.200294
     45          7           0        2.475393   -0.024764   -2.173443
     46          1           0        4.404731   -0.381010   -1.602781
     47          6           0        2.913643   -0.726272   -3.385654
     48          1           0        2.267552   -1.598879   -3.526942
     49          6           0        4.347375   -1.274185   -3.260967
     50          6           0        2.812110    0.210378   -4.603747
     51          1           0        3.533762    1.025203   -4.468189
     52          1           0        3.155277   -0.352324   -5.475397
     53          8           0        4.849757   -1.939863   -4.130141
     54          6           0        1.381652    0.765972   -4.807759
     55          1           0        0.764063    0.511914   -3.937573
     56          1           0        0.909624    0.264413   -5.660060
     57          6           0        1.295843    2.287503   -5.032005
     58          1           0        1.719307    2.548503   -6.010350
     59          1           0        0.234145    2.567946   -5.075930
     60          6           0        1.999703    3.159941   -3.981799
     61          1           0        3.086915    3.087740   -4.099835
     62          1           0        1.736603    4.211466   -4.171624
     63          7           0        1.688849    2.745095   -2.596083
     64          1           0        2.085496    3.423836   -1.946702
     65          1           0        0.682513    2.763311   -2.421890
     66          1           0        2.317322    1.002005   -2.261059
     67          8           0        5.009364   -0.936076   -2.133061
 ---------------------------------------------------------------------

 SCF Done:  E(RB3LYP) =  -1396.70838410     A.U. after    1 cycles

 Alpha  occ. eigenvalues --  -19.30106 -19.24641 -19.23442 -19.20624 -19.18385
 Alpha  occ. eigenvalues --  -14.64225 -14.53477 -14.47622 -14.43789 -14.41318
 Alpha  occ. eigenvalues --  -10.47270 -10.44335 -10.40748 -10.37526 -10.36953
 Alpha  occ. eigenvalues --  -10.36513 -10.33267 -10.30769 -10.30690 -10.30464
 Alpha  occ. eigenvalues --  -10.29656 -10.29366 -10.29041 -10.27615 -10.26877
 Alpha  occ. eigenvalues --  -10.26239 -10.26120 -10.26018 -10.25833  -1.22764
 Alpha  occ. eigenvalues --   -1.17791  -1.15356  -1.15257  -1.12444  -1.09586
 Alpha  occ. eigenvalues --   -1.07043  -1.04007  -1.00739  -0.97101  -0.94377
 Alpha  occ. eigenvalues --   -0.91833  -0.91322  -0.87412  -0.86671  -0.83531
 Alpha  occ. eigenvalues --   -0.81410  -0.79943  -0.78435  -0.77715  -0.77202
 Alpha  occ. eigenvalues --   -0.76591  -0.76247  -0.75377  -0.71023  -0.70343
 Alpha  occ. eigenvalues --   -0.69574  -0.68714  -0.67283  -0.66873  -0.65839
 Alpha  occ. eigenvalues --   -0.65575  -0.64853  -0.64159  -0.62568  -0.62013
 Alpha  occ. eigenvalues --   -0.60380  -0.59669  -0.58811  -0.57730  -0.57399
 Alpha  occ. eigenvalues --   -0.57141  -0.56650  -0.55886  -0.55167  -0.54468
 Alpha  occ. eigenvalues --   -0.53944  -0.52951  -0.52788  -0.52210  -0.51620
 Alpha  occ. eigenvalues --   -0.51292  -0.50544  -0.50208  -0.49488  -0.49227
 Alpha  occ. eigenvalues --   -0.49080  -0.48755  -0.48362  -0.47592  -0.47500
 Alpha  occ. eigenvalues --   -0.46437  -0.46346  -0.45541  -0.45326  -0.44988
 Alpha  occ. eigenvalues --   -0.44711  -0.44429  -0.44013  -0.43615  -0.42974
 Alpha  occ. eigenvalues --   -0.42668  -0.42545  -0.42136  -0.40876  -0.40207
 Alpha  occ. eigenvalues --   -0.39799  -0.37535  -0.36782  -0.36556  -0.36115
 Alpha  occ. eigenvalues --   -0.34349  -0.33566  -0.31288
 Alpha virt. eigenvalues --   -0.16735  -0.13963  -0.10127  -0.09188  -0.08612
 Alpha virt. eigenvalues --   -0.06836  -0.04972  -0.04529  -0.04274  -0.03689
 Alpha virt. eigenvalues --   -0.02210  -0.01202  -0.00455   0.00076   0.00670

 Mulliken charges:
               1
     1  N   -0.742404
     2  H    0.426789
     3  H    0.428153
     4  H    0.439783
     5  C   -0.286151
     6  H    0.238791
     7  H    0.260492
     8  C    0.654694
     9  O   -0.526058
    10  N   -0.582755
    11  H    0.359813
    12  C   -0.087710
    13  H    0.202773
    14  C    0.618354
    15  C   -0.288179
    16  H    0.167612
    17  H    0.170725
    18  O   -0.523699
    19  C   -0.078357
    20  H    0.108187
    21  C   -0.445211
    22  H    0.157739
    23  H    0.161662
    24  H    0.150153
    25  C   -0.455455
    26  H    0.159013
    27  H    0.136791
    28  H    0.166790
    29  N   -0.603590
    30  H    0.365172
    31  C   -0.060044
    32  H    0.178140
    33  C    0.610759
    34  C   -0.070267
    35  H    0.148503
    36  O   -0.522272
    37  C   -0.475126
    38  H    0.153718
    39  H    0.161671
    40  H    0.187375
    41  C   -0.480426
    42  H    0.182841
    43  H    0.138724
    44  H    0.102524
    45  N   -0.704289
    46  H    0.421472
    47  C   -0.066475
    48  H    0.204509
    49  C    0.608685
    50  C   -0.295746
    51  H    0.149244
    52  H    0.194051
    53  O   -0.444141
    54  C   -0.267517
    55  H    0.130309
    56  H    0.157896
    57  C   -0.279228
    58  H    0.160103
    59  H    0.138662
    60  C   -0.138264
    61  H    0.157206
    62  H    0.146542
    63  N   -0.787013
    64  H    0.317342
    65  H    0.342202
    66  H    0.421016
    67  O   -0.576603
 Sum of Mulliken charges =   1.00000

 Dipole moment (field-independent basis, Debye):
    X=            -13.8507    Y=              5.5333    Z=             14.5309  Tot=             20.8232
 Quadrupole moment (field-independent basis, Debye-Ang):
   XX=           -153.8871   YY=           -173.3553   ZZ=            -98.9884
   XY=             18.4814   XZ=            -15.5758   YZ=            -28.7959

 Normal termination of Gaussian 16 at Thu Jun  2 03:14:53 2022.
