 Gaussian 16, Revision C.01,
 Gaussian 16:  ES64L-G16RevC.01  3-Jul-2019

 ----------------------------------------------------------------------
 # B3LYP/6-31G* empiricaldispersion=gd3 guess=read geom=check nosymm in
 tegral(ultrafinegrid)
 ----------------------------------------------------------------------

 -----------------------------------------------------
 Candidate Structure: Conf:34 Charge calc in gas phase
 -----------------------------------------------------
 Structure from the checkpoint file:  "conf-34.chk"
 Charge =  1 Multiplicity = 1

                          Input orientation:
 ---------------------------------------------------------------------
 Center     Atomic      Atomic             Coordinates (Angstroms)
 Number     Number       Type             X           Y           Z
 ---------------------------------------------------------------------
      1          7           0       -3.699518    4.441740    1.414424
      2          1           0       -3.520361    5.122107    2.154480
      3          1           0       -4.174375    4.913764    0.642362
      4          1           0       -4.304645    3.624511    1.770657
      5          6           0       -2.467936    3.683892    0.971109
      6          1           0       -1.644595    3.880006    1.657497
      7          1           0       -2.128978    3.990037   -0.023181
      8          6           0       -2.917675    2.204954    1.086830
      9          8           0       -4.011665    1.993722    1.651346
     10          7           0       -2.080759    1.315982    0.583223
     11          1           0       -1.173803    1.731983    0.283029
     12          6           0       -2.152457   -0.141505    0.813778
     13          1           0       -2.564074   -0.311821    1.810417
     14          6           0       -0.672027   -0.585998    0.878902
     15          6           0       -2.987106   -0.879002   -0.247334
     16          1           0       -2.608940   -0.616861   -1.244746
     17          1           0       -2.811245   -1.956285   -0.118601
     18          8           0       -0.103773   -0.773422    1.943645
     19          6           0       -4.505443   -0.613571   -0.220269
     20          1           0       -4.665048    0.468643   -0.315299
     21          6           0       -5.163954   -1.303102   -1.424726
     22          1           0       -5.029241   -2.391222   -1.373707
     23          1           0       -6.241341   -1.104063   -1.449820
     24          1           0       -4.734549   -0.957680   -2.373261
     25          6           0       -5.154145   -1.074217    1.092032
     26          1           0       -4.963958   -2.140996    1.268203
     27          1           0       -4.782595   -0.506099    1.949058
     28          1           0       -6.240324   -0.933085    1.053064
     29          7           0       -0.057891   -0.661322   -0.338777
     30          1           0       -0.584645   -0.417257   -1.168992
     31          6           0        1.388112   -0.515330   -0.513895
     32          1           0        1.815971   -0.376612    0.483931
     33          6           0        1.511339    0.752248   -1.381009
     34          6           0        2.036252   -1.740524   -1.188457
     35          1           0        1.568663   -1.839023   -2.178048
     36          8           0        0.891546    0.809223   -2.442929
     37          6           0        3.541847   -1.508056   -1.379690
     38          1           0        4.041570   -1.379093   -0.410676
     39          1           0        4.003559   -2.366856   -1.878240
     40          1           0        3.746089   -0.617269   -1.984573
     41          6           0        1.765965   -3.011086   -0.374885
     42          1           0        2.205568   -2.934095    0.627049
     43          1           0        2.202306   -3.885358   -0.870598
     44          1           0        0.692560   -3.185208   -0.254531
     45          7           0        2.267950    1.781138   -0.893774
     46          1           0        2.457818    1.692471    0.097133
     47          6           0        1.897096    3.160897   -1.259641
     48          1           0        2.570282    3.805245   -0.677750
     49          6           0        0.439996    3.455127   -0.746407
     50          6           0        2.112009    3.451240   -2.750915
     51          1           0        3.049034    2.976785   -3.070529
     52          1           0        1.303141    2.982224   -3.314948
     53          8           0       -0.258886    4.304786   -1.339371
     54          6           0        2.155590    4.953842   -3.048865
     55          1           0        3.018432    5.419409   -2.550437
     56          1           0        1.243761    5.402059   -2.641532
     57          6           0        2.238942    5.210417   -4.561478
     58          1           0        3.150980    4.753485   -4.972758
     59          1           0        1.380763    4.729300   -5.051678
     60          6           0        2.228445    6.699855   -4.859463
     61          1           0        1.316804    7.187834   -4.506343
     62          1           0        3.096516    7.220210   -4.447187
     63          7           0        2.276023    6.941159   -6.376663
     64          1           0        2.269113    7.938810   -6.620876
     65          1           0        3.121997    6.522410   -6.782210
     66          1           0        1.471371    6.497369   -6.836192
     67          8           0        0.123836    2.788045    0.287909
 ---------------------------------------------------------------------

 SCF Done:  E(RB3LYP) =  -1396.68157033     A.U. after    1 cycles

 Alpha  occ. eigenvalues --  -19.22074 -19.17616 -19.16707 -19.14760 -19.14567
 Alpha  occ. eigenvalues --  -14.64532 -14.55500 -14.43144 -14.41283 -14.41096
 Alpha  occ. eigenvalues --  -10.41129 -10.38258 -10.34240 -10.34041 -10.33851
 Alpha  occ. eigenvalues --  -10.32976 -10.32735 -10.29369 -10.28462 -10.28146
 Alpha  occ. eigenvalues --  -10.28063 -10.25406 -10.24588 -10.24111 -10.24083
 Alpha  occ. eigenvalues --  -10.22369 -10.22265 -10.21633 -10.21451  -1.18353
 Alpha  occ. eigenvalues --   -1.14171  -1.09753  -1.08930  -1.08474  -1.07761
 Alpha  occ. eigenvalues --   -1.00822  -0.99232  -0.97662  -0.97353  -0.94286
 Alpha  occ. eigenvalues --   -0.87304  -0.86485  -0.85145  -0.83666  -0.80816
 Alpha  occ. eigenvalues --   -0.80031  -0.77396  -0.76971  -0.75298  -0.73001
 Alpha  occ. eigenvalues --   -0.72909  -0.72302  -0.71298  -0.69680  -0.68925
 Alpha  occ. eigenvalues --   -0.68540  -0.65447  -0.65187  -0.64024  -0.63294
 Alpha  occ. eigenvalues --   -0.62570  -0.61856  -0.61629  -0.60245  -0.58863
 Alpha  occ. eigenvalues --   -0.57054  -0.56725  -0.55312  -0.55015  -0.54494
 Alpha  occ. eigenvalues --   -0.54077  -0.53553  -0.52627  -0.51590  -0.50983
 Alpha  occ. eigenvalues --   -0.50399  -0.49877  -0.48969  -0.48500  -0.48446
 Alpha  occ. eigenvalues --   -0.48236  -0.47292  -0.47160  -0.46128  -0.45909
 Alpha  occ. eigenvalues --   -0.44858  -0.44722  -0.44280  -0.44040  -0.43526
 Alpha  occ. eigenvalues --   -0.43293  -0.43021  -0.42940  -0.42695  -0.42303
 Alpha  occ. eigenvalues --   -0.41987  -0.41461  -0.40609  -0.38692  -0.38400
 Alpha  occ. eigenvalues --   -0.38329  -0.37833  -0.37606  -0.37558  -0.36752
 Alpha  occ. eigenvalues --   -0.34164  -0.33623  -0.32093  -0.30644  -0.30135
 Alpha  occ. eigenvalues --   -0.29446  -0.29157  -0.27883
 Alpha virt. eigenvalues --   -0.15038  -0.08368  -0.08251  -0.07835  -0.06897
 Alpha virt. eigenvalues --   -0.05659  -0.04906  -0.02518  -0.02244  -0.01592
 Alpha virt. eigenvalues --   -0.00750  -0.00555   0.01191   0.02639   0.02733

 Mulliken charges:
               1
     1  N   -0.756540
     2  H    0.405273
     3  H    0.404641
     4  H    0.424742
     5  C   -0.293694
     6  H    0.248963
     7  H    0.261876
     8  C    0.614756
     9  O   -0.557683
    10  N   -0.623619
    11  H    0.427488
    12  C   -0.050170
    13  H    0.193171
    14  C    0.568864
    15  C   -0.266263
    16  H    0.131843
    17  H    0.155249
    18  O   -0.498794
    19  C   -0.068781
    20  H    0.126449
    21  C   -0.446134
    22  H    0.147524
    23  H    0.146864
    24  H    0.137529
    25  C   -0.454258
    26  H    0.141351
    27  H    0.165583
    28  H    0.144011
    29  N   -0.601040
    30  H    0.346989
    31  C   -0.033337
    32  H    0.166539
    33  C    0.603871
    34  C   -0.074850
    35  H    0.139799
    36  O   -0.547282
    37  C   -0.460667
    38  H    0.143982
    39  H    0.154666
    40  H    0.149400
    41  C   -0.446213
    42  H    0.153932
    43  H    0.146800
    44  H    0.156086
    45  N   -0.575796
    46  H    0.338243
    47  C   -0.073696
    48  H    0.143750
    49  C    0.612077
    50  C   -0.251970
    51  H    0.137627
    52  H    0.183976
    53  O   -0.588677
    54  C   -0.285248
    55  H    0.134459
    56  H    0.196133
    57  C   -0.291291
    58  H    0.161006
    59  H    0.170178
    60  C   -0.206290
    61  H    0.229617
    62  H    0.225143
    63  N   -0.731733
    64  H    0.427727
    65  H    0.425984
    66  H    0.426432
    67  O   -0.636566
 Sum of Mulliken charges =   1.00000

 Dipole moment (field-independent basis, Debye):
    X=              2.1262    Y=             34.6390    Z=            -22.0405  Tot=             41.1116
 Quadrupole moment (field-independent basis, Debye-Ang):
   XX=           -112.7234   YY=             66.9621   ZZ=            -17.3817
   XY=             26.5861   XZ=            -68.2671   YZ=           -151.7113

 Normal termination of Gaussian 16 at Thu Jun  2 03:14:53 2022.
