 Gaussian 16, Revision C.01,
 Gaussian 16:  ES64L-G16RevC.01  3-Jul-2019

 ----------------------------------------------------------------------
 # B3LYP/6-31G* empiricaldispersion=gd3 guess=read geom=check nosymm in
 tegral(ultrafinegrid)
 ----------------------------------------------------------------------

 ------------------------------------------------------
 Candidate Structure: Conf:123 Charge calc in gas phase
 ------------------------------------------------------
 Structure from the checkpoint file:  "conf-123.chk"
 Charge =  1 Multiplicity = 1

                          Input orientation:
 ---------------------------------------------------------------------
 Center     Atomic      Atomic             Coordinates (Angstroms)
 Number     Number       Type             X           Y           Z
 ---------------------------------------------------------------------
      1          7           0       -1.207350    0.926758    4.223668
      2          1           0       -0.914250    1.279640    3.262336
      3          1           0       -0.763975    1.460458    4.976777
      4          1           0       -0.899869   -0.053261    4.267087
      5          6           0       -2.720861    0.958432    4.264020
      6          1           0       -3.034637    2.002103    4.321413
      7          1           0       -3.064293    0.404383    5.138346
      8          6           0       -3.063141    0.236014    2.950965
      9          8           0       -2.673851   -0.917925    2.828144
     10          7           0       -3.558846    0.995978    1.939814
     11          1           0       -3.694553    1.980728    2.136260
     12          6           0       -3.030297    0.716619    0.602969
     13          1           0       -3.267415   -0.320495    0.357310
     14          6           0       -1.486447    0.865030    0.679498
     15          6           0       -3.630349    1.672275   -0.439536
     16          1           0       -3.319390    2.698184   -0.192696
     17          1           0       -3.171606    1.441784   -1.409689
     18          8           0       -0.937785    1.497918    1.609184
     19          6           0       -5.164652    1.606157   -0.575172
     20          1           0       -5.605107    1.859099    0.400373
     21          6           0       -5.631802    2.654717   -1.595187
     22          1           0       -5.228453    2.435929   -2.591850
     23          1           0       -6.723921    2.661569   -1.672683
     24          1           0       -5.307726    3.664101   -1.315547
     25          6           0       -5.649769    0.203526   -0.966675
     26          1           0       -5.187968   -0.120938   -1.908204
     27          1           0       -5.424443   -0.545745   -0.199458
     28          1           0       -6.734816    0.200306   -1.112680
     29          7           0       -0.806878    0.290797   -0.306248
     30          1           0       -1.283355   -0.162757   -1.083670
     31          6           0        0.646056    0.328256   -0.462093
     32          1           0        1.016557    1.234533    0.026887
     33          6           0        0.871771    0.369231   -1.985372
     34          6           0        1.326425   -0.923330    0.170024
     35          1           0        0.971830   -1.792972   -0.400279
     36          8           0        0.069564   -0.202669   -2.730011
     37          6           0        2.857275   -0.844336    0.057852
     38          1           0        3.242781    0.041513    0.579829
     39          1           0        3.311415   -1.723155    0.526421
     40          1           0        3.214272   -0.800591   -0.973625
     41          6           0        0.911139   -1.109217    1.638749
     42          1           0        1.219703   -0.240179    2.234482
     43          1           0        1.405239   -1.994799    2.051733
     44          1           0       -0.169015   -1.248805    1.750135
     45          7           0        1.961442    1.035505   -2.407897
     46          1           0        2.655757    1.346784   -1.733935
     47          6           0        2.484914    0.909304   -3.762589
     48          1           0        2.055244    0.001763   -4.190750
     49          6           0        4.005574    0.719783   -3.656527
     50          6           0        2.130387    2.128062   -4.652594
     51          1           0        2.150367    3.013389   -4.007252
     52          1           0        2.915039    2.276823   -5.402350
     53          8           0        4.605895    0.910782   -2.616133
     54          6           0        0.764029    1.996808   -5.348932
     55          1           0        0.350647    3.000054   -5.509858
     56          1           0        0.067625    1.473845   -4.681846
     57          6           0        0.789962    1.290726   -6.717141
     58          1           0       -0.233845    1.288907   -7.111389
     59          1           0        1.380243    1.890252   -7.426709
     60          6           0        1.295018   -0.159805   -6.762302
     61          1           0        0.920977   -0.718240   -5.896316
     62          1           0        0.883254   -0.648025   -7.656810
     63          7           0        2.781015   -0.253680   -6.765802
     64          1           0        3.049234   -1.228329   -6.911676
     65          1           0        3.136189    0.245703   -7.583126
     66          1           0        3.899564    0.181898   -5.503781
     67          8           0        4.593915    0.357416   -4.786849
 ---------------------------------------------------------------------

 SCF Done:  E(RB3LYP) =  -1396.73283839     A.U. after    1 cycles

 Alpha  occ. eigenvalues --  -19.26743 -19.25417 -19.23889 -19.21563 -19.19899
 Alpha  occ. eigenvalues --  -14.60297 -14.50026 -14.48454 -14.45239 -14.42887
 Alpha  occ. eigenvalues --  -10.44054 -10.41947 -10.40937 -10.38622 -10.38191
 Alpha  occ. eigenvalues --  -10.35979 -10.33855 -10.31373 -10.30331 -10.29788
 Alpha  occ. eigenvalues --  -10.29523 -10.28977 -10.27372 -10.26694 -10.26434
 Alpha  occ. eigenvalues --  -10.26301 -10.26065 -10.25986 -10.25806  -1.19542
 Alpha  occ. eigenvalues --   -1.16452  -1.15636  -1.14319  -1.13363  -1.07700
 Alpha  occ. eigenvalues --   -1.06820  -1.04906  -1.01860  -0.98302  -0.92732
 Alpha  occ. eigenvalues --   -0.90573  -0.89463  -0.87914  -0.85700  -0.83710
 Alpha  occ. eigenvalues --   -0.81197  -0.77786  -0.77380  -0.77213  -0.76110
 Alpha  occ. eigenvalues --   -0.75059  -0.73515  -0.72749  -0.71096  -0.70498
 Alpha  occ. eigenvalues --   -0.68346  -0.67951  -0.67113  -0.66438  -0.65958
 Alpha  occ. eigenvalues --   -0.65188  -0.64747  -0.63227  -0.61997  -0.60522
 Alpha  occ. eigenvalues --   -0.59460  -0.58275  -0.58026  -0.57651  -0.56440
 Alpha  occ. eigenvalues --   -0.56231  -0.56034  -0.55463  -0.55013  -0.54520
 Alpha  occ. eigenvalues --   -0.54003  -0.53076  -0.52373  -0.51683  -0.51606
 Alpha  occ. eigenvalues --   -0.51305  -0.50280  -0.50114  -0.49811  -0.49336
 Alpha  occ. eigenvalues --   -0.48532  -0.48358  -0.48104  -0.47448  -0.47273
 Alpha  occ. eigenvalues --   -0.47039  -0.46214  -0.46053  -0.45176  -0.44469
 Alpha  occ. eigenvalues --   -0.43635  -0.43116  -0.43047  -0.42803  -0.42444
 Alpha  occ. eigenvalues --   -0.42276  -0.41356  -0.41210  -0.41126  -0.40544
 Alpha  occ. eigenvalues --   -0.40054  -0.38859  -0.37911  -0.37100  -0.35595
 Alpha  occ. eigenvalues --   -0.35325  -0.34625  -0.33343
 Alpha virt. eigenvalues --   -0.15118  -0.11049  -0.09906  -0.07516  -0.06091
 Alpha virt. eigenvalues --   -0.05202  -0.04655  -0.02617  -0.01981  -0.01378
 Alpha virt. eigenvalues --   -0.00496  -0.00083   0.00758   0.01919   0.02177

 Mulliken charges:
               1
     1  N   -0.761165
     2  H    0.463271
     3  H    0.413689
     4  H    0.424455
     5  C   -0.262840
     6  H    0.217545
     7  H    0.244963
     8  C    0.587745
     9  O   -0.478823
    10  N   -0.548570
    11  H    0.342321
    12  C   -0.080155
    13  H    0.209484
    14  C    0.661457
    15  C   -0.297303
    16  H    0.149231
    17  H    0.167111
    18  O   -0.620754
    19  C   -0.072776
    20  H    0.131539
    21  C   -0.446781
    22  H    0.153498
    23  H    0.165390
    24  H    0.147495
    25  C   -0.458947
    26  H    0.150881
    27  H    0.151851
    28  H    0.169372
    29  N   -0.588537
    30  H    0.369123
    31  C   -0.058175
    32  H    0.174679
    33  C    0.619635
    34  C   -0.072942
    35  H    0.155707
    36  O   -0.549709
    37  C   -0.473452
    38  H    0.148875
    39  H    0.167226
    40  H    0.180317
    41  C   -0.472519
    42  H    0.123944
    43  H    0.167757
    44  H    0.158265
    45  N   -0.595283
    46  H    0.357949
    47  C   -0.094538
    48  H    0.191018
    49  C    0.608021
    50  C   -0.262148
    51  H    0.156087
    52  H    0.156772
    53  O   -0.479711
    54  C   -0.281668
    55  H    0.145603
    56  H    0.166140
    57  C   -0.267905
    58  H    0.155149
    59  H    0.141062
    60  C   -0.153626
    61  H    0.172871
    62  H    0.151283
    63  N   -0.779063
    64  H    0.337157
    65  H    0.333025
    66  H    0.473282
    67  O   -0.604856
 Sum of Mulliken charges =   1.00000

 Dipole moment (field-independent basis, Debye):
    X=             -8.4055    Y=              5.4391    Z=              5.0714  Tot=             11.2230
 Quadrupole moment (field-independent basis, Debye-Ang):
   XX=           -160.7216   YY=           -163.2434   ZZ=            -40.7528
   XY=            -21.6855   XZ=            -28.7387   YZ=             18.0582

 Normal termination of Gaussian 16 at Thu Jun  2 03:14:52 2022.
