 Gaussian 16, Revision C.01,
 Gaussian 16:  ES64L-G16RevC.01  3-Jul-2019

 ----------------------------------------------------------------------
 # B3LYP/6-31G* empiricaldispersion=gd3 guess=read geom=check nosymm in
 tegral(ultrafinegrid)
 ----------------------------------------------------------------------

 ------------------------------------------------------
 Candidate Structure: Conf:962 Charge calc in gas phase
 ------------------------------------------------------
 Structure from the checkpoint file:  "conf-962.chk"
 Charge =  1 Multiplicity = 1

                          Input orientation:
 ---------------------------------------------------------------------
 Center     Atomic      Atomic             Coordinates (Angstroms)
 Number     Number       Type             X           Y           Z
 ---------------------------------------------------------------------
      1          7           0       -5.909275   -0.404429    3.996093
      2          1           0       -5.887248   -1.293165    4.503498
      3          1           0       -6.625694    0.191691    4.419132
      4          1           0       -6.135208   -0.578575    2.959476
      5          6           0       -4.562746    0.257304    3.880052
      6          1           0       -3.815206   -0.321796    4.425157
      7          1           0       -4.609617    1.265543    4.294817
      8          6           0       -4.292454    0.271995    2.349605
      9          8           0       -5.179456   -0.208804    1.625045
     10          7           0       -3.148302    0.807959    1.967584
     11          1           0       -2.406005    1.034331    2.639679
     12          6           0       -2.624802    0.824249    0.597937
     13          1           0       -3.007909   -0.052225    0.067032
     14          6           0       -1.092496    0.718938    0.791015
     15          6           0       -2.985745    2.123639   -0.151006
     16          1           0       -2.585328    2.963077    0.432342
     17          1           0       -2.440336    2.123438   -1.104371
     18          8           0       -0.606756    0.906176    1.911719
     19          6           0       -4.483242    2.345079   -0.433893
     20          1           0       -5.025549    2.290571    0.521061
     21          6           0       -4.688864    3.751948   -1.015305
     22          1           0       -4.162311    3.859088   -1.972066
     23          1           0       -5.750841    3.947658   -1.198372
     24          1           0       -4.313459    4.528250   -0.338531
     25          6           0       -5.059132    1.275699   -1.372683
     26          1           0       -4.515695    1.264261   -2.326671
     27          1           0       -5.015747    0.274731   -0.932857
     28          1           0       -6.110444    1.486697   -1.596324
     29          7           0       -0.376702    0.460514   -0.310354
     30          1           0       -0.812490    0.328444   -1.216432
     31          6           0        1.085282    0.416903   -0.307700
     32          1           0        1.440673    1.195783    0.373090
     33          6           0        1.541671    0.719501   -1.736022
     34          6           0        1.612904   -0.960066    0.204572
     35          1           0        1.031859   -1.143237    1.118001
     36          8           0        0.749201    0.416598   -2.685637
     37          6           0        1.328572   -2.093849   -0.788823
     38          1           0        1.938416   -1.987128   -1.693687
     39          1           0        1.576218   -3.060391   -0.338362
     40          1           0        0.275047   -2.119073   -1.091043
     41          6           0        3.095855   -0.901863    0.595175
     42          1           0        3.758388   -0.699861   -0.252258
     43          1           0        3.398055   -1.858228    1.035590
     44          1           0        3.278364   -0.120775    1.342226
     45          7           0        2.739859    1.233881   -1.868813
     46          1           0        3.431982    1.284002   -1.075918
     47          6           0        3.577208    1.351186   -3.061430
     48          1           0        3.390664    0.512276   -3.740790
     49          6           0        5.069483    1.160752   -2.522230
     50          6           0        3.432463    2.696658   -3.773777
     51          1           0        3.449058    3.483375   -3.010187
     52          1           0        4.334691    2.825214   -4.382077
     53          8           0        5.922690    1.107206   -3.411758
     54          6           0        2.178332    2.848986   -4.650632
     55          1           0        2.047888    3.906362   -4.906288
     56          1           0        1.288315    2.567218   -4.072253
     57          6           0        2.255268    2.027970   -5.966895
     58          1           0        2.190211    2.695125   -6.833543
     59          1           0        3.233726    1.534496   -6.053319
     60          6           0        1.159343    0.983980   -6.156272
     61          1           0        0.164421    1.405903   -5.988300
     62          1           0        1.189371    0.544503   -7.157491
     63          7           0        1.306060   -0.150066   -5.169171
     64          1           0        0.628186   -0.895584   -5.350317
     65          1           0        2.241486   -0.562833   -5.235402
     66          1           0        1.159137    0.169383   -4.129716
     67          8           0        5.138056    1.102314   -1.260189
 ---------------------------------------------------------------------

 SCF Done:  E(RB3LYP) =  -1396.67764971     A.U. after    3 cycles

 Alpha  occ. eigenvalues --  -19.29063 -19.22922 -19.22507 -19.11041 -19.09641
 Alpha  occ. eigenvalues --  -14.62551 -14.54295 -14.51018 -14.46514 -14.42943
 Alpha  occ. eigenvalues --  -10.45837 -10.42880 -10.39954 -10.37995 -10.35827
 Alpha  occ. eigenvalues --  -10.35338 -10.32044 -10.29775 -10.28992 -10.28740
 Alpha  occ. eigenvalues --  -10.28691 -10.27158 -10.27157 -10.26455 -10.26282
 Alpha  occ. eigenvalues --  -10.26250 -10.25124 -10.24159 -10.22883  -1.21462
 Alpha  occ. eigenvalues --   -1.16124  -1.14951  -1.12863  -1.09158  -1.07816
 Alpha  occ. eigenvalues --   -1.04245  -1.02990  -0.99807  -0.95469  -0.93309
 Alpha  occ. eigenvalues --   -0.90590  -0.89252  -0.88544  -0.85791  -0.84019
 Alpha  occ. eigenvalues --   -0.80233  -0.77730  -0.77269  -0.77077  -0.76438
 Alpha  occ. eigenvalues --   -0.76174  -0.75227  -0.73067  -0.72206  -0.69807
 Alpha  occ. eigenvalues --   -0.69760  -0.68393  -0.67510  -0.66011  -0.65930
 Alpha  occ. eigenvalues --   -0.64924  -0.64459  -0.63934  -0.62845  -0.62424
 Alpha  occ. eigenvalues --   -0.60263  -0.59877  -0.58212  -0.57589  -0.57073
 Alpha  occ. eigenvalues --   -0.56023  -0.55134  -0.54524  -0.54290  -0.53558
 Alpha  occ. eigenvalues --   -0.53257  -0.53102  -0.52230  -0.52101  -0.50958
 Alpha  occ. eigenvalues --   -0.50514  -0.49850  -0.48867  -0.48825  -0.48463
 Alpha  occ. eigenvalues --   -0.48171  -0.47489  -0.46394  -0.46163  -0.45695
 Alpha  occ. eigenvalues --   -0.45326  -0.44502  -0.43988  -0.43969  -0.43284
 Alpha  occ. eigenvalues --   -0.42550  -0.42306  -0.42008  -0.41851  -0.41207
 Alpha  occ. eigenvalues --   -0.40647  -0.40577  -0.40445  -0.40255  -0.39933
 Alpha  occ. eigenvalues --   -0.38085  -0.37366  -0.36685  -0.35372  -0.34008
 Alpha  occ. eigenvalues --   -0.25984  -0.25862  -0.23866
 Alpha virt. eigenvalues --   -0.14080  -0.13700  -0.08713  -0.08228  -0.07260
 Alpha virt. eigenvalues --   -0.06739  -0.06546  -0.03207  -0.02775  -0.02037
 Alpha virt. eigenvalues --   -0.01528   0.00359   0.00469   0.00855   0.02006

 Mulliken charges:
               1
     1  N   -0.750671
     2  H    0.424369
     3  H    0.424101
     4  H    0.439241
     5  C   -0.279285
     6  H    0.251332
     7  H    0.251265
     8  C    0.636839
     9  O   -0.529610
    10  N   -0.585722
    11  H    0.376443
    12  C   -0.088227
    13  H    0.189611
    14  C    0.640630
    15  C   -0.256031
    16  H    0.158168
    17  H    0.152508
    18  O   -0.544838
    19  C   -0.071403
    20  H    0.117108
    21  C   -0.446407
    22  H    0.150682
    23  H    0.158317
    24  H    0.150593
    25  C   -0.458919
    26  H    0.139211
    27  H    0.159409
    28  H    0.159652
    29  N   -0.618100
    30  H    0.353592
    31  C   -0.041410
    32  H    0.192937
    33  C    0.633850
    34  C   -0.079643
    35  H    0.149453
    36  O   -0.664087
    37  C   -0.449703
    38  H    0.142583
    39  H    0.162244
    40  H    0.126719
    41  C   -0.476054
    42  H    0.196344
    43  H    0.153017
    44  H    0.158303
    45  N   -0.575194
    46  H    0.388320
    47  C   -0.094778
    48  H    0.085451
    49  C    0.602490
    50  C   -0.265280
    51  H    0.153533
    52  H    0.189573
    53  O   -0.560317
    54  C   -0.291065
    55  H    0.159184
    56  H    0.139858
    57  C   -0.287007
    58  H    0.182802
    59  H    0.180168
    60  C   -0.193057
    61  H    0.197509
    62  H    0.194428
    63  N   -0.774129
    64  H    0.389546
    65  H    0.399850
    66  H    0.467954
    67  O   -0.598246
 Sum of Mulliken charges =   1.00000

 Dipole moment (field-independent basis, Debye):
    X=            -30.2156    Y=             -1.5878    Z=              4.2676  Tot=             30.5568
 Quadrupole moment (field-independent basis, Debye-Ang):
   XX=           -133.1797   YY=           -161.8251   ZZ=            -30.5415
   XY=            -13.4379   XZ=            -77.7360   YZ=             -3.9660

 Normal termination of Gaussian 16 at Thu Jun  2 03:21:19 2022.
