 Gaussian 16, Revision C.01,
 Gaussian 16:  ES64L-G16RevC.01  3-Jul-2019

 ----------------------------------------------------------------------
 # B3LYP/6-31G* empiricaldispersion=gd3 guess=read geom=check nosymm in
 tegral(ultrafinegrid)
 ----------------------------------------------------------------------

 ------------------------------------------------------
 Candidate Structure: Conf:651 Charge calc in gas phase
 ------------------------------------------------------
 Structure from the checkpoint file:  "conf-651.chk"
 Charge =  1 Multiplicity = 1

                          Input orientation:
 ---------------------------------------------------------------------
 Center     Atomic      Atomic             Coordinates (Angstroms)
 Number     Number       Type             X           Y           Z
 ---------------------------------------------------------------------
      1          7           0       -5.855357   -0.057551    3.921534
      2          1           0       -5.787531   -0.785081    4.638110
      3          1           0       -6.664468    0.532022    4.133426
      4          1           0       -5.964645   -0.507214    2.947590
      5          6           0       -4.579264    0.713663    3.720902
      6          1           0       -3.826996    0.383173    4.439249
      7          1           0       -4.765794    1.779902    3.858859
      8          6           0       -4.180426    0.379195    2.256025
      9          8           0       -4.950833   -0.370573    1.632656
     10          7           0       -3.069086    0.933716    1.811619
     11          1           0       -2.413084    1.413681    2.438126
     12          6           0       -2.443414    0.669191    0.511622
     13          1           0       -2.696113   -0.349309    0.203382
     14          6           0       -0.928122    0.792381    0.799628
     15          6           0       -2.869900    1.690763   -0.562712
     16          1           0       -2.601462    2.689492   -0.193498
     17          1           0       -2.253684    1.513861   -1.454149
     18          8           0       -0.546695    1.333072    1.845183
     19          6           0       -4.354976    1.660389   -0.969449
     20          1           0       -4.963589    1.781895   -0.061335
     21          6           0       -4.651158    2.846363   -1.899835
     22          1           0       -4.062928    2.772935   -2.823029
     23          1           0       -5.709242    2.866189   -2.182377
     24          1           0       -4.409761    3.804210   -1.424060
     25          6           0       -4.745243    0.333291   -1.635207
     26          1           0       -4.128678    0.149162   -2.524270
     27          1           0       -4.638304   -0.516464   -0.954277
     28          1           0       -5.791258    0.359763   -1.959496
     29          7           0       -0.121983    0.319504   -0.154358
     30          1           0       -0.476532   -0.090401   -1.016919
     31          6           0        1.331905    0.432164   -0.123801
     32          1           0        1.594715    1.435909    0.229540
     33          6           0        1.769679    0.244215   -1.589271
     34          6           0        1.960902   -0.614571    0.844963
     35          1           0        1.412881   -0.471075    1.784830
     36          8           0        1.005412   -0.280450   -2.404946
     37          6           0        1.739257   -2.051736    0.357369
     38          1           0        2.291341   -2.247574   -0.569049
     39          1           0        2.088318   -2.766060    1.110398
     40          1           0        0.680435   -2.254153    0.163304
     41          6           0        3.443973   -0.337793    1.129210
     42          1           0        4.079469   -0.541742    0.261105
     43          1           0        3.792638   -0.982404    1.942847
     44          1           0        3.609713    0.701472    1.439695
     45          7           0        3.012618    0.657347   -1.892464
     46          1           0        3.638146    1.016094   -1.179071
     47          6           0        3.647209    0.368626   -3.171553
     48          1           0        3.368720   -0.643450   -3.484627
     49          6           0        5.150890    0.454944   -2.952883
     50          6           0        3.215105    1.351816   -4.288966
     51          1           0        3.532386    0.927528   -5.247242
     52          1           0        2.120107    1.343526   -4.283433
     53          8           0        5.835212    0.186114   -4.049752
     54          6           0        3.726616    2.806351   -4.167713
     55          1           0        3.700421    3.120637   -3.115010
     56          1           0        2.990997    3.439427   -4.676274
     57          6           0        5.122941    3.117284   -4.788321
     58          1           0        5.365071    2.342262   -5.524862
     59          1           0        5.037002    4.050395   -5.355384
     60          6           0        6.318641    3.264932   -3.807798
     61          1           0        6.712498    4.289227   -3.851155
     62          1           0        6.000284    3.086842   -2.778669
     63          7           0        7.397028    2.276718   -4.085620
     64          1           0        8.124421    2.347305   -3.375040
     65          1           0        6.664602    0.808308   -4.042548
     66          1           0        7.839388    2.480508   -4.981847
     67          8           0        5.631517    0.852678   -1.899032
 ---------------------------------------------------------------------

 SCF Done:  E(RB3LYP) =  -1396.72333813     A.U. after    1 cycles

 Alpha  occ. eigenvalues --  -19.28369 -19.22250 -19.22030 -19.19587 -19.19507
 Alpha  occ. eigenvalues --  -14.61852 -14.50315 -14.45300 -14.43194 -14.41240
 Alpha  occ. eigenvalues --  -10.45126 -10.42280 -10.38999 -10.37332 -10.36492
 Alpha  occ. eigenvalues --  -10.34804 -10.31437 -10.29799 -10.28692 -10.27939
 Alpha  occ. eigenvalues --  -10.27905 -10.26994 -10.25278 -10.25187 -10.24883
 Alpha  occ. eigenvalues --  -10.24850 -10.24767 -10.24339 -10.24283  -1.20805
 Alpha  occ. eigenvalues --   -1.15403  -1.14846  -1.13960  -1.11366  -1.07070
 Alpha  occ. eigenvalues --   -1.06268  -1.02042  -0.99862  -0.96514  -0.92483
 Alpha  occ. eigenvalues --   -0.89746  -0.88347  -0.86024  -0.84987  -0.81897
 Alpha  occ. eigenvalues --   -0.78956  -0.76612  -0.76185  -0.75809  -0.75717
 Alpha  occ. eigenvalues --   -0.75466  -0.75331  -0.71807  -0.69732  -0.68982
 Alpha  occ. eigenvalues --   -0.68212  -0.67033  -0.65796  -0.65065  -0.64124
 Alpha  occ. eigenvalues --   -0.63921  -0.63006  -0.62049  -0.61267  -0.59265
 Alpha  occ. eigenvalues --   -0.57381  -0.57125  -0.56795  -0.56324  -0.56039
 Alpha  occ. eigenvalues --   -0.54432  -0.54143  -0.53736  -0.53541  -0.53045
 Alpha  occ. eigenvalues --   -0.52553  -0.52136  -0.51746  -0.51027  -0.50480
 Alpha  occ. eigenvalues --   -0.49717  -0.49092  -0.48429  -0.47868  -0.47756
 Alpha  occ. eigenvalues --   -0.47508  -0.46562  -0.46424  -0.46347  -0.45483
 Alpha  occ. eigenvalues --   -0.45114  -0.44705  -0.44093  -0.43291  -0.43173
 Alpha  occ. eigenvalues --   -0.42460  -0.42187  -0.41586  -0.41378  -0.41229
 Alpha  occ. eigenvalues --   -0.40752  -0.40668  -0.39639  -0.39555  -0.39434
 Alpha  occ. eigenvalues --   -0.38754  -0.36256  -0.36090  -0.34932  -0.33701
 Alpha  occ. eigenvalues --   -0.33501  -0.32893  -0.32375
 Alpha virt. eigenvalues --   -0.13399  -0.13107  -0.07859  -0.07486  -0.05996
 Alpha virt. eigenvalues --   -0.05481  -0.04912  -0.02462  -0.02025   0.00014
 Alpha virt. eigenvalues --    0.00690   0.01150   0.01663   0.01946   0.03196

 Mulliken charges:
               1
     1  N   -0.751508
     2  H    0.422936
     3  H    0.422655
     4  H    0.440284
     5  C   -0.278635
     6  H    0.248915
     7  H    0.249227
     8  C    0.638412
     9  O   -0.529141
    10  N   -0.585188
    11  H    0.373311
    12  C   -0.088559
    13  H    0.194445
    14  C    0.636939
    15  C   -0.258243
    16  H    0.152234
    17  H    0.163967
    18  O   -0.553941
    19  C   -0.071066
    20  H    0.112135
    21  C   -0.446797
    22  H    0.155972
    23  H    0.156408
    24  H    0.145687
    25  C   -0.460531
    26  H    0.151349
    27  H    0.158546
    28  H    0.156621
    29  N   -0.619017
    30  H    0.365742
    31  C   -0.051132
    32  H    0.174865
    33  C    0.626070
    34  C   -0.076770
    35  H    0.156785
    36  O   -0.552582
    37  C   -0.455912
    38  H    0.163245
    39  H    0.156456
    40  H    0.141013
    41  C   -0.476093
    42  H    0.168428
    43  H    0.162175
    44  H    0.149380
    45  N   -0.616890
    46  H    0.361977
    47  C   -0.042785
    48  H    0.191908
    49  C    0.607985
    50  C   -0.265066
    51  H    0.165360
    52  H    0.166878
    53  O   -0.603505
    54  C   -0.287192
    55  H    0.139888
    56  H    0.149404
    57  C   -0.283753
    58  H    0.161415
    59  H    0.150369
    60  C   -0.161034
    61  H    0.149690
    62  H    0.182487
    63  N   -0.775431
    64  H    0.339278
    65  H    0.459098
    66  H    0.330791
    67  O   -0.509959
 Sum of Mulliken charges =   1.00000

 Dipole moment (field-independent basis, Debye):
    X=            -14.2625    Y=              5.4003    Z=             10.5619  Tot=             18.5509
 Quadrupole moment (field-independent basis, Debye-Ang):
   XX=             -6.3228   YY=           -158.6265   ZZ=            -91.3926
   XY=             16.8080   XZ=           -114.8346   YZ=            -19.7149

 Normal termination of Gaussian 16 at Thu Jun  2 03:21:19 2022.
