 Gaussian 16, Revision C.01,
 Gaussian 16:  ES64L-G16RevC.01  3-Jul-2019

 ----------------------------------------------------------------------
 # B3LYP/6-31G* empiricaldispersion=gd3 guess=read geom=check nosymm in
 tegral(ultrafinegrid)
 ----------------------------------------------------------------------

 ------------------------------------------------------
 Candidate Structure: Conf:102 Charge calc in gas phase
 ------------------------------------------------------
 Structure from the checkpoint file:  "conf-102.chk"
 Charge =  1 Multiplicity = 1

                          Input orientation:
 ---------------------------------------------------------------------
 Center     Atomic      Atomic             Coordinates (Angstroms)
 Number     Number       Type             X           Y           Z
 ---------------------------------------------------------------------
      1          7           0       -4.734798    1.741796    5.242859
      2          1           0       -4.572036    1.576864    6.239246
      3          1           0       -5.535960    2.371577    5.142633
      4          1           0       -4.950138    0.829492    4.715480
      5          6           0       -3.521168    2.209498    4.487706
      6          1           0       -2.633302    2.033403    5.099025
      7          1           0       -3.594723    3.272331    4.254936
      8          6           0       -3.512731    1.292227    3.238561
      9          8           0       -4.294285    0.342104    3.267194
     10          7           0       -2.669029    1.612991    2.283681
     11          1           0       -1.947982    2.337136    2.412939
     12          6           0       -2.326800    0.782178    1.124272
     13          1           0       -2.470471   -0.268757    1.390165
     14          6           0       -0.824605    1.089184    0.896802
     15          6           0       -3.146352    1.152128   -0.126979
     16          1           0       -2.963776    2.213970   -0.338992
     17          1           0       -2.729915    0.591303   -0.974510
     18          8           0       -0.329448    2.084720    1.440317
     19          6           0       -4.660399    0.884997   -0.041959
     20          1           0       -5.052693    1.409068    0.841896
     21          6           0       -5.351696    1.467891   -1.283604
     22          1           0       -4.987842    0.978131   -2.195823
     23          1           0       -6.435781    1.316790   -1.236055
     24          1           0       -5.163431    2.543423   -1.383642
     25          6           0       -4.977468   -0.609466    0.108681
     26          1           0       -4.559256   -1.181206   -0.729852
     27          1           0       -4.581861   -1.020491    1.042069
     28          1           0       -6.060680   -0.774380    0.114030
     29          7           0       -0.183396    0.239030    0.098048
     30          1           0       -0.671457   -0.503413   -0.402332
     31          6           0        1.187406    0.409992   -0.381204
     32          1           0        1.434243    1.475369   -0.338296
     33          6           0        1.152763   -0.112486   -1.834489
     34          6           0        2.215534   -0.393474    0.474869
     35          1           0        2.055585   -1.456746    0.244210
     36          8           0        0.311990   -0.978566   -2.137663
     37          6           0        3.662868   -0.015510    0.119965
     38          1           0        3.846218    1.044298    0.340301
     39          1           0        4.357157   -0.601632    0.732040
     40          1           0        3.924880   -0.177186   -0.928333
     41          6           0        1.973435   -0.184093    1.977686
     42          1           0        2.044485    0.877280    2.239858
     43          1           0        2.725711   -0.732045    2.555462
     44          1           0        0.987009   -0.544401    2.288423
     45          7           0        2.064376    0.396308   -2.662816
     46          1           0        2.845603    0.979166   -2.317571
     47          6           0        2.538065   -0.252595   -3.878719
     48          1           0        2.563788   -1.339000   -3.717635
     49          6           0        4.044879    0.237798   -4.083085
     50          6           0        1.735972    0.037416   -5.143682
     51          1           0        1.512158    1.112133   -5.198930
     52          1           0        2.461572   -0.183179   -5.935747
     53          8           0        4.552497   -0.096486   -5.168180
     54          6           0        0.451598   -0.779266   -5.320822
     55          1           0       -0.303722   -0.482707   -4.588020
     56          1           0        0.653210   -1.840057   -5.119293
     57          6           0       -0.133497   -0.641712   -6.743286
     58          1           0       -1.082756   -1.191383   -6.824874
     59          1           0       -0.341593    0.417672   -6.954042
     60          6           0        0.853262   -1.179003   -7.772223
     61          1           0        1.797765   -0.634293   -7.775890
     62          1           0        1.059645   -2.243258   -7.633632
     63          7           0        0.288920   -1.037814   -9.192673
     64          1           0        0.939312   -1.391307   -9.904720
     65          1           0       -0.597368   -1.546974   -9.289557
     66          1           0        0.098071   -0.051067   -9.403961
     67          8           0        4.507479    0.895253   -3.113825
 ---------------------------------------------------------------------

 SCF Done:  E(RB3LYP) =  -1396.63545131     A.U. after    1 cycles

 Alpha  occ. eigenvalues --  -19.27268 -19.20129 -19.15796 -19.07701 -19.06918
 Alpha  occ. eigenvalues --  -14.62077 -14.61009 -14.48886 -14.43133 -14.37781
 Alpha  occ. eigenvalues --  -10.43845 -10.41177 -10.37992 -10.37069 -10.33423
 Alpha  occ. eigenvalues --  -10.32443 -10.30647 -10.28227 -10.27707 -10.27348
 Alpha  occ. eigenvalues --  -10.25759 -10.25479 -10.25031 -10.24762 -10.24059
 Alpha  occ. eigenvalues --  -10.23250 -10.22248 -10.21922 -10.20124  -1.20368
 Alpha  occ. eigenvalues --   -1.15903  -1.14609  -1.12155  -1.07244  -1.05838
 Alpha  occ. eigenvalues --   -1.00882  -0.99770  -0.94914  -0.92197  -0.91562
 Alpha  occ. eigenvalues --   -0.91409  -0.88886  -0.85602  -0.83559  -0.82935
 Alpha  occ. eigenvalues --   -0.78383  -0.76600  -0.75935  -0.75534  -0.75245
 Alpha  occ. eigenvalues --   -0.74590  -0.74405  -0.74201  -0.72004  -0.70565
 Alpha  occ. eigenvalues --   -0.69584  -0.67244  -0.65724  -0.64772  -0.64307
 Alpha  occ. eigenvalues --   -0.63518  -0.63325  -0.61973  -0.60913  -0.60371
 Alpha  occ. eigenvalues --   -0.59386  -0.58125  -0.57815  -0.56230  -0.54728
 Alpha  occ. eigenvalues --   -0.54218  -0.53337  -0.52933  -0.52493  -0.52041
 Alpha  occ. eigenvalues --   -0.50817  -0.50775  -0.49880  -0.49600  -0.49168
 Alpha  occ. eigenvalues --   -0.48308  -0.47806  -0.46980  -0.46751  -0.46057
 Alpha  occ. eigenvalues --   -0.45561  -0.45237  -0.44326  -0.43920  -0.43472
 Alpha  occ. eigenvalues --   -0.43003  -0.42366  -0.42298  -0.41582  -0.41364
 Alpha  occ. eigenvalues --   -0.40849  -0.40668  -0.40003  -0.39385  -0.38845
 Alpha  occ. eigenvalues --   -0.38351  -0.37719  -0.37603  -0.37122  -0.37081
 Alpha  occ. eigenvalues --   -0.35151  -0.34406  -0.32532  -0.29925  -0.28822
 Alpha  occ. eigenvalues --   -0.22960  -0.22434  -0.21327
 Alpha virt. eigenvalues --   -0.12766  -0.12712  -0.11581  -0.06807  -0.06068
 Alpha virt. eigenvalues --   -0.05984  -0.05561  -0.04841  -0.02828  -0.01600
 Alpha virt. eigenvalues --   -0.01393  -0.00947   0.01010   0.01103   0.02284

 Mulliken charges:
               1
     1  N   -0.749422
     2  H    0.421103
     3  H    0.420416
     4  H    0.438889
     5  C   -0.284153
     6  H    0.253969
     7  H    0.242846
     8  C    0.644082
     9  O   -0.531950
    10  N   -0.587400
    11  H    0.374648
    12  C   -0.091697
    13  H    0.190710
    14  C    0.637641
    15  C   -0.258799
    16  H    0.152213
    17  H    0.163702
    18  O   -0.555893
    19  C   -0.068901
    20  H    0.112343
    21  C   -0.445252
    22  H    0.147948
    23  H    0.152211
    24  H    0.145696
    25  C   -0.458951
    26  H    0.146654
    27  H    0.161185
    28  H    0.151623
    29  N   -0.607105
    30  H    0.355162
    31  C   -0.054690
    32  H    0.176201
    33  C    0.602489
    34  C   -0.074295
    35  H    0.136641
    36  O   -0.584942
    37  C   -0.474636
    38  H    0.146290
    39  H    0.145900
    40  H    0.199745
    41  C   -0.444870
    42  H    0.158905
    43  H    0.150238
    44  H    0.120025
    45  N   -0.601672
    46  H    0.365489
    47  C   -0.066306
    48  H    0.141870
    49  C    0.586362
    50  C   -0.290167
    51  H    0.130121
    52  H    0.165303
    53  O   -0.591426
    54  C   -0.258420
    55  H    0.178585
    56  H    0.149494
    57  C   -0.291583
    58  H    0.146598
    59  H    0.155024
    60  C   -0.208571
    61  H    0.250283
    62  H    0.224026
    63  N   -0.732163
    64  H    0.427810
    65  H    0.418059
    66  H    0.422691
    67  O   -0.597921
 Sum of Mulliken charges =   1.00000

 Dipole moment (field-independent basis, Debye):
    X=            -27.5457    Y=              2.5387    Z=             -6.0902  Tot=             28.3250
 Quadrupole moment (field-independent basis, Debye-Ang):
   XX=           -160.6874   YY=           -155.2961   ZZ=            207.6686
   XY=            -45.4671   XZ=            -35.7093   YZ=             77.6252

 Normal termination of Gaussian 16 at Thu Jun  2 03:14:50 2022.
