 Gaussian 16, Revision C.01,
 Gaussian 16:  ES64L-G16RevC.01  3-Jul-2019

 ----------------------------------------------------------------------
 # B3LYP/6-31G* empiricaldispersion=gd3 guess=read geom=check nosymm in
 tegral(ultrafinegrid)
 ----------------------------------------------------------------------

 ------------------------------------------------------
 Candidate Structure: Conf:448 Charge calc in gas phase
 ------------------------------------------------------
 Structure from the checkpoint file:  "conf-448.chk"
 Charge =  1 Multiplicity = 1

                          Input orientation:
 ---------------------------------------------------------------------
 Center     Atomic      Atomic             Coordinates (Angstroms)
 Number     Number       Type             X           Y           Z
 ---------------------------------------------------------------------
      1          7           0       -0.218389    3.798575    2.280603
      2          1           0       -0.281374    2.768549    2.365547
      3          1           0        0.502496    3.928194    1.435739
      4          1           0        0.208292    4.181312    3.126190
      5          6           0       -1.578297    4.396543    2.010766
      6          1           0       -1.465280    5.145297    1.221961
      7          1           0       -1.969492    4.859668    2.915414
      8          6           0       -2.497545    3.235289    1.613630
      9          8           0       -3.379615    2.842164    2.362340
     10          7           0       -2.136404    2.643102    0.443021
     11          1           0       -1.339970    3.014130   -0.092623
     12          6           0       -2.347779    1.218003    0.252440
     13          1           0       -3.056064    0.896169    1.022509
     14          6           0       -0.995060    0.535105    0.579415
     15          6           0       -2.916392    0.909430   -1.142303
     16          1           0       -2.143071    1.127114   -1.892957
     17          1           0       -3.151887   -0.164155   -1.203830
     18          8           0       -0.239612    0.981443    1.451661
     19          6           0       -4.195398    1.696698   -1.487917
     20          1           0       -3.933598    2.762738   -1.479920
     21          6           0       -4.661864    1.326276   -2.902639
     22          1           0       -4.950596    0.268382   -2.957403
     23          1           0       -5.533607    1.921549   -3.194451
     24          1           0       -3.873456    1.499977   -3.646087
     25          6           0       -5.312899    1.471058   -0.459152
     26          1           0       -5.554341    0.403051   -0.371128
     27          1           0       -5.041050    1.845227    0.533258
     28          1           0       -6.226750    1.990017   -0.768221
     29          7           0       -0.679887   -0.578224   -0.136486
     30          1           0       -1.244576   -0.777431   -0.949923
     31          6           0        0.687720   -1.102501   -0.174042
     32          1           0        1.094384   -0.978226    0.832218
     33          6           0        1.424057   -0.159276   -1.146651
     34          6           0        0.750080   -2.604049   -0.526514
     35          1           0        0.312098   -3.114706    0.341405
     36          8           0        1.246567   -0.299980   -2.374588
     37          6           0       -0.059057   -3.023491   -1.764025
     38          1           0        0.314518   -2.536060   -2.667483
     39          1           0        0.016188   -4.107479   -1.898913
     40          1           0       -1.126377   -2.794516   -1.659175
     41          6           0        2.218029   -3.038991   -0.651100
     42          1           0        2.686854   -2.583270   -1.531557
     43          1           0        2.287831   -4.125501   -0.761143
     44          1           0        2.802163   -2.754904    0.232132
     45          7           0        2.155371    0.800148   -0.555779
     46          1           0        2.084949    0.785193    0.456808
     47          6           0        2.483760    2.164837   -1.039744
     48          1           0        3.393603    2.458979   -0.510090
     49          6           0        1.306852    3.047963   -0.528312
     50          6           0        2.686894    2.298205   -2.542886
     51          1           0        1.716821    2.129311   -3.014483
     52          1           0        2.928302    3.351595   -2.734090
     53          8           0        0.202622    2.898497   -1.095663
     54          6           0        3.811438    1.417240   -3.111558
     55          1           0        3.723280    0.394312   -2.726630
     56          1           0        4.769168    1.799247   -2.741625
     57          6           0        3.849481    1.382965   -4.652879
     58          1           0        3.571629    2.362803   -5.065783
     59          1           0        4.869799    1.188377   -5.002706
     60          6           0        2.986677    0.292182   -5.284941
     61          1           0        3.027977    0.323424   -6.376757
     62          1           0        3.297004   -0.700744   -4.948364
     63          7           0        1.532494    0.415783   -4.882584
     64          1           0        0.951543   -0.279655   -5.360456
     65          1           0        1.423591    0.251547   -3.829273
     66          1           0        1.159651    1.342257   -5.110099
     67          8           0        1.585535    3.765214    0.479851
 ---------------------------------------------------------------------

 SCF Done:  E(RB3LYP) =  -1396.75185598     A.U. after    3 cycles

 Alpha  occ. eigenvalues --  -19.25340 -19.23259 -19.20907 -19.20537 -19.19922
 Alpha  occ. eigenvalues --  -14.58141 -14.51447 -14.48407 -14.47322 -14.43880
 Alpha  occ. eigenvalues --  -10.41635 -10.39913 -10.38594 -10.38247 -10.37928
 Alpha  occ. eigenvalues --  -10.34338 -10.34305 -10.33271 -10.32539 -10.32497
 Alpha  occ. eigenvalues --  -10.30451 -10.30049 -10.29827 -10.27859 -10.27212
 Alpha  occ. eigenvalues --  -10.27193 -10.26600 -10.24766 -10.23746  -1.16526
 Alpha  occ. eigenvalues --   -1.14759  -1.13592  -1.12962  -1.12736  -1.06788
 Alpha  occ. eigenvalues --   -1.04815  -1.04620  -1.03608  -1.01298  -0.93335
 Alpha  occ. eigenvalues --   -0.91167  -0.89155  -0.88896  -0.84910  -0.83577
 Alpha  occ. eigenvalues --   -0.81780  -0.79944  -0.78217  -0.76625  -0.75247
 Alpha  occ. eigenvalues --   -0.74202  -0.73578  -0.72305  -0.70506  -0.69336
 Alpha  occ. eigenvalues --   -0.68842  -0.68595  -0.67547  -0.66662  -0.65796
 Alpha  occ. eigenvalues --   -0.64726  -0.63658  -0.63032  -0.62296  -0.60432
 Alpha  occ. eigenvalues --   -0.59822  -0.59611  -0.58546  -0.57866  -0.56724
 Alpha  occ. eigenvalues --   -0.56095  -0.55823  -0.55522  -0.55229  -0.54558
 Alpha  occ. eigenvalues --   -0.54049  -0.53698  -0.52797  -0.52066  -0.51925
 Alpha  occ. eigenvalues --   -0.51092  -0.50868  -0.50551  -0.50081  -0.49576
 Alpha  occ. eigenvalues --   -0.49435  -0.49001  -0.48688  -0.48029  -0.47717
 Alpha  occ. eigenvalues --   -0.47595  -0.46688  -0.46054  -0.45795  -0.45511
 Alpha  occ. eigenvalues --   -0.45150  -0.44995  -0.44195  -0.44003  -0.43625
 Alpha  occ. eigenvalues --   -0.43558  -0.41100  -0.40168  -0.40050  -0.40008
 Alpha  occ. eigenvalues --   -0.39588  -0.37085  -0.35934  -0.35910  -0.35068
 Alpha  occ. eigenvalues --   -0.34608  -0.34017  -0.33415
 Alpha virt. eigenvalues --   -0.11663  -0.10195  -0.09435  -0.07845  -0.04929
 Alpha virt. eigenvalues --   -0.04482  -0.03425  -0.02882  -0.02559  -0.01757
 Alpha virt. eigenvalues --   -0.01093  -0.00029   0.01314   0.01624   0.01804

 Mulliken charges:
               1
     1  N   -0.803872
     2  H    0.424369
     3  H    0.447747
     4  H    0.387424
     5  C   -0.242177
     6  H    0.213757
     7  H    0.219066
     8  C    0.561581
     9  O   -0.477660
    10  N   -0.592861
    11  H    0.383652
    12  C   -0.082152
    13  H    0.222345
    14  C    0.651505
    15  C   -0.305439
    16  H    0.143430
    17  H    0.134551
    18  O   -0.568306
    19  C   -0.066033
    20  H    0.145144
    21  C   -0.443926
    22  H    0.142517
    23  H    0.161101
    24  H    0.125962
    25  C   -0.473066
    26  H    0.138656
    27  H    0.181361
    28  H    0.156710
    29  N   -0.611175
    30  H    0.357372
    31  C   -0.060706
    32  H    0.180470
    33  C    0.650732
    34  C   -0.085783
    35  H    0.162393
    36  O   -0.610279
    37  C   -0.465630
    38  H    0.147537
    39  H    0.169210
    40  H    0.144464
    41  C   -0.463230
    42  H    0.144755
    43  H    0.171838
    44  H    0.155599
    45  N   -0.579448
    46  H    0.366477
    47  C   -0.026562
    48  H    0.175465
    49  C    0.607287
    50  C   -0.294637
    51  H    0.133901
    52  H    0.174767
    53  O   -0.576508
    54  C   -0.288640
    55  H    0.161417
    56  H    0.174838
    57  C   -0.288341
    58  H    0.166859
    59  H    0.193696
    60  C   -0.196292
    61  H    0.207853
    62  H    0.213045
    63  N   -0.771729
    64  H    0.405055
    65  H    0.474135
    66  H    0.401671
    67  O   -0.607265
 Sum of Mulliken charges =   1.00000

 Dipole moment (field-independent basis, Debye):
    X=              6.9276    Y=              3.7770    Z=            -13.3146  Tot=             15.4770
 Quadrupole moment (field-independent basis, Debye-Ang):
   XX=           -152.0795   YY=           -142.9915   ZZ=            -80.2821
   XY=              2.2472   XZ=            -24.1909   YZ=              8.7634

 Normal termination of Gaussian 16 at Thu Jun  2 03:15:23 2022.
