 Gaussian 16, Revision C.01,
 Gaussian 16:  ES64L-G16RevC.01  3-Jul-2019

 ----------------------------------------------------------------------
 # B3LYP/6-31G* empiricaldispersion=gd3 guess=read geom=check nosymm in
 tegral(ultrafinegrid)
 ----------------------------------------------------------------------

 ------------------------------------------------------
 Candidate Structure: Conf:156 Charge calc in gas phase
 ------------------------------------------------------
 Structure from the checkpoint file:  "conf-156.chk"
 Charge =  1 Multiplicity = 1

                          Input orientation:
 ---------------------------------------------------------------------
 Center     Atomic      Atomic             Coordinates (Angstroms)
 Number     Number       Type             X           Y           Z
 ---------------------------------------------------------------------
      1          7           0       -6.097686    2.153787    2.711078
      2          1           0       -6.600657    1.522106    3.340104
      3          1           0       -6.515487    3.085122    2.785998
      4          1           0       -6.164846    1.796753    1.697923
      5          6           0       -4.606195    2.141862    2.909686
      6          1           0       -4.347191    1.484445    3.741345
      7          1           0       -4.253473    3.151803    3.125984
      8          6           0       -4.063997    1.613370    1.552700
      9          8           0       -4.907984    1.353637    0.678068
     10          7           0       -2.755803    1.480923    1.451050
     11          1           0       -2.105153    1.720886    2.205071
     12          6           0       -2.048946    1.014154    0.253714
     13          1           0       -2.575638    0.141714   -0.143327
     14          6           0       -0.644431    0.647587    0.775511
     15          6           0       -1.982348    2.146291   -0.802617
     16          1           0       -3.016757    2.430706   -1.035231
     17          1           0       -1.506125    3.009415   -0.320704
     18          8           0       -0.226363    1.188240    1.802319
     19          6           0       -1.239049    1.824691   -2.114833
     20          1           0       -0.207875    1.542478   -1.873377
     21          6           0       -1.884111    0.667138   -2.890735
     22          1           0       -2.921175    0.904745   -3.157959
     23          1           0       -1.333846    0.477573   -3.819227
     24          1           0       -1.896698   -0.275215   -2.329995
     25          6           0       -1.178153    3.086433   -2.988710
     26          1           0       -2.183635    3.416281   -3.278709
     27          1           0       -0.688365    3.913615   -2.462931
     28          1           0       -0.611235    2.894261   -3.906385
     29          7           0        0.045680   -0.229016    0.028897
     30          1           0       -0.350689   -0.574496   -0.837756
     31          6           0        1.495302   -0.412569    0.134089
     32          1           0        1.873403    0.369754    0.797510
     33          6           0        2.036384   -0.222153   -1.285743
     34          6           0        1.890492   -1.799458    0.708626
     35          1           0        1.598364   -2.552633   -0.038019
     36          8           0        1.331059   -0.694991   -2.236695
     37          6           0        3.408378   -1.879570    0.940313
     38          1           0        3.719510   -1.157497    1.705153
     39          1           0        3.678575   -2.877979    1.299113
     40          1           0        4.003047   -1.669283    0.047145
     41          6           0        1.128804   -2.075514    2.012214
     42          1           0        1.343618   -1.300827    2.757557
     43          1           0        1.433221   -3.041237    2.428911
     44          1           0        0.045844   -2.101265    1.853324
     45          7           0        3.175587    0.409205   -1.412845
     46          1           0        3.843087    0.560033   -0.604603
     47          6           0        4.038171    0.534994   -2.585418
     48          1           0        3.960810   -0.356304   -3.217678
     49          6           0        5.519519    0.531709   -1.983507
     50          6           0        3.780412    1.816759   -3.377789
     51          1           0        3.728870    2.645159   -2.660945
     52          1           0        4.670893    1.987194   -3.993163
     53          8           0        6.412475    0.550553   -2.833920
     54          6           0        2.516831    1.817188   -4.256439
     55          1           0        2.289859    2.848748   -4.548763
     56          1           0        1.656079    1.477178   -3.664940
     57          6           0        2.660163    0.962154   -5.545248
     58          1           0        2.500662    1.586572   -6.431323
     59          1           0        3.687637    0.583063   -5.639068
     60          6           0        1.690554   -0.208762   -5.677821
     61          1           0        0.656818    0.099109   -5.493863
     62          1           0        1.747727   -0.665689   -6.669993
     63          7           0        1.990228   -1.289394   -4.669061
     64          1           0        1.410948   -2.119053   -4.824737
     65          1           0        2.969757   -1.581885   -4.735247
     66          1           0        1.803115   -0.959114   -3.633307
     67          8           0        5.535924    0.515422   -0.717976
 ---------------------------------------------------------------------

 SCF Done:  E(RB3LYP) =  -1396.67864962     A.U. after    1 cycles

 Alpha  occ. eigenvalues --  -19.29042 -19.22872 -19.22657 -19.11246 -19.09788
 Alpha  occ. eigenvalues --  -14.62553 -14.54218 -14.51224 -14.46528 -14.43107
 Alpha  occ. eigenvalues --  -10.45844 -10.42947 -10.39941 -10.38014 -10.35919
 Alpha  occ. eigenvalues --  -10.35582 -10.32022 -10.29889 -10.29214 -10.29092
 Alpha  occ. eigenvalues --  -10.28901 -10.27776 -10.27320 -10.27306 -10.26765
 Alpha  occ. eigenvalues --  -10.26650 -10.24594 -10.24537 -10.23432  -1.21472
 Alpha  occ. eigenvalues --   -1.16129  -1.14924  -1.13023  -1.09156  -1.07897
 Alpha  occ. eigenvalues --   -1.04440  -1.03137  -0.99960  -0.95635  -0.93338
 Alpha  occ. eigenvalues --   -0.90915  -0.89523  -0.88668  -0.85914  -0.84298
 Alpha  occ. eigenvalues --   -0.80456  -0.78477  -0.77734  -0.77241  -0.76454
 Alpha  occ. eigenvalues --   -0.76185  -0.75021  -0.73226  -0.72362  -0.69982
 Alpha  occ. eigenvalues --   -0.69469  -0.68296  -0.67541  -0.66803  -0.66014
 Alpha  occ. eigenvalues --   -0.65320  -0.64738  -0.64088  -0.62533  -0.62197
 Alpha  occ. eigenvalues --   -0.60547  -0.60155  -0.58844  -0.57524  -0.57235
 Alpha  occ. eigenvalues --   -0.55943  -0.55244  -0.55120  -0.54487  -0.53910
 Alpha  occ. eigenvalues --   -0.53558  -0.53183  -0.52768  -0.52144  -0.51800
 Alpha  occ. eigenvalues --   -0.50873  -0.49464  -0.49035  -0.48700  -0.48214
 Alpha  occ. eigenvalues --   -0.47942  -0.47373  -0.46758  -0.46557  -0.45952
 Alpha  occ. eigenvalues --   -0.45732  -0.44713  -0.44654  -0.44226  -0.43963
 Alpha  occ. eigenvalues --   -0.43014  -0.42737  -0.42018  -0.41902  -0.41377
 Alpha  occ. eigenvalues --   -0.40826  -0.40632  -0.40568  -0.40232  -0.40103
 Alpha  occ. eigenvalues --   -0.38378  -0.37733  -0.36756  -0.35310  -0.34376
 Alpha  occ. eigenvalues --   -0.26205  -0.26015  -0.24004
 Alpha virt. eigenvalues --   -0.14091  -0.13737  -0.09106  -0.08241  -0.07392
 Alpha virt. eigenvalues --   -0.06811  -0.06631  -0.04017  -0.03158  -0.02328
 Alpha virt. eigenvalues --   -0.01862  -0.01212   0.00105   0.00649   0.01210

 Mulliken charges:
               1
     1  N   -0.750905
     2  H    0.424237
     3  H    0.424096
     4  H    0.439526
     5  C   -0.277052
     6  H    0.250940
     7  H    0.250377
     8  C    0.641330
     9  O   -0.533825
    10  N   -0.601736
    11  H    0.377768
    12  C   -0.068859
    13  H    0.186974
    14  C    0.623081
    15  C   -0.260086
    16  H    0.162230
    17  H    0.158307
    18  O   -0.537218
    19  C   -0.105078
    20  H    0.157937
    21  C   -0.452864
    22  H    0.158340
    23  H    0.145712
    24  H    0.133666
    25  C   -0.448915
    26  H    0.149725
    27  H    0.158790
    28  H    0.151290
    29  N   -0.612593
    30  H    0.362909
    31  C   -0.045317
    32  H    0.196059
    33  C    0.627505
    34  C   -0.085094
    35  H    0.128498
    36  O   -0.667245
    37  C   -0.468258
    38  H    0.165018
    39  H    0.157879
    40  H    0.179073
    41  C   -0.445936
    42  H    0.162429
    43  H    0.160495
    44  H    0.132080
    45  N   -0.566254
    46  H    0.388561
    47  C   -0.098792
    48  H    0.089111
    49  C    0.607607
    50  C   -0.264471
    51  H    0.152186
    52  H    0.189654
    53  O   -0.559489
    54  C   -0.301451
    55  H    0.157883
    56  H    0.146873
    57  C   -0.285574
    58  H    0.181683
    59  H    0.179468
    60  C   -0.198620
    61  H    0.197626
    62  H    0.195254
    63  N   -0.773524
    64  H    0.390188
    65  H    0.399457
    66  H    0.469658
    67  O   -0.602324
 Sum of Mulliken charges =   1.00000

 Dipole moment (field-independent basis, Debye):
    X=            -29.0438    Y=              4.2449    Z=              0.1512  Tot=             29.3528
 Quadrupole moment (field-independent basis, Debye-Ang):
   XX=           -134.5274   YY=           -139.7031   ZZ=            -72.4502
   XY=            -64.5768   XZ=            -68.6712   YZ=             37.0196

 Normal termination of Gaussian 16 at Thu Jun  2 03:14:55 2022.
