 Gaussian 16, Revision C.01,
 Gaussian 16:  ES64L-G16RevC.01  3-Jul-2019

 ----------------------------------------------------------------------
 # B3LYP/6-31G* empiricaldispersion=gd3 guess=read geom=check nosymm in
 tegral(ultrafinegrid)
 ----------------------------------------------------------------------

 ------------------------------------------------------
 Candidate Structure: Conf:797 Charge calc in gas phase
 ------------------------------------------------------
 Structure from the checkpoint file:  "conf-797.chk"
 Charge =  1 Multiplicity = 1

                          Input orientation:
 ---------------------------------------------------------------------
 Center     Atomic      Atomic             Coordinates (Angstroms)
 Number     Number       Type             X           Y           Z
 ---------------------------------------------------------------------
      1          7           0        0.177388   -2.719503   -1.021450
      2          1           0        1.029194   -3.260951   -0.832567
      3          1           0       -0.556994   -3.292893   -1.446915
      4          1           0        0.434287   -1.986273   -1.721992
      5          6           0       -0.342587   -2.025056    0.197530
      6          1           0        0.492307   -1.459468    0.616306
      7          1           0       -0.682967   -2.771422    0.920105
      8          6           0       -1.480590   -1.118155   -0.307060
      9          8           0       -1.979413   -1.370859   -1.401843
     10          7           0       -1.799416   -0.051460    0.455278
     11          1           0       -1.279888    0.108051    1.311068
     12          6           0       -2.452384    1.139326   -0.135247
     13          1           0       -2.987335    0.775225   -1.014594
     14          6           0       -1.286832    2.085641   -0.562612
     15          6           0       -3.410220    1.797442    0.855537
     16          1           0       -4.072769    1.016277    1.250558
     17          1           0       -2.822909    2.191283    1.694113
     18          8           0       -1.087370    3.148452    0.007010
     19          6           0       -4.262877    2.938188    0.262484
     20          1           0       -3.576664    3.687450   -0.149952
     21          6           0       -5.193005    2.448497   -0.857860
     22          1           0       -5.867086    1.662656   -0.492759
     23          1           0       -5.813629    3.271276   -1.228791
     24          1           0       -4.644389    2.047289   -1.718449
     25          6           0       -5.073344    3.603644    1.383895
     26          1           0       -5.769230    2.889160    1.842714
     27          1           0       -4.419118    3.992577    2.172571
     28          1           0       -5.664282    4.439928    0.994999
     29          7           0       -0.486644    1.541871   -1.530400
     30          1           0       -0.803447    0.678584   -1.959971
     31          6           0        0.923315    1.826925   -1.804310
     32          1           0        1.007214    2.571528   -2.610453
     33          6           0        1.498079    0.495852   -2.346643
     34          6           0        1.691055    2.385039   -0.562039
     35          1           0        1.059289    3.203900   -0.214476
     36          8           0        0.760565   -0.485908   -2.551673
     37          6           0        1.803171    1.355493    0.569795
     38          1           0        2.392526    0.481324    0.269330
     39          1           0        2.283425    1.806382    1.443990
     40          1           0        0.812246    1.013667    0.886487
     41          6           0        3.061881    3.003869   -0.892255
     42          1           0        3.872609    2.263720   -0.930750
     43          1           0        3.343311    3.702383   -0.098249
     44          1           0        3.049580    3.571328   -1.830901
     45          7           0        2.815733    0.420068   -2.599701
     46          1           0        3.412838    1.201603   -2.371595
     47          6           0        3.436397   -0.844658   -2.974524
     48          1           0        3.084362   -1.115761   -3.974484
     49          6           0        2.995778   -1.951853   -1.993170
     50          6           0        4.968169   -0.703579   -2.968431
     51          1           0        5.236324    0.172069   -3.574723
     52          1           0        5.284233   -0.496559   -1.938375
     53          8           0        2.808265   -3.159809   -2.502908
     54          6           0        5.713217   -1.937799   -3.502712
     55          1           0        5.408209   -2.824484   -2.933254
     56          1           0        6.774842   -1.797509   -3.276743
     57          6           0        5.545899   -2.194940   -5.024602
     58          1           0        4.990318   -1.371876   -5.498015
     59          1           0        6.530429   -2.190703   -5.504454
     60          6           0        4.874149   -3.521734   -5.389554
     61          1           0        5.023406   -3.732384   -6.456439
     62          1           0        5.336047   -4.340754   -4.827852
     63          7           0        3.423505   -3.521876   -5.055764
     64          1           0        3.029768   -4.442192   -5.258695
     65          1           0        3.047875   -3.240886   -3.513536
     66          1           0        2.935591   -2.875065   -5.677999
     67          8           0        2.799098   -1.736762   -0.807786
 ---------------------------------------------------------------------

 SCF Done:  E(RB3LYP) =  -1396.75267942     A.U. after    2 cycles

 Alpha  occ. eigenvalues --  -19.28825 -19.25759 -19.24811 -19.24669 -19.21307
 Alpha  occ. eigenvalues --  -14.57263 -14.49250 -14.48555 -14.47347 -14.45244
 Alpha  occ. eigenvalues --  -10.43256 -10.42294 -10.42235 -10.38566 -10.38422
 Alpha  occ. eigenvalues --  -10.36143 -10.34855 -10.33303 -10.33044 -10.31305
 Alpha  occ. eigenvalues --  -10.29927 -10.29856 -10.29422 -10.28080 -10.27177
 Alpha  occ. eigenvalues --  -10.26422 -10.25578 -10.23839 -10.23242  -1.20669
 Alpha  occ. eigenvalues --   -1.17569  -1.17047  -1.13114  -1.12085  -1.11658
 Alpha  occ. eigenvalues --   -1.05809  -1.04920  -1.02582  -1.02011  -0.92691
 Alpha  occ. eigenvalues --   -0.90670  -0.89423  -0.87089  -0.87047  -0.83479
 Alpha  occ. eigenvalues --   -0.81918  -0.80246  -0.78738  -0.75130  -0.74652
 Alpha  occ. eigenvalues --   -0.73717  -0.72655  -0.71976  -0.71654  -0.71245
 Alpha  occ. eigenvalues --   -0.70632  -0.70169  -0.69267  -0.66327  -0.64998
 Alpha  occ. eigenvalues --   -0.64032  -0.63358  -0.63144  -0.62355  -0.61939
 Alpha  occ. eigenvalues --   -0.59993  -0.59652  -0.58986  -0.58494  -0.57887
 Alpha  occ. eigenvalues --   -0.57519  -0.56767  -0.56555  -0.55681  -0.55452
 Alpha  occ. eigenvalues --   -0.54389  -0.53945  -0.53597  -0.52955  -0.52662
 Alpha  occ. eigenvalues --   -0.52620  -0.51674  -0.51083  -0.50329  -0.49958
 Alpha  occ. eigenvalues --   -0.49353  -0.48835  -0.48703  -0.48280  -0.47700
 Alpha  occ. eigenvalues --   -0.47567  -0.46764  -0.45643  -0.45389  -0.44789
 Alpha  occ. eigenvalues --   -0.44549  -0.44505  -0.44466  -0.43809  -0.43564
 Alpha  occ. eigenvalues --   -0.43154  -0.42128  -0.40908  -0.40524  -0.39652
 Alpha  occ. eigenvalues --   -0.39284  -0.39220  -0.39048  -0.38896  -0.38291
 Alpha  occ. eigenvalues --   -0.37858  -0.34929  -0.33667
 Alpha virt. eigenvalues --   -0.12155  -0.11943  -0.10409  -0.06847  -0.06233
 Alpha virt. eigenvalues --   -0.05252  -0.04639  -0.02899  -0.01351  -0.01239
 Alpha virt. eigenvalues --   -0.00492   0.00063   0.00692   0.00991   0.01695

 Mulliken charges:
               1
     1  N   -0.751355
     2  H    0.419571
     3  H    0.407168
     4  H    0.469062
     5  C   -0.292916
     6  H    0.242479
     7  H    0.233809
     8  C    0.625472
     9  O   -0.513838
    10  N   -0.589570
    11  H    0.349097
    12  C   -0.101418
    13  H    0.206058
    14  C    0.625684
    15  C   -0.255386
    16  H    0.145992
    17  H    0.149353
    18  O   -0.497480
    19  C   -0.086164
    20  H    0.158595
    21  C   -0.454554
    22  H    0.146451
    23  H    0.160617
    24  H    0.136784
    25  C   -0.447757
    26  H    0.143217
    27  H    0.150797
    28  H    0.155393
    29  N   -0.651432
    30  H    0.376650
    31  C   -0.027400
    32  H    0.188442
    33  C    0.631984
    34  C   -0.109002
    35  H    0.219464
    36  O   -0.591437
    37  C   -0.488535
    38  H    0.177021
    39  H    0.173096
    40  H    0.116377
    41  C   -0.495619
    42  H    0.141230
    43  H    0.187408
    44  H    0.161733
    45  N   -0.614618
    46  H    0.363165
    47  C   -0.002708
    48  H    0.163281
    49  C    0.612985
    50  C   -0.330798
    51  H    0.167805
    52  H    0.179297
    53  O   -0.641818
    54  C   -0.289907
    55  H    0.161735
    56  H    0.176667
    57  C   -0.276396
    58  H    0.143763
    59  H    0.178442
    60  C   -0.156348
    61  H    0.169597
    62  H    0.178815
    63  N   -0.793130
    64  H    0.349980
    65  H    0.486046
    66  H    0.339449
    67  O   -0.510447
 Sum of Mulliken charges =   1.00000

 Dipole moment (field-independent basis, Debye):
    X=              9.7116    Y=             -8.5346    Z=            -11.3467  Tot=             17.2019
 Quadrupole moment (field-independent basis, Debye-Ang):
   XX=           -117.5916   YY=           -134.9507   ZZ=           -111.0909
   XY=            -16.3261   XZ=            -54.7092   YZ=             29.2221

 Normal termination of Gaussian 16 at Thu Jun  2 03:21:40 2022.
