 Gaussian 16, Revision C.01,
 Gaussian 16:  ES64L-G16RevC.01  3-Jul-2019

 ----------------------------------------------------------------------
 # B3LYP/6-31G* empiricaldispersion=gd3 guess=read geom=check nosymm in
 tegral(ultrafinegrid)
 ----------------------------------------------------------------------

 ------------------------------------------------------
 Candidate Structure: Conf:578 Charge calc in gas phase
 ------------------------------------------------------
 Structure from the checkpoint file:  "conf-578.chk"
 Charge =  1 Multiplicity = 1

                          Input orientation:
 ---------------------------------------------------------------------
 Center     Atomic      Atomic             Coordinates (Angstroms)
 Number     Number       Type             X           Y           Z
 ---------------------------------------------------------------------
      1          7           0       -5.977639   -1.173919    3.555187
      2          1           0       -6.001827   -2.058395    4.069462
      3          1           0       -6.791959   -0.617573    3.828170
      4          1           0       -5.992558   -1.362434    2.492804
      5          6           0       -4.671221   -0.438406    3.679507
      6          1           0       -4.005061   -0.974446    4.357523
      7          1           0       -4.847465    0.566598    4.066863
      8          6           0       -4.132348   -0.414978    2.221760
      9          8           0       -4.849838   -0.947256    1.357243
     10          7           0       -2.960394    0.157908    2.029852
     11          1           0       -2.419917    0.594119    2.781081
     12          6           0       -2.297713    0.293241    0.725871
     13          1           0       -2.413097   -0.647669    0.178700
     14          6           0       -0.823992    0.550572    1.087902
     15          6           0       -2.936814    1.448763   -0.081778
     16          1           0       -3.977763    1.152543   -0.256377
     17          1           0       -2.957426    2.339072    0.559625
     18          8           0       -0.556802    1.132405    2.143910
     19          6           0       -2.247316    1.790834   -1.426216
     20          1           0       -1.751398    0.891203   -1.817122
     21          6           0       -3.294069    2.224030   -2.463723
     22          1           0       -3.849022    3.103902   -2.113901
     23          1           0       -2.815201    2.487978   -3.412724
     24          1           0       -4.017563    1.424773   -2.661724
     25          6           0       -1.182811    2.887162   -1.258674
     26          1           0       -1.656890    3.837097   -0.981414
     27          1           0       -0.447207    2.649484   -0.484980
     28          1           0       -0.638289    3.042069   -2.194752
     29          7           0        0.075175    0.112229    0.195691
     30          1           0       -0.229025   -0.263041   -0.699583
     31          6           0        1.476747    0.523771    0.179461
     32          1           0        1.579562    1.394523    0.835992
     33          6           0        1.749295    0.897779   -1.292251
     34          6           0        2.418730   -0.605756    0.679880
     35          1           0        2.297247   -1.449197   -0.014412
     36          8           0        1.128897    0.328131   -2.195493
     37          6           0        3.889869   -0.163717    0.664243
     38          1           0        4.039854    0.724846    1.291916
     39          1           0        4.524771   -0.959013    1.067601
     40          1           0        4.249455    0.068013   -0.341964
     41          6           0        2.007309   -1.061077    2.087020
     42          1           0        2.074960   -0.232293    2.801156
     43          1           0        2.667095   -1.864548    2.431444
     44          1           0        0.979715   -1.436392    2.105791
     45          7           0        2.671948    1.851604   -1.503809
     46          1           0        3.210918    2.244961   -0.738451
     47          6           0        3.150284    2.213600   -2.831760
     48          1           0        3.340981    1.301058   -3.407890
     49          6           0        4.445303    2.990663   -2.638773
     50          6           0        2.130001    3.072504   -3.620595
     51          1           0        2.465217    3.111621   -4.662053
     52          1           0        1.194342    2.504699   -3.608806
     53          8           0        4.978424    3.372988   -3.785154
     54          6           0        1.881872    4.506062   -3.096964
     55          1           0        1.870682    4.500903   -1.998198
     56          1           0        0.861801    4.775782   -3.393803
     57          6           0        2.833640    5.623519   -3.622633
     58          1           0        3.291614    5.287311   -4.560201
     59          1           0        2.218404    6.490690   -3.885844
     60          6           0        3.956024    6.109533   -2.665085
     61          1           0        3.798123    7.166641   -2.412231
     62          1           0        3.935786    5.549255   -1.728186
     63          7           0        5.313075    5.905566   -3.241923
     64          1           0        6.023464    6.156019   -2.555188
     65          1           0        5.396884    4.305869   -3.618812
     66          1           0        5.450479    6.518412   -4.045607
     67          8           0        4.848999    3.312242   -1.528869
 ---------------------------------------------------------------------

 SCF Done:  E(RB3LYP) =  -1396.72160317     A.U. after    2 cycles

 Alpha  occ. eigenvalues --  -19.28428 -19.22397 -19.21881 -19.19731 -19.19510
 Alpha  occ. eigenvalues --  -14.61929 -14.50640 -14.45385 -14.43409 -14.41377
 Alpha  occ. eigenvalues --  -10.45224 -10.42425 -10.38929 -10.37490 -10.36513
 Alpha  occ. eigenvalues --  -10.34933 -10.31415 -10.30023 -10.28613 -10.28106
 Alpha  occ. eigenvalues --  -10.27697 -10.27164 -10.25159 -10.25096 -10.25031
 Alpha  occ. eigenvalues --  -10.25012 -10.25011 -10.24419 -10.24403  -1.20892
 Alpha  occ. eigenvalues --   -1.15482  -1.15010  -1.13899  -1.11362  -1.07234
 Alpha  occ. eigenvalues --   -1.06442  -1.02147  -0.99986  -0.96667  -0.92442
 Alpha  occ. eigenvalues --   -0.89748  -0.88339  -0.86298  -0.84900  -0.82142
 Alpha  occ. eigenvalues --   -0.79112  -0.76807  -0.76023  -0.75894  -0.75790
 Alpha  occ. eigenvalues --   -0.75523  -0.75318  -0.71858  -0.69938  -0.68952
 Alpha  occ. eigenvalues --   -0.67415  -0.67079  -0.66001  -0.65602  -0.64746
 Alpha  occ. eigenvalues --   -0.64308  -0.63163  -0.61899  -0.61019  -0.59313
 Alpha  occ. eigenvalues --   -0.57807  -0.57025  -0.56822  -0.56433  -0.56255
 Alpha  occ. eigenvalues --   -0.54911  -0.54112  -0.53976  -0.53336  -0.53045
 Alpha  occ. eigenvalues --   -0.52637  -0.52219  -0.51964  -0.50985  -0.50436
 Alpha  occ. eigenvalues --   -0.49549  -0.49274  -0.48747  -0.48411  -0.47525
 Alpha  occ. eigenvalues --   -0.47032  -0.46552  -0.46278  -0.45901  -0.45812
 Alpha  occ. eigenvalues --   -0.45043  -0.44672  -0.44323  -0.43741  -0.43329
 Alpha  occ. eigenvalues --   -0.42665  -0.42392  -0.41649  -0.41104  -0.40970
 Alpha  occ. eigenvalues --   -0.40797  -0.40526  -0.39867  -0.39658  -0.39279
 Alpha  occ. eigenvalues --   -0.38981  -0.36423  -0.36024  -0.35280  -0.33769
 Alpha  occ. eigenvalues --   -0.33474  -0.32954  -0.32572
 Alpha virt. eigenvalues --   -0.13509  -0.13198  -0.08194  -0.07567  -0.06163
 Alpha virt. eigenvalues --   -0.05743  -0.05001  -0.02532  -0.01722  -0.00297
 Alpha virt. eigenvalues --    0.00185   0.00647   0.01486   0.01945   0.02964

 Mulliken charges:
               1
     1  N   -0.751612
     2  H    0.423133
     3  H    0.422810
     4  H    0.440789
     5  C   -0.276582
     6  H    0.248979
     7  H    0.248207
     8  C    0.641811
     9  O   -0.531730
    10  N   -0.599879
    11  H    0.373601
    12  C   -0.067985
    13  H    0.189555
    14  C    0.623995
    15  C   -0.263032
    16  H    0.164526
    17  H    0.152326
    18  O   -0.552593
    19  C   -0.091407
    20  H    0.143072
    21  C   -0.451094
    22  H    0.147089
    23  H    0.161267
    24  H    0.149025
    25  C   -0.466248
    26  H    0.147101
    27  H    0.150910
    28  H    0.171956
    29  N   -0.600646
    30  H    0.365229
    31  C   -0.067319
    32  H    0.174726
    33  C    0.634513
    34  C   -0.072923
    35  H    0.145404
    36  O   -0.555652
    37  C   -0.469303
    38  H    0.149681
    39  H    0.164463
    40  H    0.164240
    41  C   -0.443348
    42  H    0.158473
    43  H    0.155942
    44  H    0.137402
    45  N   -0.614548
    46  H    0.359637
    47  C   -0.036870
    48  H    0.192013
    49  C    0.606172
    50  C   -0.278577
    51  H    0.166964
    52  H    0.173379
    53  O   -0.603693
    54  C   -0.286921
    55  H    0.143384
    56  H    0.145668
    57  C   -0.284450
    58  H    0.161889
    59  H    0.149293
    60  C   -0.160901
    61  H    0.149036
    62  H    0.182791
    63  N   -0.775074
    64  H    0.339720
    65  H    0.459128
    66  H    0.330668
    67  O   -0.507577
 Sum of Mulliken charges =   1.00000

 Dipole moment (field-independent basis, Debye):
    X=            -16.8600    Y=              3.4012    Z=             11.2067  Tot=             20.5285
 Quadrupole moment (field-independent basis, Debye-Ang):
   XX=            -33.6587   YY=           -119.0701   ZZ=           -111.0450
   XY=             46.2519   XZ=            -93.8831   YZ=            -42.4298

 Normal termination of Gaussian 16 at Thu Jun  2 03:15:11 2022.
