 Gaussian 16, Revision C.01,
 Gaussian 16:  ES64L-G16RevC.01  3-Jul-2019

 ----------------------------------------------------------------------
 # B3LYP/6-31G* empiricaldispersion=gd3 guess=read geom=check nosymm in
 tegral(ultrafinegrid)
 ----------------------------------------------------------------------

 ------------------------------------------------------
 Candidate Structure: Conf:234 Charge calc in gas phase
 ------------------------------------------------------
 Structure from the checkpoint file:  "conf-234.chk"
 Charge =  1 Multiplicity = 1

                          Input orientation:
 ---------------------------------------------------------------------
 Center     Atomic      Atomic             Coordinates (Angstroms)
 Number     Number       Type             X           Y           Z
 ---------------------------------------------------------------------
      1          7           0       -5.756391    2.612809    3.036127
      2          1           0       -5.784159    2.424813    4.041759
      3          1           0       -6.489719    3.290592    2.812480
      4          1           0       -5.910721    1.699010    2.485015
      5          6           0       -4.394193    3.005287    2.532376
      6          1           0       -3.694234    3.075625    3.366808
      7          1           0       -4.450666    3.970576    2.026663
      8          6           0       -4.026004    1.856725    1.551654
      9          8           0       -4.875487    0.961363    1.407356
     10          7           0       -2.851697    1.948048    0.957538
     11          1           0       -2.151674    2.641668    1.241271
     12          6           0       -2.255673    0.930028    0.086388
     13          1           0       -2.629449   -0.051664    0.390011
     14          6           0       -0.738312    1.047089    0.355573
     15          6           0       -2.544862    1.192898   -1.407001
     16          1           0       -2.171720    2.198661   -1.641925
     17          1           0       -1.936933    0.492796   -1.995705
     18          8           0       -0.292330    2.055647    0.911517
     19          6           0       -4.017184    1.062540   -1.839335
     20          1           0       -4.622185    1.732493   -1.210733
     21          6           0       -4.159989    1.523745   -3.297654
     22          1           0       -3.569681    0.885331   -3.966643
     23          1           0       -5.204242    1.469569   -3.623839
     24          1           0       -3.816762    2.556522   -3.430786
     25          6           0       -4.546295   -0.367906   -1.664537
     26          1           0       -3.938689   -1.078972   -2.238652
     27          1           0       -4.551332   -0.680208   -0.615729
     28          1           0       -5.576078   -0.443502   -2.030396
     29          7           0       -0.005334    0.013680   -0.082335
     30          1           0       -0.430869   -0.690888   -0.682998
     31          6           0        1.446075    0.049494   -0.223836
     32          1           0        1.758321    1.099691   -0.240073
     33          6           0        1.736974   -0.613823   -1.587122
     34          6           0        2.182234   -0.676328    0.935196
     35          1           0        3.255295   -0.593937    0.712967
     36          8           0        0.854491   -1.240230   -2.182407
     37          6           0        1.916431    0.024996    2.273018
     38          1           0        0.858872   -0.053446    2.549047
     39          1           0        2.507047   -0.441284    3.068869
     40          1           0        2.169339    1.089256    2.230183
     41          6           0        1.816064   -2.165013    0.999487
     42          1           0        0.746127   -2.291976    1.203045
     43          1           0        2.369263   -2.657553    1.805553
     44          1           0        2.046123   -2.687363    0.064938
     45          7           0        2.999630   -0.498035   -2.032400
     46          1           0        3.692310    0.052754   -1.536122
     47          6           0        3.477150   -1.136732   -3.250572
     48          1           0        3.057252   -2.142907   -3.321637
     49          6           0        4.993691   -1.188272   -3.194327
     50          6           0        3.067565   -0.311517   -4.509409
     51          1           0        1.973200   -0.308460   -4.515896
     52          1           0        3.384364    0.724263   -4.330591
     53          8           0        5.489142   -2.138928   -3.974253
     54          6           0        3.618069   -0.822586   -5.867126
     55          1           0        2.780468   -0.926198   -6.566610
     56          1           0        4.037526   -1.824603   -5.749475
     57          6           0        4.646593    0.105347   -6.551941
     58          1           0        4.893674   -0.319109   -7.536105
     59          1           0        4.156195    1.066242   -6.760083
     60          6           0        5.958819    0.447619   -5.828082
     61          1           0        6.450999    1.250139   -6.395992
     62          1           0        5.762394    0.840530   -4.826212
     63          7           0        6.878064   -0.710143   -5.661753
     64          1           0        7.782019   -0.378229   -5.326942
     65          1           0        6.256544   -1.723659   -4.528502
     66          1           0        7.048025   -1.155578   -6.563999
     67          8           0        5.642750   -0.342122   -2.598411
 ---------------------------------------------------------------------

 SCF Done:  E(RB3LYP) =  -1396.72365189     A.U. after    1 cycles

 Alpha  occ. eigenvalues --  -19.28400 -19.22182 -19.21792 -19.19605 -19.19268
 Alpha  occ. eigenvalues --  -14.61885 -14.50397 -14.45238 -14.43514 -14.41398
 Alpha  occ. eigenvalues --  -10.45169 -10.42317 -10.39068 -10.37046 -10.36599
 Alpha  occ. eigenvalues --  -10.34795 -10.31396 -10.29842 -10.28632 -10.28174
 Alpha  occ. eigenvalues --  -10.27910 -10.27173 -10.25378 -10.25244 -10.25239
 Alpha  occ. eigenvalues --  -10.25167 -10.24365 -10.24287 -10.24254  -1.20842
 Alpha  occ. eigenvalues --   -1.15440  -1.14357  -1.14075  -1.11415  -1.07132
 Alpha  occ. eigenvalues --   -1.06006  -1.02133  -1.00039  -0.96769  -0.92504
 Alpha  occ. eigenvalues --   -0.89764  -0.88451  -0.86240  -0.84967  -0.82181
 Alpha  occ. eigenvalues --   -0.78911  -0.76602  -0.76168  -0.75838  -0.75762
 Alpha  occ. eigenvalues --   -0.75491  -0.75345  -0.71914  -0.70164  -0.69262
 Alpha  occ. eigenvalues --   -0.67476  -0.67063  -0.65372  -0.65071  -0.64500
 Alpha  occ. eigenvalues --   -0.63834  -0.63225  -0.62076  -0.61163  -0.59489
 Alpha  occ. eigenvalues --   -0.57808  -0.57357  -0.57325  -0.56484  -0.55417
 Alpha  occ. eigenvalues --   -0.54760  -0.54212  -0.53540  -0.53264  -0.52728
 Alpha  occ. eigenvalues --   -0.52294  -0.51937  -0.51863  -0.50761  -0.50582
 Alpha  occ. eigenvalues --   -0.50338  -0.49453  -0.48618  -0.48087  -0.47802
 Alpha  occ. eigenvalues --   -0.47749  -0.46744  -0.46349  -0.45456  -0.45319
 Alpha  occ. eigenvalues --   -0.45101  -0.44746  -0.44223  -0.43455  -0.43325
 Alpha  occ. eigenvalues --   -0.42215  -0.41917  -0.41650  -0.41440  -0.41159
 Alpha  occ. eigenvalues --   -0.40870  -0.40628  -0.40098  -0.39764  -0.39601
 Alpha  occ. eigenvalues --   -0.39222  -0.36229  -0.35494  -0.35161  -0.33836
 Alpha  occ. eigenvalues --   -0.33594  -0.32920  -0.31966
 Alpha virt. eigenvalues --   -0.13426  -0.13135  -0.07900  -0.07518  -0.06048
 Alpha virt. eigenvalues --   -0.05682  -0.04787  -0.02490  -0.02030   0.00001
 Alpha virt. eigenvalues --    0.00272   0.00834   0.01453   0.01881   0.03177

 Mulliken charges:
               1
     1  N   -0.751475
     2  H    0.423080
     3  H    0.422736
     4  H    0.440345
     5  C   -0.278671
     6  H    0.249183
     7  H    0.249168
     8  C    0.639344
     9  O   -0.529037
    10  N   -0.585481
    11  H    0.372879
    12  C   -0.089412
    13  H    0.195291
    14  C    0.627746
    15  C   -0.264779
    16  H    0.151581
    17  H    0.171374
    18  O   -0.546776
    19  C   -0.070743
    20  H    0.111755
    21  C   -0.447068
    22  H    0.157435
    23  H    0.156007
    24  H    0.145094
    25  C   -0.460974
    26  H    0.152752
    27  H    0.157540
    28  H    0.156569
    29  N   -0.598272
    30  H    0.364281
    31  C   -0.075806
    32  H    0.180992
    33  C    0.633828
    34  C   -0.075761
    35  H    0.143571
    36  O   -0.556122
    37  C   -0.442174
    38  H    0.139582
    39  H    0.156149
    40  H    0.158471
    41  C   -0.463125
    42  H    0.143560
    43  H    0.161804
    44  H    0.166978
    45  N   -0.616804
    46  H    0.353909
    47  C   -0.019528
    48  H    0.189593
    49  C    0.585472
    50  C   -0.284050
    51  H    0.173470
    52  H    0.144291
    53  O   -0.602336
    54  C   -0.280365
    55  H    0.147489
    56  H    0.176454
    57  C   -0.277625
    58  H    0.140472
    59  H    0.149404
    60  C   -0.156583
    61  H    0.148892
    62  H    0.179266
    63  N   -0.775426
    64  H    0.341122
    65  H    0.458213
    66  H    0.329816
    67  O   -0.498565
 Sum of Mulliken charges =   1.00000

 Dipole moment (field-independent basis, Debye):
    X=            -14.2631    Y=             11.4041    Z=              4.1856  Tot=             18.7352
 Quadrupole moment (field-independent basis, Debye-Ang):
   XX=            -22.1187   YY=           -145.0704   ZZ=            -87.4814
   XY=            -61.2635   XZ=           -103.4282   YZ=             27.5914

 Normal termination of Gaussian 16 at Thu Jun  2 03:14:52 2022.
