 Gaussian 16, Revision C.01,
 Gaussian 16:  ES64L-G16RevC.01  3-Jul-2019

 ----------------------------------------------------------------------
 # B3LYP/6-31G* empiricaldispersion=gd3 guess=read geom=check nosymm in
 tegral(ultrafinegrid)
 ----------------------------------------------------------------------

 ------------------------------------------------------
 Candidate Structure: Conf:862 Charge calc in gas phase
 ------------------------------------------------------
 Structure from the checkpoint file:  "conf-862.chk"
 Charge =  1 Multiplicity = 1

                          Input orientation:
 ---------------------------------------------------------------------
 Center     Atomic      Atomic             Coordinates (Angstroms)
 Number     Number       Type             X           Y           Z
 ---------------------------------------------------------------------
      1          7           0       -1.150871    2.936693    3.089113
      2          1           0       -0.932947    3.887747    3.399502
      3          1           0       -0.510926    2.271203    3.541075
      4          1           0       -0.995469    2.816026    2.039608
      5          6           0       -2.574978    2.512101    3.383361
      6          1           0       -3.243347    3.283940    2.997813
      7          1           0       -2.696788    2.400251    4.461229
      8          6           0       -2.631118    1.161474    2.651371
      9          8           0       -1.863164    0.286385    3.029585
     10          7           0       -3.340081    1.119988    1.494337
     11          1           0       -3.815451    1.971651    1.220077
     12          6           0       -2.733417    0.380861    0.381509
     13          1           0       -2.649196   -0.666045    0.678501
     14          6           0       -1.312791    0.968968    0.172844
     15          6           0       -3.614116    0.523894   -0.874686
     16          1           0       -4.631338    0.223826   -0.590248
     17          1           0       -3.655647    1.589433   -1.144335
     18          8           0       -1.037802    2.139077    0.527133
     19          6           0       -3.179364   -0.292465   -2.109858
     20          1           0       -2.167153    0.016037   -2.401432
     21          6           0       -3.161265   -1.804339   -1.838647
     22          1           0       -4.155355   -2.158356   -1.538120
     23          1           0       -2.865388   -2.348931   -2.740220
     24          1           0       -2.456237   -2.094788   -1.050153
     25          6           0       -4.117692    0.030893   -3.282425
     26          1           0       -5.148763   -0.266562   -3.053943
     27          1           0       -4.118673    1.102478   -3.513928
     28          1           0       -3.807656   -0.507524   -4.183826
     29          7           0       -0.432918    0.162705   -0.406870
     30          1           0       -0.714717   -0.748712   -0.764063
     31          6           0        0.923455    0.531831   -0.804331
     32          1           0        0.960547    1.620372   -0.915443
     33          6           0        1.119279   -0.175636   -2.162855
     34          6           0        1.966820    0.083242    0.259496
     35          1           0        1.916668   -1.012806    0.309740
     36          8           0        0.487422   -1.202476   -2.410220
     37          6           0        3.391878    0.486523   -0.148042
     38          1           0        3.459465    1.571483   -0.314966
     39          1           0        4.093485    0.240173    0.655575
     40          1           0        3.722338   -0.041356   -1.045759
     41          6           0        1.615117    0.649241    1.645331
     42          1           0        1.620064    1.747381    1.621697
     43          1           0        2.360877    0.323246    2.377789
     44          1           0        0.634652    0.306096    1.991872
     45          7           0        1.959681    0.410787   -3.046043
     46          1           0        2.579525    1.134278   -2.705530
     47          6           0        2.363115   -0.296755   -4.256566
     48          1           0        1.461390   -0.707086   -4.715653
     49          6           0        3.320007   -1.439349   -3.914684
     50          6           0        3.079324    0.669978   -5.246402
     51          1           0        2.831211    0.353739   -6.263320
     52          1           0        2.620846    1.657015   -5.114647
     53          8           0        3.541833   -2.224219   -4.959933
     54          6           0        4.625772    0.759720   -5.105090
     55          1           0        4.918186    0.502889   -4.078819
     56          1           0        4.929515    1.803298   -5.239084
     57          6           0        5.401839   -0.121186   -6.128485
     58          1           0        4.716967   -0.827599   -6.606578
     59          1           0        5.784048    0.524583   -6.928475
     60          6           0        6.592236   -0.924541   -5.582635
     61          1           0        7.133415   -1.347059   -6.435534
     62          1           0        7.294032   -0.258583   -5.058438
     63          7           0        6.180065   -2.064300   -4.721411
     64          1           0        6.905132   -2.778529   -4.712599
     65          1           0        6.056309   -1.766897   -3.753980
     66          1           0        4.525429   -2.507778   -4.908342
     67          8           0        3.919628   -1.501047   -2.852606
 ---------------------------------------------------------------------

 SCF Done:  E(RB3LYP) =  -1396.72645169     A.U. after    1 cycles

 Alpha  occ. eigenvalues --  -19.26438 -19.25060 -19.23753 -19.21441 -19.20680
 Alpha  occ. eigenvalues --  -14.60038 -14.49683 -14.48082 -14.45482 -14.40898
 Alpha  occ. eigenvalues --  -10.43723 -10.41597 -10.40684 -10.38451 -10.38437
 Alpha  occ. eigenvalues --  -10.35623 -10.33705 -10.31520 -10.29862 -10.29328
 Alpha  occ. eigenvalues --  -10.28708 -10.28427 -10.27394 -10.27284 -10.26290
 Alpha  occ. eigenvalues --  -10.25940 -10.25861 -10.25567 -10.25267  -1.19232
 Alpha  occ. eigenvalues --   -1.16146  -1.16054  -1.14047  -1.13378  -1.07406
 Alpha  occ. eigenvalues --   -1.06446  -1.04652  -1.01905  -0.96528  -0.92352
 Alpha  occ. eigenvalues --   -0.90321  -0.89222  -0.87796  -0.85160  -0.83247
 Alpha  occ. eigenvalues --   -0.81097  -0.77756  -0.77029  -0.76815  -0.75733
 Alpha  occ. eigenvalues --   -0.74803  -0.73178  -0.72457  -0.70730  -0.70204
 Alpha  occ. eigenvalues --   -0.69101  -0.67566  -0.66832  -0.65916  -0.65729
 Alpha  occ. eigenvalues --   -0.64610  -0.64305  -0.62174  -0.60768  -0.59968
 Alpha  occ. eigenvalues --   -0.59182  -0.58266  -0.57967  -0.57497  -0.56515
 Alpha  occ. eigenvalues --   -0.55847  -0.55428  -0.55142  -0.54370  -0.54172
 Alpha  occ. eigenvalues --   -0.53455  -0.53134  -0.52577  -0.52024  -0.51486
 Alpha  occ. eigenvalues --   -0.51350  -0.50368  -0.49909  -0.48975  -0.48721
 Alpha  occ. eigenvalues --   -0.48318  -0.48164  -0.47670  -0.47472  -0.47138
 Alpha  occ. eigenvalues --   -0.46791  -0.45532  -0.45347  -0.44997  -0.44074
 Alpha  occ. eigenvalues --   -0.43724  -0.42934  -0.42755  -0.42421  -0.41934
 Alpha  occ. eigenvalues --   -0.41822  -0.40930  -0.40851  -0.40275  -0.39999
 Alpha  occ. eigenvalues --   -0.39633  -0.38704  -0.37851  -0.37683  -0.35502
 Alpha  occ. eigenvalues --   -0.35058  -0.34165  -0.33082
 Alpha virt. eigenvalues --   -0.14903  -0.10787  -0.09750  -0.07418  -0.06355
 Alpha virt. eigenvalues --   -0.05773  -0.04443  -0.02083  -0.01809  -0.01317
 Alpha virt. eigenvalues --    0.00395   0.00568   0.00831   0.01769   0.02318

 Mulliken charges:
               1
     1  N   -0.762951
     2  H    0.412087
     3  H    0.423977
     4  H    0.462478
     5  C   -0.262072
     6  H    0.217021
     7  H    0.244026
     8  C    0.586760
     9  O   -0.478750
    10  N   -0.555242
    11  H    0.342157
    12  C   -0.069547
    13  H    0.209353
    14  C    0.651235
    15  C   -0.289685
    16  H    0.171705
    17  H    0.146025
    18  O   -0.623678
    19  C   -0.100897
    20  H    0.145402
    21  C   -0.454830
    22  H    0.154950
    23  H    0.179063
    24  H    0.137136
    25  C   -0.447575
    26  H    0.153123
    27  H    0.147492
    28  H    0.165934
    29  N   -0.586766
    30  H    0.386655
    31  C   -0.076132
    32  H    0.171972
    33  C    0.644066
    34  C   -0.063120
    35  H    0.162996
    36  O   -0.537133
    37  C   -0.503246
    38  H    0.128549
    39  H    0.164540
    40  H    0.208640
    41  C   -0.475664
    42  H    0.122230
    43  H    0.166773
    44  H    0.160285
    45  N   -0.598543
    46  H    0.340884
    47  C   -0.040633
    48  H    0.200235
    49  C    0.620956
    50  C   -0.305375
    51  H    0.179405
    52  H    0.154944
    53  O   -0.589944
    54  C   -0.301524
    55  H    0.146292
    56  H    0.152645
    57  C   -0.271520
    58  H    0.169781
    59  H    0.151639
    60  C   -0.148944
    61  H    0.161783
    62  H    0.145389
    63  N   -0.782690
    64  H    0.332930
    65  H    0.346124
    66  H    0.450810
    67  O   -0.493982
 Sum of Mulliken charges =   1.00000

 Dipole moment (field-independent basis, Debye):
    X=             -0.5115    Y=             11.4744    Z=              2.8994  Tot=             11.8461
 Quadrupole moment (field-independent basis, Debye-Ang):
   XX=            -97.0989   YY=           -141.5281   ZZ=           -109.0706
   XY=            -20.4091   XZ=            -46.7069   YZ=             32.3096

 Normal termination of Gaussian 16 at Thu Jun  2 03:21:12 2022.
