 Gaussian 16, Revision C.01,
 Gaussian 16:  ES64L-G16RevC.01  3-Jul-2019

 ----------------------------------------------------------------------
 # B3LYP/6-31G* empiricaldispersion=gd3 guess=read geom=check nosymm in
 tegral(ultrafinegrid)
 ----------------------------------------------------------------------

 ------------------------------------------------------
 Candidate Structure: Conf:669 Charge calc in gas phase
 ------------------------------------------------------
 Structure from the checkpoint file:  "conf-669.chk"
 Charge =  1 Multiplicity = 1

                          Input orientation:
 ---------------------------------------------------------------------
 Center     Atomic      Atomic             Coordinates (Angstroms)
 Number     Number       Type             X           Y           Z
 ---------------------------------------------------------------------
      1          7           0       -5.325502    0.735031    4.691968
      2          1           0       -5.018576    0.218436    5.520971
      3          1           0       -6.159164    1.275256    4.938255
      4          1           0       -5.545689    0.046422    3.898022
      5          6           0       -4.234161    1.555747    4.059136
      6          1           0       -3.336741    1.525980    4.679576
      7          1           0       -4.565936    2.590247    3.955258
      8          6           0       -4.018580    0.877773    2.677814
      9          8           0       -4.769051   -0.072233    2.401834
     10          7           0       -3.061754    1.386990    1.922823
     11          1           0       -2.382681    2.061957    2.293721
     12          6           0       -2.573688    0.808105    0.667002
     13          1           0       -2.757880   -0.269799    0.687293
     14          6           0       -1.053162    1.099412    0.697131
     15          6           0       -3.227161    1.454203   -0.570080
     16          1           0       -3.018563    2.531441   -0.529966
     17          1           0       -2.707378    1.070372   -1.459271
     18          8           0       -0.617653    1.945877    1.483899
     19          6           0       -4.739733    1.214983   -0.732131
     20          1           0       -5.238821    1.552716    0.187535
     21          6           0       -5.270200    2.064213   -1.896799
     22          1           0       -4.800883    1.763966   -2.842798
     23          1           0       -6.351971    1.938588   -2.012178
     24          1           0       -5.067796    3.131004   -1.745822
     25          6           0       -5.073326   -0.268914   -0.940316
     26          1           0       -4.553021   -0.664661   -1.822691
     27          1           0       -4.801361   -0.877633   -0.073071
     28          1           0       -6.147826   -0.401655   -1.106128
     29          7           0       -0.310802    0.401664   -0.172010
     30          1           0       -0.742130   -0.237935   -0.828174
     31          6           0        1.139546    0.524352   -0.283264
     32          1           0        1.413613    1.515052    0.090091
     33          6           0        1.537153    0.391500   -1.756271
     34          6           0        1.897182   -0.553879    0.556120
     35          1           0        2.965932   -0.377487    0.378656
     36          8           0        0.720392   -0.157968   -2.558246
     37          6           0        1.615397   -0.379623    2.052819
     38          1           0        0.565922   -0.596777    2.289760
     39          1           0        2.236792   -1.072396    2.629833
     40          1           0        1.832098    0.638972    2.389705
     41          6           0        1.568529   -1.978390    0.089028
     42          1           0        0.505396   -2.212553    0.235523
     43          1           0        2.149252   -2.703088    0.667857
     44          1           0        1.808340   -2.132385   -0.968074
     45          7           0        2.768731    0.781277   -2.034742
     46          1           0        3.400750    0.997699   -1.217631
     47          6           0        3.701159    0.114652   -2.960466
     48          1           0        3.259631   -0.832126   -3.284845
     49          6           0        4.974964   -0.222434   -2.052690
     50          6           0        4.132810    0.970699   -4.150507
     51          1           0        4.585185    1.895762   -3.773290
     52          1           0        4.926772    0.413926   -4.659510
     53          8           0        4.904657    0.267719   -0.883935
     54          6           0        2.993994    1.322069   -5.116921
     55          1           0        3.335426    2.041767   -5.870799
     56          1           0        2.224851    1.845459   -4.528378
     57          6           0        2.414088    0.075517   -5.815226
     58          1           0        2.986121   -0.152261   -6.721345
     59          1           0        2.514509   -0.800796   -5.166611
     60          6           0        0.945909    0.188877   -6.206384
     61          1           0        0.762135    0.960284   -6.959612
     62          1           0        0.558009   -0.761537   -6.580761
     63          7           0        0.113008    0.549017   -4.987187
     64          1           0       -0.858512    0.246782   -5.089082
     65          1           0        0.500152    0.146300   -4.042931
     66          1           0        0.102201    1.561889   -4.847795
     67          8           0        5.843249   -0.885989   -2.620901
 ---------------------------------------------------------------------

 SCF Done:  E(RB3LYP) =  -1396.66887143     A.U. after    2 cycles

 Alpha  occ. eigenvalues --  -19.29208 -19.22896 -19.22327 -19.10766 -19.09354
 Alpha  occ. eigenvalues --  -14.62692 -14.55170 -14.51155 -14.46596 -14.41829
 Alpha  occ. eigenvalues --  -10.45987 -10.43004 -10.40026 -10.37548 -10.35995
 Alpha  occ. eigenvalues --  -10.35777 -10.31599 -10.30383 -10.29549 -10.28597
 Alpha  occ. eigenvalues --  -10.28336 -10.27100 -10.26891 -10.26844 -10.26219
 Alpha  occ. eigenvalues --  -10.25997 -10.23938 -10.23902 -10.23855  -1.21599
 Alpha  occ. eigenvalues --   -1.16267  -1.14952  -1.12523  -1.09782  -1.07939
 Alpha  occ. eigenvalues --   -1.03843  -1.03067  -0.99157  -0.95009  -0.93569
 Alpha  occ. eigenvalues --   -0.90942  -0.89660  -0.88264  -0.85862  -0.83957
 Alpha  occ. eigenvalues --   -0.80081  -0.78131  -0.77730  -0.76954  -0.76586
 Alpha  occ. eigenvalues --   -0.76288  -0.74989  -0.73158  -0.72069  -0.69941
 Alpha  occ. eigenvalues --   -0.69490  -0.68688  -0.67621  -0.66499  -0.66393
 Alpha  occ. eigenvalues --   -0.65359  -0.64313  -0.63170  -0.62862  -0.61784
 Alpha  occ. eigenvalues --   -0.60577  -0.59905  -0.58558  -0.57861  -0.56311
 Alpha  occ. eigenvalues --   -0.55912  -0.55239  -0.55040  -0.54688  -0.53719
 Alpha  occ. eigenvalues --   -0.53518  -0.52876  -0.52401  -0.51884  -0.51020
 Alpha  occ. eigenvalues --   -0.50404  -0.49592  -0.49293  -0.48865  -0.48674
 Alpha  occ. eigenvalues --   -0.48070  -0.47413  -0.46656  -0.46241  -0.45427
 Alpha  occ. eigenvalues --   -0.45391  -0.44462  -0.44165  -0.43605  -0.43524
 Alpha  occ. eigenvalues --   -0.43064  -0.42920  -0.42094  -0.41843  -0.41035
 Alpha  occ. eigenvalues --   -0.40844  -0.40370  -0.40263  -0.39777  -0.39409
 Alpha  occ. eigenvalues --   -0.37770  -0.37172  -0.36400  -0.35014  -0.33944
 Alpha  occ. eigenvalues --   -0.25728  -0.25561  -0.23327
 Alpha virt. eigenvalues --   -0.14325  -0.13704  -0.08674  -0.08310  -0.08212
 Alpha virt. eigenvalues --   -0.07335  -0.06674  -0.03457  -0.03264  -0.02957
 Alpha virt. eigenvalues --   -0.01964  -0.00151   0.00031   0.00404   0.01966

 Mulliken charges:
               1
     1  N   -0.750216
     2  H    0.425674
     3  H    0.424170
     4  H    0.439455
     5  C   -0.279303
     6  H    0.252453
     7  H    0.251136
     8  C    0.635838
     9  O   -0.528314
    10  N   -0.585448
    11  H    0.376430
    12  C   -0.089871
    13  H    0.192844
    14  C    0.641281
    15  C   -0.251932
    16  H    0.156313
    17  H    0.136325
    18  O   -0.544489
    19  C   -0.071517
    20  H    0.121817
    21  C   -0.444070
    22  H    0.137331
    23  H    0.162074
    24  H    0.150120
    25  C   -0.458933
    26  H    0.135578
    27  H    0.165301
    28  H    0.161204
    29  N   -0.602742
    30  H    0.347398
    31  C   -0.072237
    32  H    0.197126
    33  C    0.605721
    34  C   -0.101808
    35  H    0.212560
    36  O   -0.652380
    37  C   -0.444300
    38  H    0.113986
    39  H    0.164370
    40  H    0.162327
    41  C   -0.463699
    42  H    0.116946
    43  H    0.172359
    44  H    0.165071
    45  N   -0.565326
    46  H    0.375524
    47  C   -0.123001
    48  H    0.148368
    49  C    0.607366
    50  C   -0.260679
    51  H    0.156315
    52  H    0.187169
    53  O   -0.604198
    54  C   -0.282423
    55  H    0.159255
    56  H    0.103423
    57  C   -0.286940
    58  H    0.187292
    59  H    0.180849
    60  C   -0.184864
    61  H    0.195699
    62  H    0.201590
    63  N   -0.772768
    64  H    0.389368
    65  H    0.460909
    66  H    0.394005
    67  O   -0.548884
 Sum of Mulliken charges =   1.00000

 Dipole moment (field-independent basis, Debye):
    X=            -30.8613    Y=              7.2038    Z=              4.6235  Tot=             32.0264
 Quadrupole moment (field-independent basis, Debye-Ang):
   XX=           -145.3329   YY=           -166.6928   ZZ=             -4.4829
   XY=            -16.0026   XZ=            -73.4512   YZ=              2.5482

 Normal termination of Gaussian 16 at Thu Jun  2 03:21:25 2022.
