 Gaussian 16, Revision C.01,
 Gaussian 16:  ES64L-G16RevC.01  3-Jul-2019

 -------------------------------------------------------------------
 # B3LYP/6-31G* guess=read geom=check nosymm integral(ultrafinegrid)
 -------------------------------------------------------------------

 ------------------------------------------------------
 Candidate Structure: Conf:549 Charge calc in gas phase
 ------------------------------------------------------
 Structure from the checkpoint file:  "conf-549.chk"
 Charge =  1 Multiplicity = 1

                          Input orientation:
 ---------------------------------------------------------------------
 Center     Atomic      Atomic             Coordinates (Angstroms)
 Number     Number       Type             X           Y           Z
 ---------------------------------------------------------------------
      1          7           0       -5.422046   -2.550876    3.691488
      2          1           0       -6.291126   -2.866695    4.126787
      3          1           0       -5.233176   -3.052913    2.779856
      4          1           0       -4.630302   -2.720218    4.338041
      5          6           0       -5.429044   -1.097163    3.278345
      6          1           0       -6.476829   -0.807243    3.149491
      7          6           0       -4.783797   -1.150230    1.859226
      8          6           0       -4.764879   -0.213496    4.362795
      9          1           0       -5.460378   -0.153858    5.209006
     10          1           0       -4.689615    0.806038    3.970266
     11          8           0       -4.679750   -2.263811    1.326475
     12          6           0       -3.413166   -0.717833    4.828865
     13          6           0       -3.338576   -1.640924    5.888957
     14          1           0       -4.239280   -1.912210    6.441287
     15          6           0       -2.226519   -0.295295    4.212304
     16          1           0       -2.252426    0.443111    3.414827
     17          6           0       -2.102886   -2.147751    6.303957
     18          1           0       -2.058459   -2.849237    7.132203
     19          6           0       -0.991505   -0.789269    4.636974
     20          1           0       -0.086274   -0.421805    4.158275
     21          6           0       -0.932056   -1.724632    5.674536
     22          1           0        0.029301   -2.106628    6.005502
     23          7           0       -4.469998    0.014349    1.291480
     24          1           0       -4.364739    0.843477    1.871108
     25          6           0       -3.709197    0.124858    0.036989
     26          1           0       -3.528126   -0.890467   -0.319443
     27          6           0       -2.391432    0.814774    0.451616
     28          6           0       -4.504807    0.944793   -1.002186
     29          1           0       -5.503816    0.495233   -1.079169
     30          1           0       -4.642019    1.956801   -0.598188
     31          8           0       -2.401469    1.599130    1.406443
     32          6           0       -3.881017    1.033125   -2.411625
     33          1           0       -2.861585    1.432992   -2.324115
     34          6           0       -3.798013   -0.338016   -3.101721
     35          1           0       -4.794923   -0.784318   -3.209866
     36          1           0       -3.365891   -0.238238   -4.102752
     37          1           0       -3.173396   -1.055335   -2.555191
     38          6           0       -4.692677    2.017527   -3.267885
     39          1           0       -5.726612    1.671803   -3.394512
     40          1           0       -4.725287    3.013884   -2.812009
     41          1           0       -4.252292    2.119110   -4.265610
     42          7           0       -1.292807    0.478897   -0.247763
     43          1           0       -1.375716   -0.003173   -1.138440
     44          6           0        0.015931    1.068303   -0.008814
     45          1           0       -0.135655    1.941176    0.631945
     46          6           0        0.585401    1.464808   -1.385089
     47          6           0        0.977353    0.051152    0.698972
     48          1           0        0.362116   -0.709259    1.183661
     49          1           0        1.620759   -0.435873   -0.041153
     50          8           0        0.083139    1.014118   -2.415424
     51          6           0        1.808488    0.708513    1.803510
     52          7           0        2.980649    1.262201    1.394181
     53          1           0        3.579589    1.630746    2.123237
     54          1           0        3.403335    1.009778    0.488006
     55          8           0        1.393307    0.779487    2.958355
     56          7           0        1.664901    2.285005   -1.352145
     57          1           0        2.076436    2.438166   -0.435539
     58          6           0        2.609365    2.336625   -2.466284
     59          1           0        2.053924    1.963414   -3.331553
     60          6           0        3.801589    1.346961   -2.266724
     61          6           0        3.095004    3.781236   -2.726485
     62          1           0        4.147498    3.757136   -3.027247
     63          1           0        3.057442    4.344915   -1.786869
     64          8           0        4.609656    1.289148   -3.245488
     65          6           0        2.270421    4.518096   -3.790410
     66          1           0        1.200675    4.418278   -3.565879
     67          1           0        2.491151    5.594122   -3.766546
     68          6           0        2.496704    3.998521   -5.217377
     69          1           0        2.383730    2.913317   -5.272321
     70          1           0        1.754552    4.433896   -5.896713
     71          7           0        3.823887    4.325585   -5.759755
     72          1           0        4.004762    5.300095   -5.962223
     73          7           0        4.848708    2.235058   -5.584729
     74          1           0        5.533806    1.609395   -5.991725
     75          1           0        4.554625    1.929373   -4.559005
     76          7           0        5.774681    3.918315   -6.914172
     77          1           0        6.613465    3.375730   -7.058591
     78          1           0        5.562558    4.622070   -7.606673
     79          6           0        4.810113    3.462149   -6.070862
     80          8           0        3.879054    0.692025   -1.211587
 ---------------------------------------------------------------------

 SCF Done:  E(RB3LYP) =  -1866.60571089     A.U. after    3 cycles

 Alpha  occ. eigenvalues --  -19.25458 -19.20603 -19.18733 -19.16696 -19.14953
 Alpha  occ. eigenvalues --  -19.14270 -14.57789 -14.48160 -14.47744 -14.47701
 Alpha  occ. eigenvalues --  -14.44510 -14.44049 -14.42025 -14.39709 -10.43086
 Alpha  occ. eigenvalues --  -10.42384 -10.39463 -10.37732 -10.35614 -10.34304
 Alpha  occ. eigenvalues --  -10.32999 -10.32635 -10.32626 -10.31868 -10.31061
 Alpha  occ. eigenvalues --  -10.29902 -10.28854 -10.27992 -10.27969 -10.27278
 Alpha  occ. eigenvalues --  -10.27230 -10.27225 -10.26835 -10.26525 -10.26523
 Alpha  occ. eigenvalues --  -10.25833 -10.25547 -10.24477 -10.24119  -1.17842
 Alpha  occ. eigenvalues --   -1.12690  -1.11970  -1.11500  -1.10428  -1.08214
 Alpha  occ. eigenvalues --   -1.07858  -1.04727  -1.01414  -1.00950  -0.99921
 Alpha  occ. eigenvalues --   -0.98624  -0.98168  -0.95181  -0.94785  -0.91426
 Alpha  occ. eigenvalues --   -0.89199  -0.87633  -0.85589  -0.84765  -0.83098
 Alpha  occ. eigenvalues --   -0.82613  -0.81103  -0.77932  -0.76120  -0.75349
 Alpha  occ. eigenvalues --   -0.74760  -0.73465  -0.72802  -0.72676  -0.71356
 Alpha  occ. eigenvalues --   -0.69907  -0.68880  -0.68740  -0.67664  -0.67312
 Alpha  occ. eigenvalues --   -0.66957  -0.65571  -0.65198  -0.64327  -0.63922
 Alpha  occ. eigenvalues --   -0.63306  -0.61689  -0.61502  -0.60424  -0.59302
 Alpha  occ. eigenvalues --   -0.59103  -0.58300  -0.58154  -0.57806  -0.56581
 Alpha  occ. eigenvalues --   -0.56359  -0.55553  -0.55402  -0.55158  -0.54683
 Alpha  occ. eigenvalues --   -0.54303  -0.53913  -0.53104  -0.52431  -0.52100
 Alpha  occ. eigenvalues --   -0.51488  -0.50751  -0.50599  -0.50240  -0.50159
 Alpha  occ. eigenvalues --   -0.50069  -0.49761  -0.49477  -0.49200  -0.48482
 Alpha  occ. eigenvalues --   -0.48252  -0.47207  -0.46905  -0.46625  -0.45663
 Alpha  occ. eigenvalues --   -0.45257  -0.45026  -0.44973  -0.44789  -0.44485
 Alpha  occ. eigenvalues --   -0.44149  -0.43879  -0.43738  -0.42857  -0.42539
 Alpha  occ. eigenvalues --   -0.42265  -0.41787  -0.41694  -0.41081  -0.40307
 Alpha  occ. eigenvalues --   -0.39994  -0.39904  -0.39646  -0.38237  -0.37626
 Alpha  occ. eigenvalues --   -0.35848  -0.34844  -0.34203  -0.33965  -0.33861
 Alpha  occ. eigenvalues --   -0.33724  -0.32615  -0.31839  -0.30611  -0.30000
 Alpha  occ. eigenvalues --   -0.29010  -0.28293
 Alpha virt. eigenvalues --   -0.11520  -0.10060  -0.10028  -0.08040  -0.07221
 Alpha virt. eigenvalues --   -0.06864  -0.04721  -0.04446  -0.02975  -0.02744
 Alpha virt. eigenvalues --   -0.01933  -0.00556  -0.00252   0.00057   0.00229

 Mulliken charges:
               1
     1  N   -0.756097
     2  H    0.406680
     3  H    0.431446
     4  H    0.402802
     5  C   -0.113933
     6  H    0.224247
     7  C    0.654243
     8  C   -0.391250
     9  H    0.185018
    10  H    0.201757
    11  O   -0.535862
    12  C    0.138224
    13  C   -0.243353
    14  H    0.131399
    15  C   -0.215387
    16  H    0.191167
    17  C   -0.119365
    18  H    0.155349
    19  C   -0.149730
    20  H    0.222265
    21  C   -0.131166
    22  H    0.161716
    23  N   -0.590847
    24  H    0.365372
    25  C   -0.100923
    26  H    0.198264
    27  C    0.630185
    28  C   -0.251778
    29  H    0.150833
    30  H    0.151059
    31  O   -0.538901
    32  C   -0.100082
    33  H    0.151600
    34  C   -0.451752
    35  H    0.148786
    36  H    0.166068
    37  H    0.136761
    38  C   -0.446446
    39  H    0.146728
    40  H    0.148145
    41  H    0.155768
    42  N   -0.596987
    43  H    0.364704
    44  C   -0.077821
    45  H    0.208970
    46  C    0.612558
    47  C   -0.365407
    48  H    0.174588
    49  H    0.197543
    50  O   -0.540379
    51  C    0.552180
    52  N   -0.783530
    53  H    0.337218
    54  H    0.414622
    55  O   -0.502892
    56  N   -0.593947
    57  H    0.342750
    58  C   -0.093986
    59  H    0.181783
    60  C    0.617172
    61  C   -0.277912
    62  H    0.157483
    63  H    0.153063
    64  O   -0.611228
    65  C   -0.271363
    66  H    0.167957
    67  H    0.140069
    68  C   -0.160391
    69  H    0.198326
    70  H    0.173492
    71  N   -0.591803
    72  H    0.348125
    73  N   -0.764438
    74  H    0.347463
    75  H    0.445863
    76  N   -0.763342
    77  H    0.368682
    78  H    0.363164
    79  C    0.769754
    80  O   -0.561108
 Sum of Mulliken charges =   1.00000

 Dipole moment (field-independent basis, Debye):
    X=             -9.8069    Y=              4.9748    Z=             -4.0482  Tot=             11.7180
 Quadrupole moment (field-independent basis, Debye-Ang):
   XX=            -68.3604   YY=           -158.4979   ZZ=            -60.0489
   XY=             84.8463   XZ=           -145.1171   YZ=           -108.8334

 Normal termination of Gaussian 16 at Sun Jun 19 01:47:25 2022.
