 Gaussian 16, Revision C.01,
 Gaussian 16:  ES64L-G16RevC.01  3-Jul-2019

 -------------------------------------------------------------------
 # B3LYP/6-31G* guess=read geom=check nosymm integral(ultrafinegrid)
 -------------------------------------------------------------------

 ------------------------------------------------------
 Candidate Structure: Conf:156 Charge calc in gas phase
 ------------------------------------------------------
 Structure from the checkpoint file:  "conf-156.chk"
 Charge =  1 Multiplicity = 1

                          Input orientation:
 ---------------------------------------------------------------------
 Center     Atomic      Atomic             Coordinates (Angstroms)
 Number     Number       Type             X           Y           Z
 ---------------------------------------------------------------------
      1          7           0       -5.648818   -1.196430    4.050385
      2          1           0       -6.487747   -0.620698    4.163541
      3          1           0       -5.611247   -1.563846    3.043609
      4          1           0       -5.680446   -1.960505    4.731075
      5          6           0       -4.357603   -0.398989    4.107076
      6          1           0       -4.572242    0.573399    4.554577
      7          6           0       -3.998326   -0.271417    2.598014
      8          6           0       -3.310942   -1.168741    4.944601
      9          1           0       -3.112930   -2.131515    4.457733
     10          1           0       -3.762815   -1.382291    5.923932
     11          8           0       -4.590460   -1.041967    1.817675
     12          6           0       -2.015852   -0.404732    5.136428
     13          6           0       -0.835951   -0.838133    4.520272
     14          1           0       -0.846351   -1.730598    3.898957
     15          6           0       -1.982208    0.740050    5.946369
     16          1           0       -2.884021    1.076778    6.455378
     17          6           0        0.357915   -0.140586    4.709779
     18          1           0        1.268709   -0.493407    4.235208
     19          6           0       -0.791405    1.442513    6.128124
     20          1           0       -0.776971    2.325675    6.759745
     21          6           0        0.380960    1.002078    5.510181
     22          1           0        1.310000    1.544211    5.658538
     23          7           0       -3.099340    0.635430    2.258724
     24          1           0       -2.619216    1.223987    2.944535
     25          6           0       -2.616349    0.857441    0.888947
     26          1           0       -2.447012   -0.116639    0.421539
     27          6           0       -1.287707    1.618628    1.088480
     28          6           0       -3.651664    1.672223    0.074162
     29          1           0       -4.617382    1.161323    0.179479
     30          1           0       -3.750145    2.654953    0.553140
     31          8           0       -1.118959    2.279813    2.119526
     32          6           0       -3.353939    1.853751   -1.428980
     33          1           0       -2.375080    2.339825   -1.535173
     34          6           0       -3.314170    0.517852   -2.188250
     35          1           0       -4.263765   -0.022210   -2.082981
     36          1           0       -3.143489    0.688725   -3.256246
     37          1           0       -2.514121   -0.147515   -1.842174
     38          6           0       -4.405819    2.791254   -2.042814
     39          1           0       -5.411554    2.357793   -1.969786
     40          1           0       -4.421241    3.764092   -1.537860
     41          1           0       -4.197414    2.967401   -3.103516
     42          7           0       -0.390911    1.519275    0.098872
     43          1           0       -0.533987    0.940093   -0.727901
     44          6           0        0.901579    2.188583    0.098093
     45          1           0        0.760293    3.229537    0.407115
     46          6           0        1.400536    2.122024   -1.364171
     47          6           0        1.890463    1.481809    1.073639
     48          1           0        1.545269    1.671437    2.095964
     49          1           0        1.859114    0.407360    0.879721
     50          8           0        0.968962    1.242988   -2.116740
     51          6           0        3.341888    1.920719    0.864362
     52          7           0        3.670022    3.161945    1.348197
     53          1           0        4.457044    3.614423    0.891340
     54          1           0        2.946844    3.781369    1.688699
     55          8           0        4.138589    1.210267    0.272835
     56          7           0        2.306735    3.054356   -1.693171
     57          1           0        2.679566    3.700886   -0.994718
     58          6           0        3.228875    2.956600   -2.822014
     59          1           0        3.508894    1.905097   -2.952326
     60          6           0        4.502510    3.757215   -2.378903
     61          6           0        2.546432    3.461757   -4.130328
     62          1           0        2.571501    4.559655   -4.157738
     63          1           0        1.493973    3.183376   -4.029122
     64          8           0        5.522375    3.639252   -3.137078
     65          6           0        3.052422    2.867943   -5.473122
     66          1           0        3.615490    1.943804   -5.290618
     67          1           0        2.189831    2.574206   -6.081899
     68          6           0        3.904731    3.798202   -6.349970
     69          1           0        4.124920    3.297147   -7.302597
     70          1           0        3.354069    4.720994   -6.577834
     71          7           0        5.144450    4.123890   -5.646818
     72          1           0        5.278418    3.654782   -4.711774
     73          7           0        5.736937    6.046353   -6.833342
     74          1           0        6.241953    6.918687   -6.878343
     75          1           0        5.440115    5.644438   -7.709893
     76          7           0        6.573136    5.635394   -4.686955
     77          1           0        7.319750    6.306872   -4.781568
     78          1           0        6.463842    5.079457   -3.821103
     79          6           0        5.824869    5.260151   -5.733224
     80          8           0        4.424306    4.439707   -1.342365
 ---------------------------------------------------------------------

 SCF Done:  E(RB3LYP) =  -1866.59856057     A.U. after    1 cycles

 Alpha  occ. eigenvalues --  -19.26279 -19.20665 -19.17715 -19.15829 -19.14730
 Alpha  occ. eigenvalues --  -19.13977 -14.59588 -14.48689 -14.46521 -14.44361
 Alpha  occ. eigenvalues --  -14.44002 -14.42964 -14.40374 -14.39896 -10.42933
 Alpha  occ. eigenvalues --  -10.41141 -10.40541 -10.37811 -10.34655 -10.33915
 Alpha  occ. eigenvalues --  -10.33697 -10.33523 -10.32282 -10.31101 -10.30546
 Alpha  occ. eigenvalues --  -10.30163 -10.29097 -10.28829 -10.28371 -10.28201
 Alpha  occ. eigenvalues --  -10.28084 -10.27574 -10.27087 -10.26805 -10.25794
 Alpha  occ. eigenvalues --  -10.25577 -10.24597 -10.24477 -10.24383  -1.18732
 Alpha  occ. eigenvalues --   -1.13397  -1.12579  -1.09891  -1.09431  -1.07686
 Alpha  occ. eigenvalues --   -1.07494  -1.05219  -1.00839  -0.99901  -0.98647
 Alpha  occ. eigenvalues --   -0.97852  -0.97031  -0.96243  -0.94769  -0.92395
 Alpha  occ. eigenvalues --   -0.89605  -0.86106  -0.85656  -0.84825  -0.84024
 Alpha  occ. eigenvalues --   -0.82939  -0.79708  -0.79234  -0.75912  -0.75329
 Alpha  occ. eigenvalues --   -0.74904  -0.73565  -0.73252  -0.72713  -0.71641
 Alpha  occ. eigenvalues --   -0.70332  -0.69667  -0.68006  -0.67550  -0.66775
 Alpha  occ. eigenvalues --   -0.66124  -0.65796  -0.64165  -0.63657  -0.63322
 Alpha  occ. eigenvalues --   -0.62694  -0.62548  -0.60885  -0.60710  -0.58903
 Alpha  occ. eigenvalues --   -0.58711  -0.58343  -0.58140  -0.57577  -0.56750
 Alpha  occ. eigenvalues --   -0.56370  -0.55391  -0.55338  -0.54715  -0.54371
 Alpha  occ. eigenvalues --   -0.54040  -0.53593  -0.52929  -0.52415  -0.52101
 Alpha  occ. eigenvalues --   -0.51573  -0.51288  -0.51146  -0.50664  -0.50570
 Alpha  occ. eigenvalues --   -0.49965  -0.49609  -0.49474  -0.49080  -0.48936
 Alpha  occ. eigenvalues --   -0.47321  -0.46806  -0.46125  -0.45683  -0.45522
 Alpha  occ. eigenvalues --   -0.45486  -0.45323  -0.45184  -0.44485  -0.44173
 Alpha  occ. eigenvalues --   -0.44110  -0.43862  -0.43735  -0.43070  -0.42078
 Alpha  occ. eigenvalues --   -0.41848  -0.41480  -0.41027  -0.40808  -0.40438
 Alpha  occ. eigenvalues --   -0.40234  -0.39916  -0.39141  -0.37803  -0.37009
 Alpha  occ. eigenvalues --   -0.35071  -0.34535  -0.34390  -0.33985  -0.33789
 Alpha  occ. eigenvalues --   -0.32081  -0.31588  -0.31215  -0.29771  -0.29247
 Alpha  occ. eigenvalues --   -0.29059  -0.28245
 Alpha virt. eigenvalues --   -0.12016  -0.10852  -0.10588  -0.09783  -0.06845
 Alpha virt. eigenvalues --   -0.05849  -0.05740  -0.03854  -0.02621  -0.02541
 Alpha virt. eigenvalues --   -0.02492  -0.01227  -0.00616   0.00081   0.00324

 Mulliken charges:
               1
     1  N   -0.760400
     2  H    0.415032
     3  H    0.434820
     4  H    0.411704
     5  C   -0.107747
     6  H    0.215544
     7  C    0.657432
     8  C   -0.382062
     9  H    0.186394
    10  H    0.181207
    11  O   -0.553110
    12  C    0.149446
    13  C   -0.180042
    14  H    0.143287
    15  C   -0.190540
    16  H    0.128277
    17  C   -0.121798
    18  H    0.164265
    19  C   -0.117214
    20  H    0.158618
    21  C   -0.116311
    22  H    0.162362
    23  N   -0.606310
    24  H    0.383939
    25  C   -0.060107
    26  H    0.186487
    27  C    0.628721
    28  C   -0.259174
    29  H    0.155119
    30  H    0.151874
    31  O   -0.552523
    32  C   -0.091795
    33  H    0.144520
    34  C   -0.453299
    35  H    0.149539
    36  H    0.165637
    37  H    0.142424
    38  C   -0.446355
    39  H    0.144468
    40  H    0.148362
    41  H    0.158428
    42  N   -0.623296
    43  H    0.369263
    44  C   -0.048554
    45  H    0.170832
    46  C    0.618494
    47  C   -0.354235
    48  H    0.174815
    49  H    0.176435
    50  O   -0.557398
    51  C    0.557452
    52  N   -0.735653
    53  H    0.375216
    54  H    0.325297
    55  O   -0.485544
    56  N   -0.617376
    57  H    0.357777
    58  C   -0.057872
    59  H    0.183147
    60  C    0.614526
    61  C   -0.274312
    62  H    0.141226
    63  H    0.171769
    64  O   -0.628973
    65  C   -0.305332
    66  H    0.172079
    67  H    0.158984
    68  C   -0.144398
    69  H    0.159953
    70  H    0.160529
    71  N   -0.612885
    72  H    0.418564
    73  N   -0.757343
    74  H    0.362990
    75  H    0.370576
    76  N   -0.779108
    77  H    0.349530
    78  H    0.417017
    79  C    0.771585
    80  O   -0.564886
 Sum of Mulliken charges =   1.00000

 Dipole moment (field-independent basis, Debye):
    X=            -12.5100    Y=              8.7052    Z=              3.8857  Tot=             15.7283
 Quadrupole moment (field-independent basis, Debye-Ang):
   XX=            -83.4475   YY=           -148.6067   ZZ=            -44.9372
   XY=             80.1853   XZ=           -152.6076   YZ=            -93.1758

 Normal termination of Gaussian 16 at Sun Jun 19 01:46:49 2022.
