 Gaussian 16, Revision C.01,
 Gaussian 16:  ES64L-G16RevC.01  3-Jul-2019

 -------------------------------------------------------------------
 # B3LYP/6-31G* guess=read geom=check nosymm integral(ultrafinegrid)
 -------------------------------------------------------------------

 ------------------------------------------------------
 Candidate Structure: Conf:472 Charge calc in gas phase
 ------------------------------------------------------
 Structure from the checkpoint file:  "conf-472.chk"
 Charge =  1 Multiplicity = 1

                          Input orientation:
 ---------------------------------------------------------------------
 Center     Atomic      Atomic             Coordinates (Angstroms)
 Number     Number       Type             X           Y           Z
 ---------------------------------------------------------------------
      1          7           0       -6.276917    0.395283    3.771654
      2          1           0       -7.053387    0.786317    3.231800
      3          1           0       -6.029171   -0.553740    3.364555
      4          1           0       -6.551795    0.354563    4.763772
      5          6           0       -4.986220    1.157983    3.584972
      6          1           0       -5.229898    2.160508    3.227669
      7          6           0       -4.238057    0.312266    2.518619
      8          6           0       -4.213576    1.223152    4.925346
      9          1           0       -3.332170    1.850627    4.755610
     10          1           0       -3.844152    0.218563    5.163856
     11          8           0       -4.653979   -0.842951    2.324149
     12          6           0       -5.062972    1.759056    6.059111
     13          6           0       -5.326406    3.132288    6.175372
     14          1           0       -4.867843    3.832453    5.480125
     15          6           0       -5.647664    0.876477    6.981806
     16          1           0       -5.413060   -0.186300    6.937463
     17          6           0       -6.153574    3.610441    7.190414
     18          1           0       -6.338444    4.677138    7.277019
     19          6           0       -6.481695    1.356528    7.997198
     20          1           0       -6.915252    0.663183    8.711831
     21          6           0       -6.736900    2.723219    8.100303
     22          1           0       -7.377763    3.099546    8.891914
     23          7           0       -3.196830    0.886465    1.941139
     24          1           0       -2.889677    1.840089    2.156650
     25          6           0       -2.298894    0.253010    0.967555
     26          1           0       -2.089809   -0.767782    1.299501
     27          6           0       -1.030187    1.131949    1.034575
     28          6           0       -2.948350    0.243422   -0.439924
     29          1           0       -3.954028   -0.181378   -0.318933
     30          1           0       -3.069143    1.287366   -0.755373
     31          8           0       -1.116141    2.284884    1.475232
     32          6           0       -2.209196   -0.543448   -1.542077
     33          1           0       -1.209221   -0.113091   -1.663721
     34          6           0       -2.075764   -2.038573   -1.213821
     35          1           0       -3.060932   -2.498022   -1.057721
     36          1           0       -1.584235   -2.566263   -2.037503
     37          1           0       -1.469265   -2.227981   -0.320897
     38          6           0       -2.951586   -0.347516   -2.873514
     39          1           0       -3.974158   -0.745124   -2.822586
     40          1           0       -3.011820    0.713005   -3.143496
     41          1           0       -2.432797   -0.869392   -3.684883
     42          7           0        0.110191    0.562096    0.620571
     43          1           0        0.118747   -0.364792    0.188851
     44          6           0        1.312690    1.338520    0.378138
     45          1           0        1.465187    2.019137    1.222340
     46          6           0        1.164394    2.187215   -0.916644
     47          6           0        2.521382    0.375422    0.270988
     48          1           0        3.444041    0.940142    0.123517
     49          1           0        2.608091   -0.176184    1.213271
     50          8           0        0.218060    2.047845   -1.679635
     51          6           0        2.324701   -0.653820   -0.844934
     52          7           0        3.233110   -0.624843   -1.839931
     53          1           0        3.075931   -1.245253   -2.624063
     54          1           0        3.853847    0.178036   -1.969523
     55          8           0        1.383255   -1.456607   -0.798259
     56          7           0        2.188333    3.072287   -1.114966
     57          1           0        3.024924    2.895959   -0.567624
     58          6           0        2.534716    3.524444   -2.463984
     59          1           0        1.677383    3.291089   -3.100804
     60          6           0        3.760129    2.685026   -2.950048
     61          6           0        2.770262    5.065549   -2.461932
     62          1           0        3.793909    5.284056   -2.126106
     63          1           0        2.111979    5.454910   -1.679567
     64          8           0        4.022998    2.742306   -4.196574
     65          6           0        2.458604    5.840859   -3.771692
     66          1           0        1.812544    5.239956   -4.424281
     67          1           0        1.880269    6.738634   -3.525582
     68          6           0        3.671126    6.320017   -4.584685
     69          1           0        3.323092    6.930402   -5.428890
     70          1           0        4.322618    6.949092   -3.963514
     71          7           0        4.422610    5.162361   -5.070294
     72          1           0        3.999094    4.225268   -4.864047
     73          7           0        6.477281    6.205060   -5.447049
     74          1           0        7.480594    6.146319   -5.536474
     75          1           0        6.033457    7.037126   -5.805761
     76          7           0        6.327744    3.891267   -5.139399
     77          1           0        7.258310    3.725036   -5.490876
     78          1           0        5.742126    3.114344   -4.788717
     79          6           0        5.740084    5.090688   -5.230469
     80          8           0        4.389123    2.024694   -2.096646
 ---------------------------------------------------------------------

 SCF Done:  E(RB3LYP) =  -1866.62067786     A.U. after    3 cycles

 Alpha  occ. eigenvalues --  -19.24672 -19.19257 -19.17330 -19.16779 -19.15992
 Alpha  occ. eigenvalues --  -19.15203 -14.58065 -14.47344 -14.47208 -14.44933
 Alpha  occ. eigenvalues --  -14.44020 -14.42261 -14.40535 -14.39954 -10.42085
 Alpha  occ. eigenvalues --  -10.41493 -10.39247 -10.36146 -10.34404 -10.34146
 Alpha  occ. eigenvalues --  -10.33395 -10.32951 -10.31752 -10.31399 -10.31040
 Alpha  occ. eigenvalues --  -10.30181 -10.30175 -10.29838 -10.29568 -10.29470
 Alpha  occ. eigenvalues --  -10.29215 -10.27661 -10.26532 -10.26033 -10.25451
 Alpha  occ. eigenvalues --  -10.25409 -10.23899 -10.22048 -10.22033  -1.17142
 Alpha  occ. eigenvalues --   -1.12097  -1.11165  -1.10818  -1.09214  -1.08447
 Alpha  occ. eigenvalues --   -1.08204  -1.03794  -1.00776  -0.99533  -0.99315
 Alpha  occ. eigenvalues --   -0.98783  -0.97235  -0.96790  -0.95081  -0.91982
 Alpha  occ. eigenvalues --   -0.87893  -0.86513  -0.85565  -0.85080  -0.84523
 Alpha  occ. eigenvalues --   -0.81686  -0.80306  -0.78201  -0.75000  -0.73719
 Alpha  occ. eigenvalues --   -0.72991  -0.72865  -0.72388  -0.72147  -0.71843
 Alpha  occ. eigenvalues --   -0.70778  -0.69323  -0.68818  -0.67911  -0.66828
 Alpha  occ. eigenvalues --   -0.65967  -0.64636  -0.64440  -0.63547  -0.62781
 Alpha  occ. eigenvalues --   -0.61900  -0.61726  -0.61133  -0.60203  -0.59602
 Alpha  occ. eigenvalues --   -0.59027  -0.58421  -0.57243  -0.56958  -0.56221
 Alpha  occ. eigenvalues --   -0.56107  -0.55316  -0.55204  -0.55027  -0.54552
 Alpha  occ. eigenvalues --   -0.53752  -0.53355  -0.52603  -0.52544  -0.51706
 Alpha  occ. eigenvalues --   -0.51619  -0.50937  -0.50674  -0.50319  -0.49821
 Alpha  occ. eigenvalues --   -0.49539  -0.49360  -0.48879  -0.48554  -0.47611
 Alpha  occ. eigenvalues --   -0.47319  -0.46845  -0.46644  -0.46370  -0.45892
 Alpha  occ. eigenvalues --   -0.45121  -0.44963  -0.44743  -0.44685  -0.44244
 Alpha  occ. eigenvalues --   -0.43709  -0.43201  -0.43110  -0.42834  -0.42096
 Alpha  occ. eigenvalues --   -0.41712  -0.41310  -0.41236  -0.39841  -0.39603
 Alpha  occ. eigenvalues --   -0.39112  -0.37952  -0.37850  -0.37341  -0.35940
 Alpha  occ. eigenvalues --   -0.35910  -0.35406  -0.34712  -0.33722  -0.33339
 Alpha  occ. eigenvalues --   -0.32864  -0.32030  -0.31111  -0.30777  -0.30319
 Alpha  occ. eigenvalues --   -0.29247  -0.29057
 Alpha virt. eigenvalues --   -0.11979  -0.11526  -0.09448  -0.08662  -0.06663
 Alpha virt. eigenvalues --   -0.04953  -0.03724  -0.03332  -0.03281  -0.03016
 Alpha virt. eigenvalues --   -0.01525  -0.01485  -0.00763   0.00217   0.00487

 Mulliken charges:
               1
     1  N   -0.752928
     2  H    0.412618
     3  H    0.426916
     4  H    0.402297
     5  C   -0.110564
     6  H    0.210112
     7  C    0.661093
     8  C   -0.384398
     9  H    0.210012
    10  H    0.193431
    11  O   -0.549525
    12  C    0.139620
    13  C   -0.181703
    14  H    0.146864
    15  C   -0.228634
    16  H    0.150587
    17  C   -0.122794
    18  H    0.165211
    19  C   -0.120727
    20  H    0.165411
    21  C   -0.124303
    22  H    0.166725
    23  N   -0.612008
    24  H    0.368792
    25  C   -0.075909
    26  H    0.188476
    27  C    0.643232
    28  C   -0.254297
    29  H    0.146312
    30  H    0.154703
    31  O   -0.560536
    32  C   -0.101975
    33  H    0.177700
    34  C   -0.449447
    35  H    0.135765
    36  H    0.163164
    37  H    0.145605
    38  C   -0.446649
    39  H    0.133330
    40  H    0.150010
    41  H    0.153709
    42  N   -0.620589
    43  H    0.397748
    44  C   -0.087813
    45  H    0.186268
    46  C    0.620802
    47  C   -0.388199
    48  H    0.184104
    49  H    0.186886
    50  O   -0.512387
    51  C    0.596006
    52  N   -0.759618
    53  H    0.341487
    54  H    0.403858
    55  O   -0.542423
    56  N   -0.581376
    57  H    0.335357
    58  C   -0.085150
    59  H    0.190111
    60  C    0.600398
    61  C   -0.279893
    62  H    0.141911
    63  H    0.171682
    64  O   -0.617127
    65  C   -0.305408
    66  H    0.171293
    67  H    0.161789
    68  C   -0.146330
    69  H    0.163426
    70  H    0.163144
    71  N   -0.612991
    72  H    0.414201
    73  N   -0.757418
    74  H    0.365504
    75  H    0.372700
    76  N   -0.778847
    77  H    0.352112
    78  H    0.416046
    79  C    0.776226
    80  O   -0.572788
 Sum of Mulliken charges =   1.00000

 Dipole moment (field-independent basis, Debye):
    X=             -8.0237    Y=             17.2240    Z=              5.8589  Tot=             19.8840
 Quadrupole moment (field-independent basis, Debye-Ang):
   XX=              2.7732   YY=           -132.9103   ZZ=            -76.8120
   XY=             54.6257   XZ=           -178.9595   YZ=            -50.1775

 Normal termination of Gaussian 16 at Sun Jun 19 01:47:20 2022.
