 Gaussian 16, Revision C.01,
 Gaussian 16:  ES64L-G16RevC.01  3-Jul-2019

 -------------------------------------------------------------------
 # B3LYP/6-31G* guess=read geom=check nosymm integral(ultrafinegrid)
 -------------------------------------------------------------------

 ------------------------------------------------------
 Candidate Structure: Conf:771 Charge calc in gas phase
 ------------------------------------------------------
 Structure from the checkpoint file:  "conf-771.chk"
 Charge =  1 Multiplicity = 1

                          Input orientation:
 ---------------------------------------------------------------------
 Center     Atomic      Atomic             Coordinates (Angstroms)
 Number     Number       Type             X           Y           Z
 ---------------------------------------------------------------------
      1          7           0       -6.636308   -0.634749    3.515285
      2          1           0       -7.537566   -0.440044    3.955468
      3          1           0       -6.747020   -1.152616    2.597297
      4          1           0       -6.054047   -1.205292    4.155171
      5          6           0       -5.866939    0.598787    3.103424
      6          1           0       -6.595702    1.408435    2.995119
      7          6           0       -5.373230    0.218983    1.674148
      8          6           0       -4.808568    0.977110    4.169068
      9          1           0       -5.342187    1.405832    5.026265
     10          1           0       -4.194087    1.787945    3.764480
     11          8           0       -5.887088   -0.776795    1.141328
     12          6           0       -3.945852   -0.185899    4.616202
     13          6           0       -4.385487   -1.011878    5.669198
     14          1           0       -5.282667   -0.747440    6.230769
     15          6           0       -2.724782   -0.475401    3.991031
     16          1           0       -2.328293    0.164056    3.206346
     17          6           0       -3.632950   -2.121096    6.066425
     18          1           0       -3.977902   -2.741326    6.888901
     19          6           0       -1.967535   -1.574744    4.399829
     20          1           0       -1.012989   -1.744892    3.913064
     21          6           0       -2.426440   -2.404735    5.425801
     22          1           0       -1.833141   -3.258066    5.741431
     23          7           0       -4.490527    1.033619    1.108052
     24          1           0       -3.964620    1.712299    1.660102
     25          6           0       -3.818080    0.762790   -0.168399
     26          1           0       -3.970707   -0.292038   -0.407399
     27          6           0       -2.330468    1.051191    0.142386
     28          6           0       -4.392700    1.665270   -1.284987
     29          1           0       -5.483402    1.535794   -1.274416
     30          1           0       -4.194499    2.708879   -1.006955
     31          8           0       -2.051982    1.815502    1.073157
     32          6           0       -3.873718    1.404103   -2.714933
     33          1           0       -2.779767    1.501383   -2.719782
     34          6           0       -4.232554   -0.002243   -3.221819
     35          1           0       -5.319732   -0.152881   -3.226206
     36          1           0       -3.870196   -0.145885   -4.245187
     37          1           0       -3.792604   -0.801195   -2.612620
     38          6           0       -4.435605    2.475314   -3.662797
     39          1           0       -5.531404    2.429650   -3.705986
     40          1           0       -4.154416    3.484418   -3.339571
     41          1           0       -4.057171    2.330584   -4.680707
     42          7           0       -1.427325    0.418293   -0.621693
     43          1           0       -1.706604   -0.076188   -1.464027
     44          6           0        0.009861    0.575508   -0.480101
     45          1           0        0.188043    1.485339    0.097984
     46          6           0        0.617351    0.693546   -1.890712
     47          6           0        0.671089   -0.659350    0.230486
     48          1           0       -0.058192   -1.472019    0.265453
     49          1           0        1.537645   -0.996856   -0.344762
     50          8           0        0.000843    0.284936   -2.877491
     51          6           0        1.099196   -0.348114    1.664687
     52          7           0        2.387692    0.039069    1.785908
     53          1           0        2.723302    0.273174    2.710587
     54          1           0        3.040711    0.056700    0.994483
     55          8           0        0.309185   -0.417276    2.608510
     56          7           0        1.875858    1.189096   -1.886830
     57          1           0        2.315509    1.270160   -0.961696
     58          6           0        2.922903    0.703643   -2.787131
     59          1           0        2.526864   -0.145352   -3.356770
     60          6           0        4.111244    0.190949   -1.863715
     61          6           0        3.386424    1.791068   -3.775217
     62          1           0        3.883540    2.593094   -3.209005
     63          1           0        2.497107    2.234717   -4.245968
     64          8           0        5.103333   -0.266234   -2.453892
     65          6           0        4.350746    1.238275   -4.833784
     66          1           0        5.115879    0.654968   -4.306179
     67          1           0        3.813739    0.527472   -5.482636
     68          6           0        5.040224    2.314292   -5.668687
     69          1           0        5.587027    3.007282   -5.023404
     70          1           0        5.769150    1.891478   -6.368379
     71          7           0        4.112785    3.159095   -6.466022
     72          1           0        3.703642    3.958524   -5.999111
     73          7           0        3.830707    1.627089   -8.188640
     74          1           0        3.692233    1.456434   -9.174044
     75          1           0        4.144662    0.858184   -7.613190
     76          7           0        2.917293    3.744337   -8.369562
     77          1           0        2.285837    3.453209   -9.101877
     78          1           0        2.897742    4.717039   -8.099225
     79          6           0        3.617059    2.839118   -7.655917
     80          8           0        3.909186    0.324534   -0.619591
 ---------------------------------------------------------------------

 SCF Done:  E(RB3LYP) =  -1866.56707549     A.U. after    3 cycles

 Alpha  occ. eigenvalues --  -19.24503 -19.19598 -19.17080 -19.14651 -19.11123
 Alpha  occ. eigenvalues --  -19.10015 -14.56904 -14.52025 -14.51871 -14.51606
 Alpha  occ. eigenvalues --  -14.47037 -14.43431 -14.38835 -14.37950 -10.48143
 Alpha  occ. eigenvalues --  -10.41373 -10.38592 -10.36732 -10.33627 -10.33611
 Alpha  occ. eigenvalues --  -10.32443 -10.32233 -10.31753 -10.29470 -10.29135
 Alpha  occ. eigenvalues --  -10.28976 -10.28134 -10.27332 -10.26743 -10.26552
 Alpha  occ. eigenvalues --  -10.26454 -10.26193 -10.25817 -10.25805 -10.25614
 Alpha  occ. eigenvalues --  -10.24811 -10.24251 -10.24219 -10.24050  -1.16873
 Alpha  occ. eigenvalues --   -1.16567  -1.11705  -1.11035  -1.08420  -1.06122
 Alpha  occ. eigenvalues --   -1.05525  -1.04859  -1.03962  -1.03734  -0.99854
 Alpha  occ. eigenvalues --   -0.96809  -0.94869  -0.94414  -0.93010  -0.90642
 Alpha  occ. eigenvalues --   -0.88590  -0.88173  -0.84816  -0.83784  -0.82359
 Alpha  occ. eigenvalues --   -0.82102  -0.81219  -0.78600  -0.77131  -0.75129
 Alpha  occ. eigenvalues --   -0.74642  -0.74185  -0.73809  -0.72501  -0.71975
 Alpha  occ. eigenvalues --   -0.70600  -0.70238  -0.68724  -0.67916  -0.66859
 Alpha  occ. eigenvalues --   -0.66470  -0.65585  -0.65390  -0.64732  -0.64218
 Alpha  occ. eigenvalues --   -0.63375  -0.61939  -0.61489  -0.60713  -0.59215
 Alpha  occ. eigenvalues --   -0.58801  -0.58390  -0.57657  -0.57513  -0.56828
 Alpha  occ. eigenvalues --   -0.55746  -0.55222  -0.54932  -0.54335  -0.53877
 Alpha  occ. eigenvalues --   -0.53417  -0.52952  -0.52303  -0.51739  -0.51511
 Alpha  occ. eigenvalues --   -0.51101  -0.50281  -0.50111  -0.50005  -0.49800
 Alpha  occ. eigenvalues --   -0.49229  -0.48963  -0.48726  -0.48445  -0.47712
 Alpha  occ. eigenvalues --   -0.47663  -0.46254  -0.45431  -0.45203  -0.44918
 Alpha  occ. eigenvalues --   -0.44270  -0.44175  -0.43690  -0.43322  -0.43233
 Alpha  occ. eigenvalues --   -0.43159  -0.42419  -0.42337  -0.42043  -0.41584
 Alpha  occ. eigenvalues --   -0.41435  -0.40997  -0.40811  -0.40052  -0.39933
 Alpha  occ. eigenvalues --   -0.39787  -0.39650  -0.39394  -0.38936  -0.37630
 Alpha  occ. eigenvalues --   -0.36610  -0.33827  -0.33230  -0.32984  -0.32859
 Alpha  occ. eigenvalues --   -0.31323  -0.30526  -0.29726  -0.28424  -0.26290
 Alpha  occ. eigenvalues --   -0.25869  -0.23827
 Alpha virt. eigenvalues --   -0.12260  -0.10562  -0.09305  -0.09233  -0.08176
 Alpha virt. eigenvalues --   -0.06433  -0.05603  -0.04273  -0.03790  -0.03269
 Alpha virt. eigenvalues --   -0.02766  -0.01892  -0.00911  -0.00506   0.00716

 Mulliken charges:
               1
     1  N   -0.757550
     2  H    0.404097
     3  H    0.429867
     4  H    0.401567
     5  C   -0.113081
     6  H    0.220550
     7  C    0.655873
     8  C   -0.389772
     9  H    0.182080
    10  H    0.206705
    11  O   -0.543760
    12  C    0.141106
    13  C   -0.245175
    14  H    0.129921
    15  C   -0.204323
    16  H    0.189463
    17  C   -0.119147
    18  H    0.152832
    19  C   -0.127684
    20  H    0.204097
    21  C   -0.126747
    22  H    0.157935
    23  N   -0.602520
    24  H    0.374047
    25  C   -0.091499
    26  H    0.194172
    27  C    0.639280
    28  C   -0.247626
    29  H    0.149752
    30  H    0.149733
    31  O   -0.545330
    32  C   -0.099838
    33  H    0.152636
    34  C   -0.451563
    35  H    0.148952
    36  H    0.161135
    37  H    0.139536
    38  C   -0.445510
    39  H    0.145750
    40  H    0.146208
    41  H    0.149881
    42  N   -0.600718
    43  H    0.359718
    44  C   -0.068023
    45  H    0.205470
    46  C    0.576539
    47  C   -0.367684
    48  H    0.167326
    49  H    0.191308
    50  O   -0.547748
    51  C    0.571283
    52  N   -0.769345
    53  H    0.333623
    54  H    0.420183
    55  O   -0.535675
    56  N   -0.588245
    57  H    0.346260
    58  C   -0.082260
    59  H    0.155784
    60  C    0.591150
    61  C   -0.258990
    62  H    0.138818
    63  H    0.119412
    64  O   -0.558399
    65  C   -0.293885
    66  H    0.247113
    67  H    0.117219
    68  C   -0.199630
    69  H    0.200193
    70  H    0.181286
    71  N   -0.574605
    72  H    0.367458
    73  N   -0.753814
    74  H    0.382386
    75  H    0.400850
    76  N   -0.763540
    77  H    0.381835
    78  H    0.382201
    79  C    0.819529
    80  O   -0.610432
 Sum of Mulliken charges =   1.00000

 Dipole moment (field-independent basis, Debye):
    X=            -14.6062    Y=             11.2037    Z=            -15.7855  Tot=             24.2497
 Quadrupole moment (field-independent basis, Debye-Ang):
   XX=            -87.1878   YY=           -179.3441   ZZ=             57.7900
   XY=             40.4158   XZ=           -161.6832   YZ=            -97.0969

 Normal termination of Gaussian 16 at Sun Jun 19 01:47:21 2022.
