 Gaussian 16, Revision C.01,
 Gaussian 16:  ES64L-G16RevC.01  3-Jul-2019

 -------------------------------------------------------------------
 # B3LYP/6-31G* guess=read geom=check nosymm integral(ultrafinegrid)
 -------------------------------------------------------------------

 ------------------------------------------------------
 Candidate Structure: Conf:879 Charge calc in gas phase
 ------------------------------------------------------
 Structure from the checkpoint file:  "conf-879.chk"
 Charge =  1 Multiplicity = 1

                          Input orientation:
 ---------------------------------------------------------------------
 Center     Atomic      Atomic             Coordinates (Angstroms)
 Number     Number       Type             X           Y           Z
 ---------------------------------------------------------------------
      1          7           0       -1.409003   -1.808547    3.369741
      2          1           0       -1.086091   -2.407058    2.597406
      3          1           0       -0.749726   -0.981983    3.439463
      4          1           0       -1.429164   -2.310476    4.263066
      5          6           0       -2.779237   -1.293505    2.990976
      6          1           0       -3.428850   -2.173086    2.930103
      7          6           0       -2.542296   -0.772951    1.554210
      8          6           0       -3.301726   -0.320841    4.060103
      9          1           0       -4.317297   -0.029169    3.766371
     10          1           0       -2.675175    0.577010    4.062413
     11          8           0       -1.819841   -1.453830    0.825163
     12          6           0       -3.324573   -0.946533    5.443428
     13          6           0       -4.391874   -1.762357    5.844966
     14          1           0       -5.237469   -1.915287    5.177320
     15          6           0       -2.252580   -0.745481    6.326911
     16          1           0       -1.429306   -0.098010    6.031114
     17          6           0       -4.389268   -2.364023    7.103494
     18          1           0       -5.227305   -2.985235    7.405788
     19          6           0       -2.249959   -1.350200    7.586489
     20          1           0       -1.419450   -1.178405    8.265226
     21          6           0       -3.317310   -2.160536    7.975911
     22          1           0       -3.318743   -2.625498    8.957277
     23          7           0       -3.109246    0.395836    1.197956
     24          1           0       -3.529171    0.968763    1.919772
     25          6           0       -2.633375    1.130545    0.006776
     26          1           0       -2.441971    0.379652   -0.761178
     27          6           0       -1.320839    1.812218    0.458969
     28          6           0       -3.688579    2.140489   -0.447674
     29          1           0       -4.631522    1.601243   -0.608825
     30          1           0       -3.848675    2.853006    0.371656
     31          8           0       -1.341312    2.827750    1.153386
     32          6           0       -3.320206    2.928822   -1.721668
     33          1           0       -2.368573    3.445263   -1.530881
     34          6           0       -3.143338    2.021855   -2.949613
     35          1           0       -4.059388    1.452752   -3.153899
     36          1           0       -2.921716    2.620001   -3.840196
     37          1           0       -2.322200    1.305275   -2.831202
     38          6           0       -4.385957    4.002428   -1.988492
     39          1           0       -5.365066    3.546159   -2.182754
     40          1           0       -4.494191    4.680725   -1.134386
     41          1           0       -4.122286    4.605291   -2.864227
     42          7           0       -0.185695    1.151953    0.131401
     43          1           0       -0.190855    0.322144   -0.456370
     44          6           0        1.131650    1.584852    0.544004
     45          1           0        1.142865    2.678344    0.586304
     46          6           0        2.129292    1.054049   -0.515005
     47          6           0        1.554402    0.994377    1.925111
     48          1           0        1.558873   -0.095781    1.845418
     49          1           0        2.578601    1.319273    2.143455
     50          8           0        1.834296    0.057067   -1.176439
     51          6           0        0.649832    1.376794    3.084484
     52          7           0        0.819418    2.605791    3.602115
     53          1           0        0.144397    2.940251    4.277668
     54          1           0        1.379330    3.300902    3.128563
     55          8           0       -0.185295    0.591938    3.575888
     56          7           0        3.286458    1.726998   -0.589578
     57          1           0        3.527706    2.479730    0.059966
     58          6           0        4.483464    1.256718   -1.282096
     59          1           0        4.611002    0.185081   -1.088528
     60          6           0        5.677397    2.027792   -0.639069
     61          6           0        4.398432    1.443051   -2.815183
     62          1           0        3.495422    0.925426   -3.152018
     63          1           0        5.240204    0.895246   -3.255813
     64          8           0        6.827917    1.723072   -1.100081
     65          6           0        4.385294    2.916616   -3.306350
     66          1           0        3.503204    3.096288   -3.932168
     67          1           0        4.302954    3.600905   -2.452681
     68          6           0        5.615214    3.318047   -4.143293
     69          1           0        5.684091    2.692479   -5.040688
     70          1           0        5.520040    4.357267   -4.471712
     71          7           0        6.859986    3.165117   -3.375995
     72          1           0        6.879240    2.335437   -2.755244
     73          7           0        7.680726    5.353759   -3.501571
     74          1           0        8.234970    6.095196   -3.099073
     75          1           0        7.559872    5.380057   -4.503457
     76          7           0        8.203746    3.958610   -1.696731
     77          1           0        8.898316    4.599527   -1.343546
     78          1           0        7.871810    3.141677   -1.133928
     79          6           0        7.584845    4.163939   -2.857447
     80          8           0        5.410475    2.892141    0.216576
 ---------------------------------------------------------------------

 SCF Done:  E(RB3LYP) =  -1866.63243931     A.U. after    1 cycles

 Alpha  occ. eigenvalues --  -19.24396 -19.23901 -19.20272 -19.19179 -19.15512
 Alpha  occ. eigenvalues --  -19.15274 -14.55809 -14.48057 -14.47221 -14.46944
 Alpha  occ. eigenvalues --  -14.44711 -14.44695 -14.44460 -14.42288 -10.42137
 Alpha  occ. eigenvalues --  -10.41292 -10.41244 -10.38075 -10.37563 -10.36362
 Alpha  occ. eigenvalues --  -10.33207 -10.33200 -10.32728 -10.31788 -10.31066
 Alpha  occ. eigenvalues --  -10.30244 -10.30232 -10.28827 -10.28795 -10.28464
 Alpha  occ. eigenvalues --  -10.28378 -10.28299 -10.28181 -10.26797 -10.26361
 Alpha  occ. eigenvalues --  -10.26225 -10.25235 -10.24231 -10.23824  -1.16434
 Alpha  occ. eigenvalues --   -1.15202  -1.12391  -1.10932  -1.10760  -1.10502
 Alpha  occ. eigenvalues --   -1.08598  -1.04225  -1.02008  -1.01208  -1.00809
 Alpha  occ. eigenvalues --   -0.99838  -0.98609  -0.98524  -0.95660  -0.91145
 Alpha  occ. eigenvalues --   -0.89090  -0.87969  -0.86232  -0.84979  -0.83994
 Alpha  occ. eigenvalues --   -0.82542  -0.81323  -0.78256  -0.77531  -0.75101
 Alpha  occ. eigenvalues --   -0.74583  -0.73004  -0.72313  -0.72065  -0.70725
 Alpha  occ. eigenvalues --   -0.70230  -0.69637  -0.68766  -0.68512  -0.67763
 Alpha  occ. eigenvalues --   -0.67456  -0.67259  -0.65204  -0.64751  -0.64094
 Alpha  occ. eigenvalues --   -0.63478  -0.63179  -0.61529  -0.60930  -0.60579
 Alpha  occ. eigenvalues --   -0.59621  -0.59025  -0.58501  -0.58314  -0.57537
 Alpha  occ. eigenvalues --   -0.56236  -0.56107  -0.56007  -0.55370  -0.55249
 Alpha  occ. eigenvalues --   -0.54584  -0.53826  -0.53658  -0.53288  -0.52651
 Alpha  occ. eigenvalues --   -0.51962  -0.51783  -0.51491  -0.51199  -0.50999
 Alpha  occ. eigenvalues --   -0.50562  -0.50268  -0.49946  -0.49742  -0.49141
 Alpha  occ. eigenvalues --   -0.49016  -0.48435  -0.48311  -0.47485  -0.47323
 Alpha  occ. eigenvalues --   -0.46960  -0.46387  -0.45563  -0.45317  -0.44941
 Alpha  occ. eigenvalues --   -0.44675  -0.44365  -0.44063  -0.43597  -0.43500
 Alpha  occ. eigenvalues --   -0.43474  -0.42311  -0.41113  -0.40505  -0.40487
 Alpha  occ. eigenvalues --   -0.39827  -0.39619  -0.38973  -0.38619  -0.38227
 Alpha  occ. eigenvalues --   -0.37763  -0.37607  -0.34971  -0.34700  -0.34567
 Alpha  occ. eigenvalues --   -0.34310  -0.33494  -0.32962  -0.32728  -0.30881
 Alpha  occ. eigenvalues --   -0.30170  -0.29480
 Alpha virt. eigenvalues --   -0.11367  -0.10282  -0.10100  -0.09851  -0.07049
 Alpha virt. eigenvalues --   -0.06624  -0.05020  -0.04667  -0.03245  -0.02898
 Alpha virt. eigenvalues --   -0.01673  -0.01187  -0.00656   0.00025   0.00336

 Mulliken charges:
               1
     1  N   -0.761761
     2  H    0.413392
     3  H    0.443425
     4  H    0.401274
     5  C   -0.105716
     6  H    0.220920
     7  C    0.654415
     8  C   -0.401006
     9  H    0.184384
    10  H    0.202335
    11  O   -0.531067
    12  C    0.125870
    13  C   -0.181514
    14  H    0.141177
    15  C   -0.219449
    16  H    0.153184
    17  C   -0.125554
    18  H    0.160419
    19  C   -0.125589
    20  H    0.157092
    21  C   -0.124063
    22  H    0.160910
    23  N   -0.606908
    24  H    0.357337
    25  C   -0.066385
    26  H    0.188644
    27  C    0.627806
    28  C   -0.273868
    29  H    0.148762
    30  H    0.154437
    31  O   -0.552602
    32  C   -0.085661
    33  H    0.143329
    34  C   -0.453735
    35  H    0.149676
    36  H    0.158439
    37  H    0.142091
    38  C   -0.446626
    39  H    0.147297
    40  H    0.150082
    41  H    0.154690
    42  N   -0.603218
    43  H    0.369730
    44  C   -0.057425
    45  H    0.179665
    46  C    0.619407
    47  C   -0.368494
    48  H    0.180474
    49  H    0.195975
    50  O   -0.538070
    51  C    0.635385
    52  N   -0.697496
    53  H    0.362515
    54  H    0.366399
    55  O   -0.578108
    56  N   -0.610716
    57  H    0.349870
    58  C   -0.056220
    59  H    0.174313
    60  C    0.597993
    61  C   -0.292860
    62  H    0.179500
    63  H    0.157521
    64  O   -0.634106
    65  C   -0.274999
    66  H    0.155110
    67  H    0.162308
    68  C   -0.169974
    69  H    0.176658
    70  H    0.154795
    71  N   -0.607867
    72  H    0.405337
    73  N   -0.750743
    74  H    0.363222
    75  H    0.369553
    76  N   -0.766272
    77  H    0.349000
    78  H    0.422819
    79  C    0.765712
    80  O   -0.566571
 Sum of Mulliken charges =   1.00000

 Dipole moment (field-independent basis, Debye):
    X=              3.3154    Y=              8.1577    Z=              6.4289  Tot=             10.9028
 Quadrupole moment (field-independent basis, Debye-Ang):
   XX=            -99.3531   YY=           -152.3319   ZZ=           -122.4898
   XY=             92.6141   XZ=            -80.2046   YZ=            -61.8613

 Normal termination of Gaussian 16 at Sun Jun 19 01:46:50 2022.
