 Gaussian 16, Revision C.01,
 Gaussian 16:  ES64L-G16RevC.01  3-Jul-2019

 -------------------------------------------------------------------
 # B3LYP/6-31G* guess=read geom=check nosymm integral(ultrafinegrid)
 -------------------------------------------------------------------

 -----------------------------------------------------
 Candidate Structure: Conf:14 Charge calc in gas phase
 -----------------------------------------------------
 Structure from the checkpoint file:  "conf-14.chk"
 Charge =  1 Multiplicity = 1

                          Input orientation:
 ---------------------------------------------------------------------
 Center     Atomic      Atomic             Coordinates (Angstroms)
 Number     Number       Type             X           Y           Z
 ---------------------------------------------------------------------
      1          7           0       -6.074319    0.319665    4.353143
      2          1           0       -6.823768    0.989788    4.545960
      3          1           0       -6.233962   -0.089630    3.392327
      4          1           0       -6.067967   -0.392219    5.099308
      5          6           0       -4.720617    0.975426    4.209930
      6          1           0       -4.753298    1.939698    4.720833
      7          6           0       -4.556109    1.121042    2.674513
      8          6           0       -3.627029    0.064101    4.821942
      9          1           0       -2.679745    0.610221    4.755442
     10          1           0       -3.522115   -0.825845    4.189558
     11          8           0       -5.305825    0.441481    1.957103
     12          6           0       -3.940056   -0.333049    6.249400
     13          6           0       -3.728677    0.562059    7.308874
     14          1           0       -3.276119    1.532527    7.116221
     15          6           0       -4.502635   -1.590172    6.525235
     16          1           0       -4.622522   -2.317683    5.723252
     17          6           0       -4.071062    0.207303    8.612777
     18          1           0       -3.888936    0.903924    9.425767
     19          6           0       -4.850914   -1.943133    7.833420
     20          1           0       -5.271112   -2.924299    8.033673
     21          6           0       -4.637656   -1.043543    8.876924
     22          1           0       -4.899308   -1.317744    9.894401
     23          7           0       -3.595348    1.945785    2.277058
     24          1           0       -2.921599    2.326707    2.950335
     25          6           0       -3.052096    2.046214    0.918440
     26          1           0       -3.259797    1.111331    0.389855
     27          6           0       -1.525873    2.209630    1.149918
     28          6           0       -3.620516    3.252355    0.139246
     29          1           0       -3.403246    4.156577    0.723392
     30          1           0       -3.050884    3.345483   -0.794985
     31          8           0       -1.109919    2.481776    2.284114
     32          6           0       -5.124173    3.198920   -0.197507
     33          1           0       -5.679958    3.043519    0.738924
     34          6           0       -5.563754    4.549443   -0.784772
     35          1           0       -5.036451    4.759796   -1.723684
     36          1           0       -6.637545    4.550170   -1.001906
     37          1           0       -5.358972    5.376394   -0.094595
     38          6           0       -5.470169    2.048181   -1.154227
     39          1           0       -4.904766    2.133700   -2.091115
     40          1           0       -5.263977    1.067886   -0.712973
     41          1           0       -6.535232    2.069900   -1.410668
     42          7           0       -0.751959    2.056699    0.071493
     43          1           0       -1.129269    1.872851   -0.859277
     44          6           0        0.685025    2.292435    0.046778
     45          1           0        0.921506    3.218820    0.578804
     46          6           0        1.041081    2.417820   -1.457265
     47          6           0        1.472871    1.154136    0.741786
     48          1           0        1.055247    1.031468    1.746696
     49          1           0        1.344713    0.211607    0.197404
     50          8           0        0.197175    2.112885   -2.309949
     51          6           0        2.940339    1.563695    0.885323
     52          7           0        3.876570    0.637681    0.535676
     53          1           0        4.791354    1.021129    0.319271
     54          1           0        3.600049   -0.147973   -0.037204
     55          8           0        3.228979    2.685672    1.289190
     56          7           0        2.288069    2.828016   -1.738337
     57          1           0        2.963729    3.013048   -0.998283
     58          6           0        2.885563    2.741573   -3.070756
     59          1           0        2.312837    2.012479   -3.649821
     60          6           0        4.343839    2.226871   -2.871957
     61          6           0        2.790089    4.130385   -3.772022
     62          1           0        3.507077    4.816183   -3.299918
     63          1           0        1.795321    4.511291   -3.519103
     64          8           0        4.872779    1.653199   -3.889092
     65          6           0        2.924067    4.179724   -5.316237
     66          1           0        2.647511    3.211649   -5.753887
     67          1           0        2.195277    4.900013   -5.705936
     68          6           0        4.287336    4.609909   -5.882671
     69          1           0        4.197774    4.750568   -6.968194
     70          1           0        4.590376    5.570058   -5.444941
     71          7           0        5.298485    3.593400   -5.589260
     72          1           0        4.936923    2.709646   -5.164249
     73          7           0        7.177230    4.982654   -5.588057
     74          1           0        8.152362    5.118855   -5.365508
     75          1           0        6.825743    5.505474   -6.376796
     76          7           0        7.202053    2.888763   -4.531674
     77          1           0        8.166953    3.002392   -4.260633
     78          1           0        6.592280    2.189619   -4.058084
     79          6           0        6.563215    3.824527   -5.240661
     80          8           0        4.882947    2.434317   -1.773795
 ---------------------------------------------------------------------

 SCF Done:  E(RB3LYP) =  -1866.61124935     A.U. after    1 cycles

 Alpha  occ. eigenvalues --  -19.25778 -19.20674 -19.17772 -19.16382 -19.14462
 Alpha  occ. eigenvalues --  -19.13684 -14.59012 -14.48155 -14.46507 -14.43858
 Alpha  occ. eigenvalues --  -14.43744 -14.43207 -14.40792 -14.40219 -10.42571
 Alpha  occ. eigenvalues --  -10.41144 -10.40007 -10.37612 -10.34796 -10.34209
 Alpha  occ. eigenvalues --  -10.33511 -10.33267 -10.31938 -10.31826 -10.30596
 Alpha  occ. eigenvalues --  -10.30321 -10.30300 -10.30190 -10.29939 -10.29801
 Alpha  occ. eigenvalues --  -10.29557 -10.27343 -10.27102 -10.26759 -10.26084
 Alpha  occ. eigenvalues --  -10.25828 -10.24682 -10.24254 -10.24137  -1.18130
 Alpha  occ. eigenvalues --   -1.13127  -1.12431  -1.09930  -1.09548  -1.08262
 Alpha  occ. eigenvalues --   -1.07262  -1.04896  -1.00491  -0.99708  -0.98466
 Alpha  occ. eigenvalues --   -0.97778  -0.97218  -0.97127  -0.95212  -0.92690
 Alpha  occ. eigenvalues --   -0.89506  -0.86510  -0.85991  -0.85483  -0.85054
 Alpha  occ. eigenvalues --   -0.82838  -0.79831  -0.78935  -0.75527  -0.75169
 Alpha  occ. eigenvalues --   -0.74522  -0.73345  -0.73189  -0.72695  -0.71534
 Alpha  occ. eigenvalues --   -0.71256  -0.69758  -0.69556  -0.67368  -0.66566
 Alpha  occ. eigenvalues --   -0.65956  -0.65672  -0.63668  -0.63593  -0.63422
 Alpha  occ. eigenvalues --   -0.62669  -0.62385  -0.62184  -0.60644  -0.58528
 Alpha  occ. eigenvalues --   -0.58433  -0.58061  -0.57935  -0.57114  -0.57050
 Alpha  occ. eigenvalues --   -0.56471  -0.56261  -0.55498  -0.54933  -0.54556
 Alpha  occ. eigenvalues --   -0.53838  -0.53221  -0.53149  -0.52967  -0.52287
 Alpha  occ. eigenvalues --   -0.51883  -0.51282  -0.51191  -0.50726  -0.50647
 Alpha  occ. eigenvalues --   -0.50116  -0.49715  -0.49546  -0.49054  -0.48050
 Alpha  occ. eigenvalues --   -0.47690  -0.47066  -0.46954  -0.46506  -0.46162
 Alpha  occ. eigenvalues --   -0.45895  -0.45652  -0.45354  -0.45236  -0.45056
 Alpha  occ. eigenvalues --   -0.44508  -0.44247  -0.43740  -0.42675  -0.42276
 Alpha  occ. eigenvalues --   -0.41520  -0.41117  -0.40757  -0.40434  -0.40288
 Alpha  occ. eigenvalues --   -0.40114  -0.39999  -0.39108  -0.37856  -0.37038
 Alpha  occ. eigenvalues --   -0.36287  -0.35806  -0.34787  -0.33973  -0.33668
 Alpha  occ. eigenvalues --   -0.32342  -0.32099  -0.31696  -0.29934  -0.29619
 Alpha  occ. eigenvalues --   -0.28473  -0.27834
 Alpha virt. eigenvalues --   -0.12552  -0.11984  -0.10321  -0.09347  -0.06388
 Alpha virt. eigenvalues --   -0.05738  -0.04133  -0.03990  -0.02566  -0.02458
 Alpha virt. eigenvalues --   -0.02069  -0.01299  -0.00768  -0.00231   0.00209

 Mulliken charges:
               1
     1  N   -0.750743
     2  H    0.414597
     3  H    0.426053
     4  H    0.403858
     5  C   -0.114230
     6  H    0.213595
     7  C    0.651620
     8  C   -0.389928
     9  H    0.217596
    10  H    0.192779
    11  O   -0.541501
    12  C    0.140484
    13  C   -0.181167
    14  H    0.149633
    15  C   -0.230551
    16  H    0.149871
    17  C   -0.122475
    18  H    0.167750
    19  C   -0.120434
    20  H    0.166301
    21  C   -0.123790
    22  H    0.168433
    23  N   -0.592438
    24  H    0.370736
    25  C   -0.090364
    26  H    0.191639
    27  C    0.634479
    28  C   -0.258042
    29  H    0.150490
    30  H    0.161839
    31  O   -0.554786
    32  C   -0.069139
    33  H    0.115314
    34  C   -0.446813
    35  H    0.153811
    36  H    0.153459
    37  H    0.144907
    38  C   -0.460410
    39  H    0.149466
    40  H    0.158671
    41  H    0.153896
    42  N   -0.628685
    43  H    0.365941
    44  C   -0.046187
    45  H    0.212382
    46  C    0.600416
    47  C   -0.350045
    48  H    0.198633
    49  H    0.145898
    50  O   -0.555665
    51  C    0.577445
    52  N   -0.721357
    53  H    0.368736
    54  H    0.334413
    55  O   -0.509779
    56  N   -0.617180
    57  H    0.382468
    58  C   -0.059598
    59  H    0.172593
    60  C    0.584792
    61  C   -0.267817
    62  H    0.147563
    63  H    0.164319
    64  O   -0.638191
    65  C   -0.305524
    66  H    0.170116
    67  H    0.159145
    68  C   -0.145881
    69  H    0.163106
    70  H    0.162063
    71  N   -0.610824
    72  H    0.407495
    73  N   -0.755096
    74  H    0.362597
    75  H    0.369885
    76  N   -0.770582
    77  H    0.348036
    78  H    0.416215
    79  C    0.770703
    80  O   -0.557012
 Sum of Mulliken charges =   1.00000

 Dipole moment (field-independent basis, Debye):
    X=            -10.8318    Y=              8.9484    Z=              7.8939  Tot=             16.1157
 Quadrupole moment (field-independent basis, Debye-Ang):
   XX=            -16.4692   YY=           -171.5842   ZZ=            -53.1187
   XY=             45.8109   XZ=           -186.2015   YZ=            -66.3456

 Normal termination of Gaussian 16 at Sun Jun 19 01:46:47 2022.
