 Gaussian 16, Revision C.01,
 Gaussian 16:  ES64L-G16RevC.01  3-Jul-2019

 -------------------------------------------------------------------
 # B3LYP/6-31G* guess=read geom=check nosymm integral(ultrafinegrid)
 -------------------------------------------------------------------

 ------------------------------------------------------
 Candidate Structure: Conf:883 Charge calc in gas phase
 ------------------------------------------------------
 Structure from the checkpoint file:  "conf-883.chk"
 Charge =  1 Multiplicity = 1

                          Input orientation:
 ---------------------------------------------------------------------
 Center     Atomic      Atomic             Coordinates (Angstroms)
 Number     Number       Type             X           Y           Z
 ---------------------------------------------------------------------
      1          7           0       -5.053035    0.688812    4.360678
      2          1           0       -5.899982    1.171909    4.667901
      3          1           0       -5.220669    0.117570    3.463046
      4          1           0       -4.744790    0.061826    5.109836
      5          6           0       -3.946577    1.621848    3.896682
      6          1           0       -4.408755    2.600784    3.743481
      7          6           0       -3.584784    1.011298    2.504033
      8          6           0       -2.818486    1.730207    4.946603
      9          1           0       -2.186627    0.835717    4.897959
     10          1           0       -3.289154    1.738747    5.939568
     11          8           0       -4.339425    0.110925    2.086098
     12          6           0       -1.978867    2.987366    4.796636
     13          6           0       -0.659427    2.926262    4.333969
     14          1           0       -0.217518    1.975138    4.053121
     15          6           0       -2.524671    4.233735    5.141998
     16          1           0       -3.540986    4.296214    5.528410
     17          6           0        0.096799    4.094482    4.203780
     18          1           0        1.114159    4.029795    3.831118
     19          6           0       -1.767852    5.396660    5.018955
     20          1           0       -2.198944    6.353766    5.297728
     21          6           0       -0.453548    5.328059    4.546981
     22          1           0        0.136818    6.234585    4.451535
     23          7           0       -2.536416    1.496348    1.859312
     24          1           0       -1.891824    2.148300    2.308162
     25          6           0       -2.039582    0.968216    0.579450
     26          1           0       -2.473326   -0.023770    0.437689
     27          6           0       -0.509110    0.886205    0.729082
     28          6           0       -2.387065    1.897796   -0.604880
     29          1           0       -1.989432    2.893438   -0.367834
     30          1           0       -1.816228    1.546679   -1.473918
     31          8           0        0.075890    1.660570    1.492844
     32          6           0       -3.881206    2.000974   -0.967226
     33          1           0       -4.434670    2.305925   -0.065523
     34          6           0       -4.075259    3.099947   -2.023993
     35          1           0       -3.540856    2.849803   -2.949081
     36          1           0       -5.134985    3.220176   -2.275262
     37          1           0       -3.699547    4.068312   -1.672485
     38          6           0       -4.462767    0.665818   -1.456422
     39          1           0       -3.910287    0.294358   -2.328673
     40          1           0       -4.435855   -0.106392   -0.680811
     41          1           0       -5.509809    0.788844   -1.755977
     42          7           0        0.083541   -0.048855   -0.028143
     43          1           0       -0.448192   -0.620552   -0.690250
     44          6           0        1.515529   -0.075566   -0.256952
     45          1           0        2.023165    0.135723    0.689959
     46          6           0        1.925005    1.010193   -1.290877
     47          6           0        1.922206   -1.485414   -0.754227
     48          1           0        3.001275   -1.536247   -0.910004
     49          1           0        1.655433   -2.212930    0.020307
     50          8           0        1.094700    1.640180   -1.935535
     51          6           0        1.171045   -1.883969   -2.028462
     52          7           0        1.941725   -2.190783   -3.089946
     53          1           0        1.465576   -2.409090   -3.955884
     54          1           0        2.926403   -1.910337   -3.129790
     55          8           0       -0.066667   -1.934842   -2.041806
     56          7           0        3.277557    1.166755   -1.416259
     57          1           0        3.835100    0.415311   -1.021352
     58          6           0        3.860697    1.622036   -2.678523
     59          1           0        3.068672    2.151938   -3.209217
     60          6           0        4.285703    0.369359   -3.512497
     61          6           0        5.052306    2.565979   -2.393810
     62          1           0        5.779083    2.007171   -1.790035
     63          1           0        4.695309    3.387557   -1.757913
     64          8           0        4.507848    0.545442   -4.753808
     65          6           0        5.781754    3.114542   -3.631451
     66          1           0        6.783462    3.450462   -3.332997
     67          1           0        5.934306    2.309511   -4.353708
     68          6           0        5.144719    4.331519   -4.318553
     69          1           0        5.247802    5.210228   -3.674332
     70          1           0        5.684986    4.544910   -5.247838
     71          7           0        3.700572    4.279377   -4.635995
     72          1           0        3.098322    4.910938   -4.127372
     73          7           0        3.682866    2.514786   -6.143800
     74          1           0        3.298417    2.161163   -7.012356
     75          1           0        4.116126    1.730794   -5.473497
     76          7           0        1.986107    4.122301   -6.179765
     77          1           0        1.361016    3.538795   -6.715558
     78          1           0        1.718338    5.083298   -6.028803
     79          6           0        3.132490    3.615665   -5.662363
     80          8           0        4.392142   -0.711570   -2.896516
 ---------------------------------------------------------------------

 SCF Done:  E(RB3LYP) =  -1866.59966032     A.U. after    3 cycles

 Alpha  occ. eigenvalues --  -19.26117 -19.19457 -19.17813 -19.16895 -19.15678
 Alpha  occ. eigenvalues --  -19.14605 -14.58984 -14.48435 -14.47704 -14.47106
 Alpha  occ. eigenvalues --  -14.43626 -14.42529 -14.40853 -14.39954 -10.42843
 Alpha  occ. eigenvalues --  -10.42548 -10.40277 -10.36493 -10.34557 -10.34514
 Alpha  occ. eigenvalues --  -10.33622 -10.32947 -10.32399 -10.31415 -10.30440
 Alpha  occ. eigenvalues --  -10.30430 -10.29001 -10.28377 -10.28372 -10.28057
 Alpha  occ. eigenvalues --  -10.27960 -10.27653 -10.26441 -10.26380 -10.26090
 Alpha  occ. eigenvalues --  -10.25338 -10.25230 -10.24215 -10.23806  -1.18554
 Alpha  occ. eigenvalues --   -1.12833  -1.11374  -1.11115  -1.09445  -1.08328
 Alpha  occ. eigenvalues --   -1.08245  -1.04854  -1.00869  -1.00269  -0.99653
 Alpha  occ. eigenvalues --   -0.98151  -0.97491  -0.96031  -0.95104  -0.92054
 Alpha  occ. eigenvalues --   -0.88929  -0.86655  -0.85616  -0.84908  -0.83862
 Alpha  occ. eigenvalues --   -0.82570  -0.80686  -0.79093  -0.75634  -0.74956
 Alpha  occ. eigenvalues --   -0.74338  -0.73796  -0.73538  -0.71980  -0.71555
 Alpha  occ. eigenvalues --   -0.70036  -0.69672  -0.68431  -0.67621  -0.67277
 Alpha  occ. eigenvalues --   -0.66424  -0.65206  -0.64908  -0.63893  -0.63319
 Alpha  occ. eigenvalues --   -0.63094  -0.62110  -0.61039  -0.60555  -0.60183
 Alpha  occ. eigenvalues --   -0.59276  -0.58757  -0.58220  -0.57036  -0.56354
 Alpha  occ. eigenvalues --   -0.56330  -0.55939  -0.55130  -0.54857  -0.54503
 Alpha  occ. eigenvalues --   -0.54176  -0.53951  -0.52587  -0.52128  -0.51642
 Alpha  occ. eigenvalues --   -0.51535  -0.51322  -0.50902  -0.50699  -0.50295
 Alpha  occ. eigenvalues --   -0.50092  -0.49747  -0.48738  -0.48306  -0.48060
 Alpha  occ. eigenvalues --   -0.47548  -0.47164  -0.46441  -0.46172  -0.45813
 Alpha  occ. eigenvalues --   -0.45384  -0.45154  -0.44969  -0.44534  -0.44378
 Alpha  occ. eigenvalues --   -0.43975  -0.43785  -0.43524  -0.43322  -0.42897
 Alpha  occ. eigenvalues --   -0.42149  -0.41672  -0.41086  -0.40928  -0.40252
 Alpha  occ. eigenvalues --   -0.39840  -0.39786  -0.39619  -0.38000  -0.37771
 Alpha  occ. eigenvalues --   -0.35441  -0.34610  -0.34327  -0.33797  -0.33353
 Alpha  occ. eigenvalues --   -0.33043  -0.32077  -0.31082  -0.30793  -0.30349
 Alpha  occ. eigenvalues --   -0.29026  -0.28653
 Alpha virt. eigenvalues --   -0.12211  -0.10664  -0.09755  -0.09380  -0.08252
 Alpha virt. eigenvalues --   -0.05514  -0.05248  -0.04536  -0.04155  -0.03245
 Alpha virt. eigenvalues --   -0.03132  -0.01044  -0.00881  -0.00385   0.00470

 Mulliken charges:
               1
     1  N   -0.765592
     2  H    0.411785
     3  H    0.439384
     4  H    0.411171
     5  C   -0.101490
     6  H    0.228478
     7  C    0.645837
     8  C   -0.390735
     9  H    0.191803
    10  H    0.178252
    11  O   -0.550258
    12  C    0.139745
    13  C   -0.190553
    14  H    0.167547
    15  C   -0.179070
    16  H    0.121819
    17  C   -0.120324
    18  H    0.165947
    19  C   -0.124526
    20  H    0.155571
    21  C   -0.124542
    22  H    0.157263
    23  N   -0.593174
    24  H    0.387615
    25  C   -0.105428
    26  H    0.196326
    27  C    0.640150
    28  C   -0.258128
    29  H    0.148425
    30  H    0.185520
    31  O   -0.559517
    32  C   -0.069545
    33  H    0.107958
    34  C   -0.444237
    35  H    0.149772
    36  H    0.150399
    37  H    0.140485
    38  C   -0.460893
    39  H    0.155164
    40  H    0.159178
    41  H    0.149453
    42  N   -0.607255
    43  H    0.383772
    44  C   -0.091100
    45  H    0.183936
    46  C    0.620363
    47  C   -0.385656
    48  H    0.190529
    49  H    0.184930
    50  O   -0.531746
    51  C    0.593886
    52  N   -0.757137
    53  H    0.337723
    54  H    0.406922
    55  O   -0.545928
    56  N   -0.575545
    57  H    0.336361
    58  C   -0.094151
    59  H    0.159501
    60  C    0.618471
    61  C   -0.263097
    62  H    0.155550
    63  H    0.137609
    64  O   -0.603958
    65  C   -0.295871
    66  H    0.155844
    67  H    0.194458
    68  C   -0.142110
    69  H    0.162809
    70  H    0.182167
    71  N   -0.595282
    72  H    0.350596
    73  N   -0.761870
    74  H    0.341270
    75  H    0.458512
    76  N   -0.762194
    77  H    0.368370
    78  H    0.362454
    79  C    0.754617
    80  O   -0.574785
 Sum of Mulliken charges =   1.00000

 Dipole moment (field-independent basis, Debye):
    X=            -11.4802    Y=             16.8749    Z=              6.2207  Tot=             21.3367
 Quadrupole moment (field-independent basis, Debye-Ang):
   XX=           -139.3754   YY=           -156.9371   ZZ=            -76.4813
   XY=             13.2298   XZ=            -90.7047   YZ=            -37.7073

 Normal termination of Gaussian 16 at Sun Jun 19 01:47:26 2022.
