 Gaussian 16, Revision C.01,
 Gaussian 16:  ES64L-G16RevC.01  3-Jul-2019

 -------------------------------------------------------------------
 # B3LYP/6-31G* guess=read geom=check nosymm integral(ultrafinegrid)
 -------------------------------------------------------------------

 ------------------------------------------------------
 Candidate Structure: Conf:102 Charge calc in gas phase
 ------------------------------------------------------
 Structure from the checkpoint file:  "conf-102.chk"
 Charge =  1 Multiplicity = 1

                          Input orientation:
 ---------------------------------------------------------------------
 Center     Atomic      Atomic             Coordinates (Angstroms)
 Number     Number       Type             X           Y           Z
 ---------------------------------------------------------------------
      1          7           0       -1.341917   -0.768337    3.444985
      2          1           0       -2.144963   -1.258588    3.020403
      3          1           0       -0.538529   -1.072811    2.851140
      4          1           0       -1.188825   -1.076487    4.408645
      5          6           0       -1.666982    0.717120    3.342568
      6          1           0       -2.570038    0.846707    3.947290
      7          6           0       -2.086142    0.818437    1.853794
      8          6           0       -0.537777    1.596573    3.900669
      9          1           0        0.335344    1.587922    3.239483
     10          1           0       -0.223109    1.162143    4.861105
     11          8           0       -2.744234   -0.125211    1.406493
     12          6           0       -1.000390    3.030910    4.129087
     13          6           0       -0.417631    4.088720    3.417156
     14          1           0        0.385401    3.894881    2.708629
     15          6           0       -2.008550    3.310665    5.063829
     16          1           0       -2.452448    2.506311    5.649111
     17          6           0       -0.854088    5.400102    3.628452
     18          1           0       -0.390424    6.208206    3.070051
     19          6           0       -2.438841    4.619677    5.274152
     20          1           0       -3.216257    4.821666    6.005591
     21          6           0       -1.863936    5.668783    4.551722
     22          1           0       -2.197900    6.689184    4.716879
     23          7           0       -1.651837    1.851613    1.112198
     24          1           0       -1.063348    2.563623    1.535716
     25          6           0       -1.641459    1.722455   -0.348147
     26          1           0       -2.613425    1.332095   -0.656771
     27          6           0       -0.621339    0.645276   -0.807650
     28          6           0       -1.368743    3.077196   -1.025233
     29          1           0       -0.388419    3.452318   -0.705102
     30          1           0       -1.305641    2.885234   -2.104414
     31          8           0       -0.721490    0.156253   -1.938636
     32          6           0       -2.425612    4.170264   -0.760544
     33          1           0       -2.508744    4.304822    0.327458
     34          6           0       -1.934255    5.500160   -1.352535
     35          1           0       -1.835878    5.431901   -2.444326
     36          1           0       -2.640021    6.309494   -1.135420
     37          1           0       -0.957558    5.778629   -0.941609
     38          6           0       -3.813038    3.799779   -1.302705
     39          1           0       -3.779372    3.633684   -2.387760
     40          1           0       -4.217810    2.893831   -0.837043
     41          1           0       -4.529125    4.607380   -1.115108
     42          7           0        0.307635    0.304621    0.123868
     43          1           0        0.548508    1.046601    0.798355
     44          6           0        1.438867   -0.620169   -0.069403
     45          1           0        1.869262   -0.748430    0.927772
     46          6           0        2.425875    0.162742   -0.956817
     47          6           0        1.006324   -1.992980   -0.556058
     48          1           0        0.454498   -1.913622   -1.495258
     49          1           0        1.899776   -2.599397   -0.754182
     50          8           0        2.438241   -0.009398   -2.181136
     51          6           0        0.170078   -2.708952    0.505869
     52          7           0       -0.476719   -3.812462    0.076163
     53          1           0       -1.012196   -4.360684    0.735661
     54          1           0       -0.430592   -4.125361   -0.882678
     55          8           0        0.104981   -2.345197    1.688657
     56          7           0        3.120264    1.095059   -0.248695
     57          1           0        2.929301    1.002919    0.749532
     58          6           0        3.121285    2.569600   -0.453332
     59          1           0        4.104475    2.940155   -0.135938
     60          6           0        2.039625    3.148208    0.560988
     61          6           0        2.827425    3.051889   -1.871803
     62          1           0        2.693673    4.134068   -1.792319
     63          1           0        1.851754    2.654924   -2.175510
     64          8           0        1.664295    4.312018    0.381670
     65          6           0        3.889589    2.713999   -2.934925
     66          1           0        4.693923    3.458270   -2.927988
     67          1           0        4.354831    1.744899   -2.724958
     68          6           0        3.293436    2.664718   -4.351181
     69          1           0        2.816664    3.618876   -4.606028
     70          1           0        4.078641    2.465035   -5.090433
     71          7           0        2.276997    1.599172   -4.394388
     72          1           0        2.364047    0.895856   -3.646228
     73          7           0        0.959456    2.440409   -6.113040
     74          1           0        0.047601    2.615789   -6.507058
     75          1           0        1.761183    2.804149   -6.605626
     76          7           0        0.089611    0.888015   -4.616931
     77          1           0       -0.715099    0.742842   -5.208697
     78          1           0        0.034070    0.527549   -3.659009
     79          6           0        1.116369    1.641797   -5.036091
     80          8           0        1.642270    2.329701    1.467652
 ---------------------------------------------------------------------

 SCF Done:  E(RB3LYP) =  -1866.60902314     A.U. after    1 cycles

 Alpha  occ. eigenvalues --  -19.23228 -19.23146 -19.22132 -19.21890 -19.16721
 Alpha  occ. eigenvalues --  -19.15605 -14.56430 -14.49766 -14.48029 -14.47453
 Alpha  occ. eigenvalues --  -14.46722 -14.46692 -14.45015 -14.43211 -10.45041
 Alpha  occ. eigenvalues --  -10.40687 -10.40494 -10.38808 -10.38516 -10.37523
 Alpha  occ. eigenvalues --  -10.34069 -10.33324 -10.33099 -10.32453 -10.30143
 Alpha  occ. eigenvalues --  -10.30092 -10.29675 -10.27961 -10.27619 -10.26728
 Alpha  occ. eigenvalues --  -10.26650 -10.26437 -10.26252 -10.26196 -10.25906
 Alpha  occ. eigenvalues --  -10.25733 -10.25447 -10.24237 -10.23650  -1.15855
 Alpha  occ. eigenvalues --   -1.14474  -1.13736  -1.13285  -1.12606  -1.10493
 Alpha  occ. eigenvalues --   -1.09312  -1.03916  -1.02744  -1.02296  -1.01657
 Alpha  occ. eigenvalues --   -1.01507  -1.00636  -0.99482  -0.93542  -0.90081
 Alpha  occ. eigenvalues --   -0.88706  -0.88308  -0.87828  -0.83567  -0.83150
 Alpha  occ. eigenvalues --   -0.81942  -0.81453  -0.78716  -0.76553  -0.76501
 Alpha  occ. eigenvalues --   -0.74993  -0.74389  -0.72909  -0.71576  -0.71211
 Alpha  occ. eigenvalues --   -0.70237  -0.69793  -0.69224  -0.68258  -0.67749
 Alpha  occ. eigenvalues --   -0.67455  -0.66543  -0.65146  -0.64680  -0.64238
 Alpha  occ. eigenvalues --   -0.63344  -0.62813  -0.62745  -0.62014  -0.61945
 Alpha  occ. eigenvalues --   -0.61296  -0.59276  -0.58834  -0.58254  -0.57822
 Alpha  occ. eigenvalues --   -0.57595  -0.56723  -0.56194  -0.55735  -0.55401
 Alpha  occ. eigenvalues --   -0.55040  -0.53856  -0.53319  -0.53117  -0.52867
 Alpha  occ. eigenvalues --   -0.52594  -0.52129  -0.51589  -0.51218  -0.50890
 Alpha  occ. eigenvalues --   -0.50506  -0.50297  -0.50264  -0.49294  -0.48667
 Alpha  occ. eigenvalues --   -0.48528  -0.48442  -0.47909  -0.47169  -0.47143
 Alpha  occ. eigenvalues --   -0.46858  -0.46217  -0.46073  -0.45835  -0.45532
 Alpha  occ. eigenvalues --   -0.44898  -0.44519  -0.43536  -0.43257  -0.43109
 Alpha  occ. eigenvalues --   -0.42341  -0.42002  -0.41577  -0.41133  -0.40475
 Alpha  occ. eigenvalues --   -0.40037  -0.39631  -0.39474  -0.38576  -0.38331
 Alpha  occ. eigenvalues --   -0.37866  -0.37436  -0.37185  -0.36955  -0.35526
 Alpha  occ. eigenvalues --   -0.34489  -0.33221  -0.32160  -0.32010  -0.31770
 Alpha  occ. eigenvalues --   -0.31231  -0.28825
 Alpha virt. eigenvalues --   -0.11054  -0.09681  -0.09429  -0.08609  -0.08073
 Alpha virt. eigenvalues --   -0.07620  -0.07292  -0.05966  -0.05356  -0.02217
 Alpha virt. eigenvalues --   -0.02043  -0.01846  -0.00859  -0.00498  -0.00245

 Mulliken charges:
               1
     1  N   -0.756758
     2  H    0.415760
     3  H    0.448014
     4  H    0.398466
     5  C   -0.120166
     6  H    0.218221
     7  C    0.656335
     8  C   -0.412914
     9  H    0.229060
    10  H    0.163600
    11  O   -0.537211
    12  C    0.141124
    13  C   -0.232654
    14  H    0.216871
    15  C   -0.180519
    16  H    0.116618
    17  C   -0.138431
    18  H    0.159562
    19  C   -0.126360
    20  H    0.147377
    21  C   -0.124788
    22  H    0.149785
    23  N   -0.632514
    24  H    0.386200
    25  C   -0.041618
    26  H    0.204369
    27  C    0.614835
    28  C   -0.328205
    29  H    0.192223
    30  H    0.137779
    31  O   -0.564464
    32  C   -0.072393
    33  H    0.139656
    34  C   -0.452398
    35  H    0.129081
    36  H    0.152707
    37  H    0.174065
    38  C   -0.450607
    39  H    0.135346
    40  H    0.147393
    41  H    0.158817
    42  N   -0.639594
    43  H    0.392048
    44  C   -0.065603
    45  H    0.176134
    46  C    0.619970
    47  C   -0.394047
    48  H    0.210876
    49  H    0.199252
    50  O   -0.560209
    51  C    0.646835
    52  N   -0.732423
    53  H    0.356140
    54  H    0.361629
    55  O   -0.573839
    56  N   -0.573924
    57  H    0.344549
    58  C   -0.091861
    59  H    0.175489
    60  C    0.621180
    61  C   -0.281186
    62  H    0.193542
    63  H    0.128348
    64  O   -0.547549
    65  C   -0.306302
    66  H    0.168139
    67  H    0.179716
    68  C   -0.156329
    69  H    0.167999
    70  H    0.176465
    71  N   -0.617252
    72  H    0.431020
    73  N   -0.757630
    74  H    0.371576
    75  H    0.380695
    76  N   -0.790179
    77  H    0.359240
    78  H    0.430404
    79  C    0.779460
    80  O   -0.644045
 Sum of Mulliken charges =   1.00000

 Dipole moment (field-independent basis, Debye):
    X=             -1.9790    Y=              0.0107    Z=             -5.7406  Tot=              6.0722
 Quadrupole moment (field-independent basis, Debye-Ang):
   XX=           -210.5914   YY=           -189.5146   ZZ=            -95.8886
   XY=              0.9958   XZ=            -34.5973   YZ=            -36.6863

 Normal termination of Gaussian 16 at Sun Jun 19 01:47:00 2022.
