 Gaussian 16, Revision C.01,
 Gaussian 16:  ES64L-G16RevC.01  3-Jul-2019

 -------------------------------------------------------------------
 # B3LYP/6-31G* guess=read geom=check nosymm integral(ultrafinegrid)
 -------------------------------------------------------------------

 ------------------------------------------------------
 Candidate Structure: Conf:197 Charge calc in gas phase
 ------------------------------------------------------
 Structure from the checkpoint file:  "conf-197.chk"
 Charge =  1 Multiplicity = 1

                          Input orientation:
 ---------------------------------------------------------------------
 Center     Atomic      Atomic             Coordinates (Angstroms)
 Number     Number       Type             X           Y           Z
 ---------------------------------------------------------------------
      1          7           0       -5.710357   -0.464477    3.919207
      2          1           0       -6.486694   -0.145516    4.502284
      3          1           0       -6.013929   -0.647905    2.916864
      4          1           0       -5.317674   -1.335703    4.312171
      5          6           0       -4.611551    0.556791    3.732873
      6          1           0       -5.055207    1.539329    3.922265
      7          6           0       -4.324785    0.454311    2.202771
      8          6           0       -3.440172    0.308450    4.711349
      9          1           0       -3.781984    0.575440    5.718618
     10          1           0       -2.643135    1.019698    4.470403
     11          8           0       -5.153287   -0.161719    1.512436
     12          6           0       -2.922788   -1.115868    4.693787
     13          6           0       -3.472075   -2.072239    5.565998
     14          1           0       -4.195050   -1.765737    6.322293
     15          6           0       -1.918281   -1.512525    3.798275
     16          1           0       -1.455440   -0.779253    3.142629
     17          6           0       -3.043970   -3.402759    5.528462
     18          1           0       -3.468688   -4.126962    6.217357
     19          6           0       -1.487442   -2.838772    3.769297
     20          1           0       -0.699109   -3.130946    3.081861
     21          6           0       -2.054097   -3.787389    4.624841
     22          1           0       -1.711931   -4.817544    4.598450
     23          7           0       -3.250187    1.082292    1.751015
     24          1           0       -2.522078    1.441789    2.372258
     25          6           0       -2.787492    1.060359    0.359554
     26          1           0       -3.108864    0.117797   -0.092177
     27          6           0       -1.243689    1.099519    0.497016
     28          6           0       -3.385930    2.259806   -0.418261
     29          1           0       -4.467769    2.240723   -0.229538
     30          1           0       -3.001649    3.182376    0.036381
     31          8           0       -0.741996    1.395587    1.590224
     32          6           0       -3.162191    2.303398   -1.944985
     33          1           0       -2.085484    2.355352   -2.150490
     34          6           0       -3.730780    1.067735   -2.660840
     35          1           0       -4.804731    0.957498   -2.462945
     36          1           0       -3.596509    1.158213   -3.743596
     37          1           0       -3.240568    0.134519   -2.357457
     38          6           0       -3.793620    3.587858   -2.505848
     39          1           0       -4.879741    3.596240   -2.347660
     40          1           0       -3.377108    4.482250   -2.028119
     41          1           0       -3.613520    3.669197   -3.583005
     42          7           0       -0.537162    0.788981   -0.596660
     43          1           0       -0.985357    0.660197   -1.502835
     44          6           0        0.911419    0.939755   -0.705150
     45          1           0        1.201416    1.900444   -0.262325
     46          6           0        1.185383    0.938645   -2.231690
     47          6           0        1.694123   -0.169617    0.043914
     48          1           0        1.117169   -0.435258    0.933749
     49          1           0        1.804080   -1.064342   -0.577440
     50          8           0        0.241773    0.946378   -3.028779
     51          6           0        3.039086    0.349641    0.577167
     52          7           0        4.148101   -0.319451    0.151580
     53          1           0        5.033608    0.072612    0.448933
     54          1           0        4.157660   -0.845560   -0.722690
     55          8           0        3.073944    1.289620    1.360468
     56          7           0        2.481557    0.902506   -2.601260
     57          1           0        3.187343    0.700209   -1.900474
     58          6           0        2.908823    0.515383   -3.946879
     59          1           0        2.009952    0.239159   -4.503503
     60          6           0        3.827862   -0.738688   -3.797531
     61          6           0        3.593862    1.725880   -4.654271
     62          1           0        4.630015    1.817604   -4.299783
     63          1           0        3.072528    2.611503   -4.278372
     64          8           0        4.014254   -1.416186   -4.862959
     65          6           0        3.544476    1.776814   -6.205343
     66          1           0        2.735752    1.137061   -6.581284
     67          1           0        3.286383    2.795289   -6.516966
     68          6           0        4.842329    1.418697   -6.946151
     69          1           0        4.706782    1.602318   -8.020449
     70          1           0        5.666861    2.055806   -6.599752
     71          7           0        5.173233    0.012994   -6.709838
     72          1           0        4.465683   -0.533524   -6.164845
     73          7           0        7.460741    0.107231   -7.167742
     74          1           0        8.387640   -0.276013   -7.057216
     75          1           0        7.316882    0.734016   -7.945366
     76          7           0        6.551482   -1.605801   -5.857748
     77          1           0        7.391824   -2.161602   -5.900770
     78          1           0        5.742729   -1.894223   -5.277504
     79          6           0        6.395949   -0.497152   -6.589566
     80          8           0        4.324701   -0.972464   -2.680827
 ---------------------------------------------------------------------

 SCF Done:  E(RB3LYP) =  -1866.61119986     A.U. after    1 cycles

 Alpha  occ. eigenvalues --  -19.25382 -19.20643 -19.18654 -19.15855 -19.15751
 Alpha  occ. eigenvalues --  -19.15189 -14.58101 -14.47836 -14.47259 -14.44788
 Alpha  occ. eigenvalues --  -14.43961 -14.43893 -14.41734 -14.39673 -10.42226
 Alpha  occ. eigenvalues --  -10.41994 -10.39705 -10.37565 -10.35625 -10.33800
 Alpha  occ. eigenvalues --  -10.33391 -10.33156 -10.33031 -10.31162 -10.30992
 Alpha  occ. eigenvalues --  -10.30721 -10.30074 -10.29338 -10.29162 -10.28978
 Alpha  occ. eigenvalues --  -10.28872 -10.28093 -10.27122 -10.26556 -10.26207
 Alpha  occ. eigenvalues --  -10.25815 -10.25584 -10.24133 -10.23788  -1.17800
 Alpha  occ. eigenvalues --   -1.12689  -1.12077  -1.10744  -1.10401  -1.08599
 Alpha  occ. eigenvalues --   -1.07747  -1.04593  -1.00780  -1.00486  -0.99530
 Alpha  occ. eigenvalues --   -0.98671  -0.98201  -0.96491  -0.94591  -0.92067
 Alpha  occ. eigenvalues --   -0.89064  -0.86675  -0.85944  -0.85002  -0.84733
 Alpha  occ. eigenvalues --   -0.82707  -0.80484  -0.78686  -0.75734  -0.75046
 Alpha  occ. eigenvalues --   -0.74457  -0.73745  -0.73154  -0.72396  -0.71789
 Alpha  occ. eigenvalues --   -0.70264  -0.69647  -0.68431  -0.67981  -0.66974
 Alpha  occ. eigenvalues --   -0.66322  -0.65359  -0.64604  -0.64215  -0.63682
 Alpha  occ. eigenvalues --   -0.62851  -0.62382  -0.60830  -0.60059  -0.59525
 Alpha  occ. eigenvalues --   -0.59045  -0.58586  -0.58330  -0.57549  -0.56486
 Alpha  occ. eigenvalues --   -0.56214  -0.56129  -0.55485  -0.55150  -0.54758
 Alpha  occ. eigenvalues --   -0.54516  -0.53536  -0.52846  -0.52251  -0.52208
 Alpha  occ. eigenvalues --   -0.51642  -0.51388  -0.51177  -0.50525  -0.50388
 Alpha  occ. eigenvalues --   -0.50173  -0.50061  -0.49708  -0.49331  -0.48930
 Alpha  occ. eigenvalues --   -0.47955  -0.47202  -0.46817  -0.46551  -0.46356
 Alpha  occ. eigenvalues --   -0.46142  -0.45318  -0.45020  -0.44838  -0.44515
 Alpha  occ. eigenvalues --   -0.44388  -0.44139  -0.43695  -0.43172  -0.42869
 Alpha  occ. eigenvalues --   -0.41769  -0.41642  -0.41264  -0.41106  -0.40197
 Alpha  occ. eigenvalues --   -0.39946  -0.39844  -0.39370  -0.37767  -0.37159
 Alpha  occ. eigenvalues --   -0.35552  -0.35155  -0.34714  -0.34610  -0.34104
 Alpha  occ. eigenvalues --   -0.33337  -0.32681  -0.31535  -0.31021  -0.29740
 Alpha  occ. eigenvalues --   -0.29392  -0.29219
 Alpha virt. eigenvalues --   -0.11658  -0.11281  -0.11078  -0.07651  -0.06563
 Alpha virt. eigenvalues --   -0.06537  -0.04675  -0.03229  -0.03215  -0.02559
 Alpha virt. eigenvalues --   -0.01830  -0.01174  -0.00567   0.00070   0.00584

 Mulliken charges:
               1
     1  N   -0.758092
     2  H    0.407560
     3  H    0.432399
     4  H    0.402730
     5  C   -0.112953
     6  H    0.226130
     7  C    0.658839
     8  C   -0.393635
     9  H    0.186829
    10  H    0.212482
    11  O   -0.546702
    12  C    0.139999
    13  C   -0.235373
    14  H    0.138883
    15  C   -0.184240
    16  H    0.171318
    17  C   -0.119092
    18  H    0.162311
    19  C   -0.125783
    20  H    0.165197
    21  C   -0.121648
    22  H    0.165329
    23  N   -0.609507
    24  H    0.377245
    25  C   -0.086049
    26  H    0.195493
    27  C    0.630540
    28  C   -0.250594
    29  H    0.153174
    30  H    0.150846
    31  O   -0.546602
    32  C   -0.101896
    33  H    0.153933
    34  C   -0.453102
    35  H    0.148600
    36  H    0.167450
    37  H    0.138626
    38  C   -0.447609
    39  H    0.144392
    40  H    0.148578
    41  H    0.159402
    42  N   -0.635012
    43  H    0.381677
    44  C   -0.042162
    45  H    0.217828
    46  C    0.595754
    47  C   -0.362292
    48  H    0.190963
    49  H    0.166325
    50  O   -0.543353
    51  C    0.536930
    52  N   -0.754777
    53  H    0.336844
    54  H    0.392134
    55  O   -0.495835
    56  N   -0.598599
    57  H    0.348740
    58  C   -0.079398
    59  H    0.185042
    60  C    0.603793
    61  C   -0.272837
    62  H    0.145246
    63  H    0.169424
    64  O   -0.623760
    65  C   -0.306222
    66  H    0.171000
    67  H    0.163274
    68  C   -0.146105
    69  H    0.164111
    70  H    0.163941
    71  N   -0.612947
    72  H    0.411747
    73  N   -0.756860
    74  H    0.364902
    75  H    0.372482
    76  N   -0.778502
    77  H    0.351253
    78  H    0.417794
    79  C    0.776038
    80  O   -0.563987
 Sum of Mulliken charges =   1.00000

 Dipole moment (field-independent basis, Debye):
    X=             -4.7020    Y=             -0.7321    Z=             -0.5412  Tot=              4.7894
 Quadrupole moment (field-independent basis, Debye-Ang):
   XX=            -14.8793   YY=           -211.1454   ZZ=            -53.2102
   XY=             -0.6290   XZ=           -196.2326   YZ=            -29.2127

 Normal termination of Gaussian 16 at Sun Jun 19 01:46:49 2022.
