 Gaussian 16, Revision C.01,
 Gaussian 16:  ES64L-G16RevC.01  3-Jul-2019

 -------------------------------------------------------------------
 # B3LYP/6-31G* guess=read geom=check nosymm integral(ultrafinegrid)
 -------------------------------------------------------------------

 ------------------------------------------------------
 Candidate Structure: Conf:353 Charge calc in gas phase
 ------------------------------------------------------
 Structure from the checkpoint file:  "conf-353.chk"
 Charge =  1 Multiplicity = 1

                          Input orientation:
 ---------------------------------------------------------------------
 Center     Atomic      Atomic             Coordinates (Angstroms)
 Number     Number       Type             X           Y           Z
 ---------------------------------------------------------------------
      1          7           0       -4.011547    1.727919    5.590793
      2          1           0       -4.408577    2.670205    5.522741
      3          1           0       -4.671175    1.050459    5.107861
      4          1           0       -3.881955    1.492880    6.578934
      5          6           0       -2.749444    1.551464    4.761680
      6          1           0       -2.247555    2.517245    4.677954
      7          6           0       -3.331197    1.050887    3.411938
      8          6           0       -1.846314    0.503701    5.453993
      9          1           0       -2.413933   -0.431283    5.540690
     10          1           0       -1.637393    0.862081    6.471712
     11          8           0       -4.415046    0.444164    3.479196
     12          6           0       -0.545932    0.262902    4.715826
     13          6           0       -0.414923   -0.821785    3.839218
     14          1           0       -1.245444   -1.512239    3.707091
     15          6           0        0.535754    1.136860    4.888585
     16          1           0        0.456094    1.972579    5.581775
     17          6           0        0.769943   -1.024892    3.131492
     18          1           0        0.848426   -1.848186    2.428730
     19          6           0        1.725560    0.930079    4.190502
     20          1           0        2.560780    1.608804    4.337292
     21          6           0        1.840545   -0.147024    3.310160
     22          1           0        2.764324   -0.303660    2.761139
     23          7           0       -2.633678    1.316137    2.318356
     24          1           0       -1.684221    1.694718    2.380459
     25          6           0       -2.917299    0.786496    0.977950
     26          1           0       -3.396456   -0.191686    1.092301
     27          6           0       -1.513977    0.630970    0.344281
     28          6           0       -3.784780    1.735303    0.116101
     29          1           0       -3.234289    2.669590   -0.033770
     30          1           0       -3.857481    1.289952   -0.886260
     31          8           0       -0.535389    1.162228    0.861701
     32          6           0       -5.214169    2.026171    0.610815
     33          1           0       -5.153653    2.403682    1.642618
     34          6           0       -5.819741    3.139217   -0.260628
     35          1           0       -5.938792    2.799932   -1.296985
     36          1           0       -6.809630    3.430171    0.109397
     37          1           0       -5.179212    4.026867   -0.283342
     38          6           0       -6.112180    0.780456    0.608635
     39          1           0       -6.189024    0.360623   -0.403178
     40          1           0       -5.742998    0.000718    1.282311
     41          1           0       -7.128068    1.035675    0.931647
     42          7           0       -1.445596   -0.092533   -0.803123
     43          1           0       -2.298795   -0.455404   -1.208146
     44          6           0       -0.188893   -0.284474   -1.518623
     45          1           0        0.599973   -0.186299   -0.766701
     46          6           0        0.099256    0.790130   -2.584579
     47          6           0       -0.090390   -1.694173   -2.107083
     48          1           0       -0.970229   -1.931493   -2.720483
     49          1           0        0.776476   -1.711284   -2.777788
     50          8           0        1.163342    0.681960   -3.253650
     51          6           0        0.119866   -2.746082   -1.014402
     52          7           0       -0.295740   -4.003743   -1.334883
     53          1           0       -0.052367   -4.756628   -0.704823
     54          1           0       -0.585157   -4.249833   -2.270409
     55          8           0        0.628661   -2.474082    0.065611
     56          7           0       -0.776114    1.770950   -2.714694
     57          1           0       -1.536401    1.938325   -2.032626
     58          6           0       -0.553327    3.037420   -3.404881
     59          1           0        0.489351    3.332107   -3.253185
     60          6           0       -1.452065    4.106158   -2.659667
     61          6           0       -0.879050    2.991516   -4.918308
     62          1           0       -1.924184    3.282151   -5.061547
     63          1           0       -0.791346    1.960712   -5.292713
     64          8           0       -2.179455    3.619976   -1.743796
     65          6           0        0.022118    3.930029   -5.744269
     66          1           0       -0.500628    4.257793   -6.651024
     67          1           0        0.217577    4.829465   -5.150900
     68          6           0        1.322625    3.254379   -6.210867
     69          1           0        1.093187    2.473235   -6.944020
     70          1           0        1.986198    3.961186   -6.720522
     71          7           0        2.055864    2.586462   -5.125679
     72          1           0        1.573281    1.804507   -4.653774
     73          7           0        3.720499    4.195980   -4.751644
     74          1           0        4.621719    4.410667   -4.352407
     75          1           0        3.420307    4.756780   -5.533457
     76          7           0        3.546439    2.312929   -3.398206
     77          1           0        4.112677    2.768121   -2.696243
     78          1           0        2.925245    1.568783   -3.071802
     79          6           0        3.090599    3.047316   -4.437922
     80          8           0       -1.330034    5.264167   -3.081470
 ---------------------------------------------------------------------

 SCF Done:  E(RB3LYP) =  -1866.58124554     A.U. after    2 cycles

 Alpha  occ. eigenvalues --  -19.25263 -19.21148 -19.20315 -19.19628 -19.11028
 Alpha  occ. eigenvalues --  -19.09670 -14.59382 -14.48628 -14.47868 -14.46827
 Alpha  occ. eigenvalues --  -14.46742 -14.45653 -14.43952 -14.41960 -10.43965
 Alpha  occ. eigenvalues --  -10.42074 -10.39715 -10.38232 -10.37427 -10.36690
 Alpha  occ. eigenvalues --  -10.32980 -10.32978 -10.31975 -10.31953 -10.29327
 Alpha  occ. eigenvalues --  -10.28742 -10.28608 -10.27885 -10.27548 -10.27210
 Alpha  occ. eigenvalues --  -10.26830 -10.26536 -10.26368 -10.25465 -10.25347
 Alpha  occ. eigenvalues --  -10.25327 -10.24514 -10.23306 -10.22355  -1.17844
 Alpha  occ. eigenvalues --   -1.13458  -1.12775  -1.12610  -1.11427  -1.10808
 Alpha  occ. eigenvalues --   -1.04492  -1.03940  -1.02127  -1.01846  -1.00622
 Alpha  occ. eigenvalues --   -0.98620  -0.98452  -0.95178  -0.95139  -0.91420
 Alpha  occ. eigenvalues --   -0.88674  -0.86841  -0.86441  -0.84609  -0.82768
 Alpha  occ. eigenvalues --   -0.82525  -0.81045  -0.78347  -0.77128  -0.75046
 Alpha  occ. eigenvalues --   -0.74120  -0.73498  -0.72827  -0.72554  -0.72299
 Alpha  occ. eigenvalues --   -0.70228  -0.69665  -0.69006  -0.68183  -0.67735
 Alpha  occ. eigenvalues --   -0.67153  -0.66755  -0.65343  -0.64816  -0.63691
 Alpha  occ. eigenvalues --   -0.62838  -0.62374  -0.61795  -0.61637  -0.60659
 Alpha  occ. eigenvalues --   -0.60114  -0.59565  -0.58484  -0.57794  -0.56756
 Alpha  occ. eigenvalues --   -0.56194  -0.56117  -0.55610  -0.55449  -0.54829
 Alpha  occ. eigenvalues --   -0.54173  -0.53655  -0.53129  -0.52533  -0.52280
 Alpha  occ. eigenvalues --   -0.51677  -0.51458  -0.50727  -0.50435  -0.50342
 Alpha  occ. eigenvalues --   -0.49978  -0.49906  -0.49226  -0.49084  -0.48954
 Alpha  occ. eigenvalues --   -0.48660  -0.47942  -0.46964  -0.46523  -0.45869
 Alpha  occ. eigenvalues --   -0.45452  -0.44883  -0.44579  -0.44186  -0.43747
 Alpha  occ. eigenvalues --   -0.43544  -0.42894  -0.42333  -0.42194  -0.41817
 Alpha  occ. eigenvalues --   -0.41461  -0.40392  -0.40093  -0.40010  -0.39464
 Alpha  occ. eigenvalues --   -0.39284  -0.38860  -0.38422  -0.38009  -0.37318
 Alpha  occ. eigenvalues --   -0.36927  -0.35822  -0.35131  -0.34861  -0.33594
 Alpha  occ. eigenvalues --   -0.33478  -0.33213  -0.33088  -0.32654  -0.25987
 Alpha  occ. eigenvalues --   -0.25951  -0.23912
 Alpha virt. eigenvalues --   -0.11479  -0.10017  -0.09581  -0.08495  -0.08069
 Alpha virt. eigenvalues --   -0.06748  -0.06324  -0.05112  -0.04866  -0.04659
 Alpha virt. eigenvalues --   -0.01844  -0.01347  -0.01196  -0.00924  -0.00219

 Mulliken charges:
               1
     1  N   -0.751222
     2  H    0.417672
     3  H    0.430098
     4  H    0.410679
     5  C   -0.111847
     6  H    0.215072
     7  C    0.659704
     8  C   -0.383064
     9  H    0.186268
    10  H    0.173864
    11  O   -0.550849
    12  C    0.151553
    13  C   -0.188946
    14  H    0.135096
    15  C   -0.187553
    16  H    0.125968
    17  C   -0.119265
    18  H    0.191251
    19  C   -0.120140
    20  H    0.148631
    21  C   -0.120123
    22  H    0.149268
    23  N   -0.587806
    24  H    0.383763
    25  C   -0.087553
    26  H    0.180906
    27  C    0.648626
    28  C   -0.274343
    29  H    0.225514
    30  H    0.132219
    31  O   -0.523410
    32  C   -0.069729
    33  H    0.100864
    34  C   -0.444661
    35  H    0.150818
    36  H    0.139642
    37  H    0.175235
    38  C   -0.457261
    39  H    0.136693
    40  H    0.153985
    41  H    0.149299
    42  N   -0.634431
    43  H    0.340609
    44  C   -0.030438
    45  H    0.227024
    46  C    0.624680
    47  C   -0.406584
    48  H    0.152868
    49  H    0.215968
    50  O   -0.621518
    51  C    0.613805
    52  N   -0.746725
    53  H    0.352525
    54  H    0.346393
    55  O   -0.502744
    56  N   -0.597869
    57  H    0.380669
    58  C   -0.077907
    59  H    0.131411
    60  C    0.583581
    61  C   -0.276004
    62  H    0.178352
    63  H    0.124633
    64  O   -0.617288
    65  C   -0.266527
    66  H    0.157825
    67  H    0.190500
    68  C   -0.178916
    69  H    0.184712
    70  H    0.148949
    71  N   -0.602203
    72  H    0.412614
    73  N   -0.761202
    74  H    0.372640
    75  H    0.382198
    76  N   -0.773927
    77  H    0.356103
    78  H    0.404261
    79  C    0.783729
    80  O   -0.566681
 Sum of Mulliken charges =   1.00000

 Dipole moment (field-independent basis, Debye):
    X=             -1.0220    Y=              2.5176    Z=              7.2130  Tot=              7.7078
 Quadrupole moment (field-independent basis, Debye-Ang):
   XX=           -150.8251   YY=           -210.1696   ZZ=            -54.4197
   XY=             35.9479   XZ=           -103.4521   YZ=             24.5602

 Normal termination of Gaussian 16 at Sun Jun 19 01:47:13 2022.
