 Gaussian 16, Revision C.01,
 Gaussian 16:  ES64L-G16RevC.01  3-Jul-2019

 -------------------------------------------------------------------
 # B3LYP/6-31G* guess=read geom=check nosymm integral(ultrafinegrid)
 -------------------------------------------------------------------

 ------------------------------------------------------
 Candidate Structure: Conf:966 Charge calc in gas phase
 ------------------------------------------------------
 Structure from the checkpoint file:  "conf-966.chk"
 Charge =  1 Multiplicity = 1

                          Input orientation:
 ---------------------------------------------------------------------
 Center     Atomic      Atomic             Coordinates (Angstroms)
 Number     Number       Type             X           Y           Z
 ---------------------------------------------------------------------
      1          7           0       -1.179274   -0.965686   -0.187064
      2          1           0       -0.422446   -1.640624   -0.027758
      3          1           0       -1.946565   -1.385329   -0.724309
      4          1           0       -0.806839   -0.193881   -0.796853
      5          6           0       -1.751108   -0.409189    1.100008
      6          1           0       -2.286704   -1.238655    1.574420
      7          6           0       -2.829300    0.586982    0.602959
      8          6           0       -0.619967    0.067187    2.031596
      9          1           0       -1.067290    0.696436    2.809565
     10          1           0        0.095602    0.677110    1.464377
     11          8           0       -3.498167    0.241188   -0.370871
     12          6           0        0.080253   -1.098523    2.711835
     13          6           0       -0.333344   -1.529377    3.979844
     14          1           0       -1.127820   -0.996798    4.498742
     15          6           0        1.113613   -1.793968    2.064777
     16          1           0        1.460659   -1.454250    1.089799
     17          6           0        0.266427   -2.631502    4.590799
     18          1           0       -0.063352   -2.947408    5.576319
     19          6           0        1.702054   -2.907896    2.672008
     20          1           0        2.481806   -3.459811    2.150969
     21          6           0        1.284037   -3.327926    3.935889
     22          1           0        1.744180   -4.191993    4.406268
     23          7           0       -2.972936    1.766631    1.241637
     24          1           0       -2.321981    2.011451    1.976056
     25          6           0       -3.797633    2.865944    0.698145
     26          1           0       -4.465520    2.396637   -0.027993
     27          6           0       -2.840820    3.840755   -0.055430
     28          6           0       -4.594600    3.577858    1.791811
     29          1           0       -3.891255    4.039506    2.497532
     30          1           0       -5.118583    4.416159    1.317015
     31          8           0       -2.695138    5.006226    0.295892
     32          6           0       -5.603684    2.696112    2.553660
     33          1           0       -5.048386    1.869241    3.022058
     34          6           0       -6.258776    3.515038    3.676326
     35          1           0       -6.837983    4.351275    3.265204
     36          1           0       -6.943516    2.895517    4.265835
     37          1           0       -5.510384    3.933297    4.359948
     38          6           0       -6.670336    2.085041    1.631268
     39          1           0       -7.221746    2.868967    1.096214
     40          1           0       -6.241320    1.405427    0.886104
     41          1           0       -7.398748    1.509915    2.213511
     42          7           0       -2.172975    3.226432   -1.070953
     43          1           0       -2.407848    2.254700   -1.258337
     44          6           0       -0.909066    3.594019   -1.704563
     45          1           0       -1.097778    4.134468   -2.642353
     46          6           0       -0.224997    2.237959   -2.036969
     47          6           0        0.008469    4.454870   -0.785264
     48          1           0       -0.626464    5.030047   -0.112768
     49          1           0        0.643271    3.790599   -0.186743
     50          8           0       -0.840755    1.172968   -1.820870
     51          6           0        0.919377    5.381822   -1.581051
     52          7           0        0.785792    6.701142   -1.318626
     53          1           0        1.338130    7.359270   -1.853035
     54          1           0        0.054852    7.058618   -0.720873
     55          8           0        1.737864    4.962922   -2.407507
     56          7           0        1.018866    2.267336   -2.504402
     57          1           0        1.479741    3.185500   -2.575397
     58          6           0        1.812876    1.042534   -2.498200
     59          1           0        1.359536    0.313232   -3.175937
     60          6           0        1.825829    0.403978   -1.074624
     61          6           0        3.243823    1.367923   -2.973396
     62          1           0        3.622512    2.193942   -2.356901
     63          1           0        3.188307    1.753676   -3.997099
     64          8           0        1.828137    1.156656   -0.077476
     65          6           0        4.192379    0.145862   -2.907444
     66          1           0        3.618395   -0.746983   -2.646286
     67          1           0        4.631826   -0.047548   -3.892522
     68          6           0        5.380260    0.290618   -1.937724
     69          1           0        5.858733   -0.680369   -1.780557
     70          1           0        6.132416    0.962590   -2.362229
     71          7           0        5.080571    0.854208   -0.605705
     72          1           0        5.170650    1.855943   -0.504433
     73          7           0        4.200286   -1.057389    0.383349
     74          1           0        4.060977   -1.539478    1.263924
     75          1           0        3.403821   -1.178879   -0.287417
     76          7           0        4.886104    0.737540    1.701504
     77          1           0        4.227312    0.526525    2.439087
     78          1           0        5.400546    1.602546    1.794142
     79          6           0        4.691855    0.185586    0.484024
     80          8           0        1.885927   -0.876029   -1.062522
 ---------------------------------------------------------------------

 SCF Done:  E(RB3LYP) =  -1866.62197442     A.U. after    2 cycles

 Alpha  occ. eigenvalues --  -19.23086 -19.22588 -19.21324 -19.20487 -19.18581
 Alpha  occ. eigenvalues --  -19.18274 -14.54755 -14.50295 -14.50163 -14.47783
 Alpha  occ. eigenvalues --  -14.47339 -14.45274 -14.44380 -14.44231 -10.45654
 Alpha  occ. eigenvalues --  -10.40806 -10.38857 -10.38827 -10.37671 -10.37478
 Alpha  occ. eigenvalues --  -10.36121 -10.33945 -10.33882 -10.32332 -10.31133
 Alpha  occ. eigenvalues --  -10.30820 -10.30026 -10.28819 -10.28735 -10.28648
 Alpha  occ. eigenvalues --  -10.28484 -10.28400 -10.28392 -10.28319 -10.28210
 Alpha  occ. eigenvalues --  -10.26139 -10.26101 -10.23805 -10.23656  -1.15687
 Alpha  occ. eigenvalues --   -1.14291  -1.14137  -1.12856  -1.12103  -1.11287
 Alpha  occ. eigenvalues --   -1.09471  -1.03926  -1.03897  -1.02798  -1.01623
 Alpha  occ. eigenvalues --   -1.01471  -1.00930  -0.99918  -0.95528  -0.90696
 Alpha  occ. eigenvalues --   -0.89611  -0.88521  -0.87431  -0.84622  -0.84044
 Alpha  occ. eigenvalues --   -0.83870  -0.82200  -0.78819  -0.77229  -0.77186
 Alpha  occ. eigenvalues --   -0.74988  -0.74687  -0.72580  -0.71277  -0.70654
 Alpha  occ. eigenvalues --   -0.70436  -0.70185  -0.69500  -0.68903  -0.68607
 Alpha  occ. eigenvalues --   -0.68287  -0.67191  -0.66652  -0.65149  -0.64595
 Alpha  occ. eigenvalues --   -0.63254  -0.62850  -0.62669  -0.62145  -0.61397
 Alpha  occ. eigenvalues --   -0.60878  -0.60693  -0.59460  -0.58830  -0.58427
 Alpha  occ. eigenvalues --   -0.57325  -0.57038  -0.56345  -0.55665  -0.55298
 Alpha  occ. eigenvalues --   -0.55020  -0.54537  -0.54305  -0.54072  -0.53241
 Alpha  occ. eigenvalues --   -0.53062  -0.52792  -0.51964  -0.51538  -0.51367
 Alpha  occ. eigenvalues --   -0.51128  -0.50623  -0.50290  -0.50115  -0.49753
 Alpha  occ. eigenvalues --   -0.49501  -0.49205  -0.48390  -0.48154  -0.47955
 Alpha  occ. eigenvalues --   -0.47359  -0.46862  -0.46174  -0.45703  -0.45599
 Alpha  occ. eigenvalues --   -0.45346  -0.44825  -0.44607  -0.44514  -0.44117
 Alpha  occ. eigenvalues --   -0.43965  -0.43430  -0.43281  -0.43139  -0.41015
 Alpha  occ. eigenvalues --   -0.39872  -0.39535  -0.39408  -0.39026  -0.37910
 Alpha  occ. eigenvalues --   -0.37280  -0.36989  -0.36754  -0.36297  -0.35175
 Alpha  occ. eigenvalues --   -0.34822  -0.34471  -0.34219  -0.34026  -0.33021
 Alpha  occ. eigenvalues --   -0.32102  -0.31972
 Alpha virt. eigenvalues --   -0.11517  -0.10650  -0.10389  -0.10178  -0.08553
 Alpha virt. eigenvalues --   -0.07038  -0.06500  -0.06218  -0.04762  -0.03807
 Alpha virt. eigenvalues --   -0.02650  -0.02120  -0.01537  -0.00453   0.00163

 Mulliken charges:
               1
     1  N   -0.770045
     2  H    0.411436
     3  H    0.411057
     4  H    0.475706
     5  C   -0.113995
     6  H    0.219861
     7  C    0.650775
     8  C   -0.420563
     9  H    0.160875
    10  H    0.229741
    11  O   -0.534119
    12  C    0.139014
    13  C   -0.179630
    14  H    0.138252
    15  C   -0.244604
    16  H    0.180425
    17  C   -0.125620
    18  H    0.157997
    19  C   -0.160819
    20  H    0.139859
    21  C   -0.124014
    22  H    0.156550
    23  N   -0.599440
    24  H    0.347480
    25  C   -0.106434
    26  H    0.213691
    27  C    0.620295
    28  C   -0.260957
    29  H    0.142176
    30  H    0.168958
    31  O   -0.517420
    32  C   -0.071715
    33  H    0.113559
    34  C   -0.444289
    35  H    0.152785
    36  H    0.152841
    37  H    0.141730
    38  C   -0.460456
    39  H    0.150834
    40  H    0.151944
    41  H    0.155813
    42  N   -0.646418
    43  H    0.384112
    44  C   -0.013596
    45  H    0.198472
    46  C    0.624831
    47  C   -0.435806
    48  H    0.213208
    49  H    0.200498
    50  O   -0.606515
    51  C    0.615233
    52  N   -0.730931
    53  H    0.359515
    54  H    0.366433
    55  O   -0.532576
    56  N   -0.622387
    57  H    0.404344
    58  C    0.003458
    59  H    0.172005
    60  C    0.580162
    61  C   -0.309354
    62  H    0.137898
    63  H    0.176498
    64  O   -0.590673
    65  C   -0.299252
    66  H    0.194077
    67  H    0.169139
    68  C   -0.159709
    69  H    0.196229
    70  H    0.179545
    71  N   -0.578973
    72  H    0.357995
    73  N   -0.753979
    74  H    0.351224
    75  H    0.424802
    76  N   -0.748555
    77  H    0.377173
    78  H    0.366592
    79  C    0.764305
    80  O   -0.638560
 Sum of Mulliken charges =   1.00000

 Dipole moment (field-independent basis, Debye):
    X=              8.9673    Y=              4.8728    Z=              4.9959  Tot=             11.3629
 Quadrupole moment (field-independent basis, Debye-Ang):
   XX=           -148.8291   YY=           -175.4130   ZZ=           -197.1914
   XY=             10.7820   XZ=             -6.4725   YZ=             -9.8415

 Normal termination of Gaussian 16 at Sun Jun 19 01:47:18 2022.
