 Gaussian 16, Revision C.01,
 Gaussian 16:  ES64L-G16RevC.01  3-Jul-2019

 -------------------------------------------------------------------
 # B3LYP/6-31G* guess=read geom=check nosymm integral(ultrafinegrid)
 -------------------------------------------------------------------

 ------------------------------------------------------
 Candidate Structure: Conf:448 Charge calc in gas phase
 ------------------------------------------------------
 Structure from the checkpoint file:  "conf-448.chk"
 Charge =  1 Multiplicity = 1

                          Input orientation:
 ---------------------------------------------------------------------
 Center     Atomic      Atomic             Coordinates (Angstroms)
 Number     Number       Type             X           Y           Z
 ---------------------------------------------------------------------
      1          7           0       -5.965705    2.818418    2.440396
      2          1           0       -6.661091    3.066850    1.731710
      3          1           0       -5.833676    1.750077    2.441419
      4          1           0       -6.281963    3.166332    3.349395
      5          6           0       -4.558405    3.264542    2.084507
      6          1           0       -4.624197    4.016833    1.296221
      7          6           0       -3.934346    1.935151    1.561381
      8          6           0       -3.865165    3.848219    3.336932
      9          1           0       -3.733810    3.046752    4.073891
     10          1           0       -4.546740    4.590198    3.777293
     11          8           0       -4.557360    0.891409    1.842337
     12          6           0       -2.536871    4.510089    3.029094
     13          6           0       -1.330652    3.907959    3.404015
     14          1           0       -1.340770    2.951615    3.921296
     15          6           0       -2.506172    5.747638    2.368910
     16          1           0       -3.436457    6.241355    2.092067
     17          6           0       -0.113650    4.528566    3.120204
     18          1           0        0.815152    4.048908    3.412520
     19          6           0       -1.290241    6.366633    2.083953
     20          1           0       -1.279027    7.326952    1.576865
     21          6           0       -0.091489    5.756294    2.459680
     22          1           0        0.856065    6.237874    2.237873
     23          7           0       -2.818498    2.010471    0.858584
     24          1           0       -2.289283    2.882432    0.770567
     25          6           0       -2.064849    0.855847    0.346970
     26          1           0       -2.253452    0.001734    1.002209
     27          6           0       -0.588216    1.293252    0.408480
     28          6           0       -2.426305    0.523975   -1.120312
     29          1           0       -2.296171    1.445519   -1.702094
     30          1           0       -1.664405   -0.170063   -1.495680
     31          8           0       -0.306513    2.493524    0.361938
     32          6           0       -3.829068   -0.063517   -1.368804
     33          1           0       -4.576815    0.624569   -0.945702
     34          6           0       -4.079740   -0.150537   -2.882921
     35          1           0       -3.356575   -0.823076   -3.360332
     36          1           0       -5.082946   -0.538431   -3.092997
     37          1           0       -3.988499    0.830528   -3.364197
     38          6           0       -4.017304   -1.436220   -0.705899
     39          1           0       -3.263593   -2.149246   -1.062810
     40          1           0       -3.947793   -1.380614    0.385174
     41          1           0       -5.003420   -1.849097   -0.947738
     42          7           0        0.298960    0.288844    0.501376
     43          1           0       -0.007358   -0.685996    0.469131
     44          6           0        1.706633    0.461973    0.192608
     45          1           0        2.043495    1.408064    0.628301
     46          6           0        1.906837    0.523535   -1.352467
     47          6           0        2.499607   -0.714213    0.814412
     48          1           0        3.575094   -0.570523    0.688716
     49          1           0        2.293024   -0.741014    1.889339
     50          8           0        0.962171    0.451914   -2.129946
     51          6           0        2.042243   -2.051397    0.224280
     52          7           0        2.965327   -2.731689   -0.483210
     53          1           0        2.655834   -3.580413   -0.939986
     54          1           0        3.827330   -2.286552   -0.817718
     55          8           0        0.882490   -2.445705    0.403364
     56          7           0        3.207164    0.632709   -1.740785
     57          1           0        3.913524    0.411075   -1.044996
     58          6           0        3.647222    0.181701   -3.059772
     59          1           0        2.837442   -0.429208   -3.480664
     60          6           0        4.890336   -0.751905   -2.846576
     61          6           0        3.922117    1.347240   -4.029240
     62          1           0        4.896674    1.792587   -3.789531
     63          1           0        3.169764    2.126693   -3.862888
     64          8           0        5.575960   -1.042438   -3.869748
     65          6           0        3.884346    0.883432   -5.494037
     66          1           0        4.291424   -0.126435   -5.566334
     67          1           0        2.842543    0.814273   -5.834046
     68          6           0        4.600898    1.800863   -6.487441
     69          1           0        4.598269    1.344836   -7.484907
     70          1           0        4.076725    2.757876   -6.566197
     71          7           0        5.994689    2.176218   -6.146416
     72          1           0        6.203518    3.164729   -6.154423
     73          7           0        6.951685    0.090281   -5.717779
     74          1           0        7.779109   -0.488212   -5.793711
     75          1           0        6.230696   -0.275804   -5.013667
     76          7           0        8.281408    1.911054   -6.304350
     77          1           0        9.125105    1.424162   -6.039151
     78          1           0        8.380242    2.708851   -6.914879
     79          6           0        7.064658    1.366526   -6.053208
     80          8           0        5.096213   -1.160161   -1.678759
 ---------------------------------------------------------------------

 SCF Done:  E(RB3LYP) =  -1866.59640323     A.U. after    1 cycles

 Alpha  occ. eigenvalues --  -19.25332 -19.18834 -19.16828 -19.16276 -19.14342
 Alpha  occ. eigenvalues --  -19.13972 -14.58544 -14.48269 -14.47763 -14.47634
 Alpha  occ. eigenvalues --  -14.44818 -14.41891 -14.39810 -14.39429 -10.43464
 Alpha  occ. eigenvalues --  -10.41999 -10.39633 -10.35802 -10.33960 -10.33590
 Alpha  occ. eigenvalues --  -10.33132 -10.32384 -10.31788 -10.31688 -10.29868
 Alpha  occ. eigenvalues --  -10.29769 -10.28374 -10.28051 -10.27692 -10.27442
 Alpha  occ. eigenvalues --  -10.27365 -10.26794 -10.25788 -10.25519 -10.25362
 Alpha  occ. eigenvalues --  -10.25224 -10.24315 -10.23186 -10.22922  -1.17799
 Alpha  occ. eigenvalues --   -1.12293  -1.11872  -1.10774  -1.08547  -1.07729
 Alpha  occ. eigenvalues --   -1.07324  -1.04039  -1.01496  -0.99839  -0.99030
 Alpha  occ. eigenvalues --   -0.98612  -0.96484  -0.95469  -0.94562  -0.91481
 Alpha  occ. eigenvalues --   -0.88098  -0.86639  -0.84971  -0.84340  -0.83300
 Alpha  occ. eigenvalues --   -0.81954  -0.80524  -0.78420  -0.75456  -0.74039
 Alpha  occ. eigenvalues --   -0.73765  -0.73222  -0.72525  -0.71874  -0.71647
 Alpha  occ. eigenvalues --   -0.69556  -0.69126  -0.68723  -0.67483  -0.67206
 Alpha  occ. eigenvalues --   -0.65943  -0.64845  -0.64516  -0.63365  -0.62500
 Alpha  occ. eigenvalues --   -0.62218  -0.61561  -0.61229  -0.60043  -0.59968
 Alpha  occ. eigenvalues --   -0.59640  -0.58016  -0.57628  -0.56801  -0.56432
 Alpha  occ. eigenvalues --   -0.55833  -0.55385  -0.54868  -0.54630  -0.53994
 Alpha  occ. eigenvalues --   -0.53658  -0.53001  -0.51966  -0.51413  -0.50905
 Alpha  occ. eigenvalues --   -0.50735  -0.50659  -0.50396  -0.50186  -0.49996
 Alpha  occ. eigenvalues --   -0.49440  -0.49357  -0.49209  -0.47867  -0.47421
 Alpha  occ. eigenvalues --   -0.46905  -0.46478  -0.45389  -0.45267  -0.45124
 Alpha  occ. eigenvalues --   -0.44798  -0.44489  -0.44298  -0.44011  -0.43808
 Alpha  occ. eigenvalues --   -0.43462  -0.43291  -0.43038  -0.42845  -0.42429
 Alpha  occ. eigenvalues --   -0.41515  -0.41144  -0.40361  -0.40163  -0.39499
 Alpha  occ. eigenvalues --   -0.38973  -0.38921  -0.38689  -0.38596  -0.36839
 Alpha  occ. eigenvalues --   -0.36178  -0.33800  -0.33697  -0.33084  -0.32498
 Alpha  occ. eigenvalues --   -0.31717  -0.31159  -0.30315  -0.30196  -0.29549
 Alpha  occ. eigenvalues --   -0.28373  -0.28002
 Alpha virt. eigenvalues --   -0.11067  -0.10008  -0.09822  -0.08926  -0.08823
 Alpha virt. eigenvalues --   -0.05058  -0.04913  -0.04478  -0.03318  -0.02338
 Alpha virt. eigenvalues --   -0.01678  -0.01211  -0.00629  -0.00011   0.00446

 Mulliken charges:
               1
     1  N   -0.761768
     2  H    0.412983
     3  H    0.435898
     4  H    0.408377
     5  C   -0.105524
     6  H    0.214815
     7  C    0.656279
     8  C   -0.383484
     9  H    0.188586
    10  H    0.175807
    11  O   -0.552593
    12  C    0.144078
    13  C   -0.174286
    14  H    0.141821
    15  C   -0.186137
    16  H    0.124670
    17  C   -0.101419
    18  H    0.155060
    19  C   -0.122241
    20  H    0.153324
    21  C   -0.115703
    22  H    0.155542
    23  N   -0.591994
    24  H    0.381051
    25  C   -0.097593
    26  H    0.190506
    27  C    0.641662
    28  C   -0.256653
    29  H    0.150040
    30  H    0.190354
    31  O   -0.551893
    32  C   -0.067881
    33  H    0.100212
    34  C   -0.444752
    35  H    0.157881
    36  H    0.146520
    37  H    0.140064
    38  C   -0.458327
    39  H    0.156751
    40  H    0.156471
    41  H    0.146846
    42  N   -0.607846
    43  H    0.379586
    44  C   -0.087730
    45  H    0.187354
    46  C    0.608244
    47  C   -0.386898
    48  H    0.179731
    49  H    0.184642
    50  O   -0.523512
    51  C    0.589182
    52  N   -0.762807
    53  H    0.339211
    54  H    0.406489
    55  O   -0.541600
    56  N   -0.600861
    57  H    0.342732
    58  C   -0.065889
    59  H    0.176046
    60  C    0.592584
    61  C   -0.254756
    62  H    0.129768
    63  H    0.154728
    64  O   -0.611252
    65  C   -0.301018
    66  H    0.187256
    67  H    0.161226
    68  C   -0.144477
    69  H    0.178918
    70  H    0.165617
    71  N   -0.598524
    72  H    0.351894
    73  N   -0.759576
    74  H    0.352322
    75  H    0.461873
    76  N   -0.762306
    77  H    0.371105
    78  H    0.365937
    79  C    0.763174
    80  O   -0.573918
 Sum of Mulliken charges =   1.00000

 Dipole moment (field-independent basis, Debye):
    X=             -2.3348    Y=             19.5569    Z=             -6.2769  Tot=             20.6718
 Quadrupole moment (field-independent basis, Debye-Ang):
   XX=             18.2004   YY=           -167.5855   ZZ=            -94.8809
   XY=            -14.4654   XZ=           -159.7272   YZ=             -8.2941

 Normal termination of Gaussian 16 at Sun Jun 19 01:46:50 2022.
