 Gaussian 16, Revision C.01,
 Gaussian 16:  ES64L-G16RevC.01  3-Jul-2019

 -------------------------------------------------------------------
 # B3LYP/6-31G* guess=read geom=check nosymm integral(ultrafinegrid)
 -------------------------------------------------------------------

 ------------------------------------------------------
 Candidate Structure: Conf:315 Charge calc in gas phase
 ------------------------------------------------------
 Structure from the checkpoint file:  "conf-315.chk"
 Charge =  1 Multiplicity = 1

                          Input orientation:
 ---------------------------------------------------------------------
 Center     Atomic      Atomic             Coordinates (Angstroms)
 Number     Number       Type             X           Y           Z
 ---------------------------------------------------------------------
      1          7           0       -1.785249    3.054873    2.421539
      2          1           0       -0.803535    3.242959    2.062132
      3          1           0       -2.320995    3.933818    2.300125
      4          1           0       -1.808619    2.769840    3.403744
      5          6           0       -2.430770    2.059007    1.500774
      6          1           0       -1.650076    1.364253    1.179761
      7          6           0       -2.868388    2.925367    0.293313
      8          6           0       -3.580556    1.286565    2.202375
      9          1           0       -3.129100    0.468979    2.775942
     10          1           0       -4.181964    0.816062    1.416177
     11          8           0       -3.075401    4.125100    0.469798
     12          6           0       -4.441550    2.131952    3.119953
     13          6           0       -4.232260    2.084451    4.506737
     14          1           0       -3.496197    1.394999    4.918492
     15          6           0       -5.432684    2.986940    2.616400
     16          1           0       -5.621528    3.029303    1.547123
     17          6           0       -4.988778    2.878214    5.372104
     18          1           0       -4.821071    2.820743    6.443653
     19          6           0       -6.189870    3.778195    3.479900
     20          1           0       -6.958486    4.430702    3.076155
     21          6           0       -5.967479    3.729010    4.858321
     22          1           0       -6.561772    4.343513    5.528000
     23          7           0       -2.970325    2.245179   -0.871094
     24          1           0       -2.575122    1.308683   -0.836042
     25          6           0       -2.929041    2.792733   -2.248236
     26          1           0       -3.511506    2.104328   -2.865144
     27          6           0       -1.482560    2.620046   -2.763310
     28          6           0       -3.473957    4.216200   -2.448496
     29          1           0       -2.892729    4.924934   -1.853731
     30          1           0       -3.288281    4.455467   -3.505167
     31          8           0       -1.272730    2.042985   -3.834862
     32          6           0       -4.976632    4.406529   -2.152980
     33          1           0       -5.147677    4.140515   -1.101804
     34          6           0       -5.339558    5.889783   -2.320812
     35          1           0       -5.174044    6.223104   -3.353334
     36          1           0       -6.394638    6.063287   -2.082529
     37          1           0       -4.737187    6.524091   -1.660878
     38          6           0       -5.873027    3.522550   -3.032801
     39          1           0       -5.709164    3.729769   -4.098313
     40          1           0       -5.702486    2.452102   -2.867133
     41          1           0       -6.930117    3.715578   -2.819922
     42          7           0       -0.490651    3.075654   -1.957317
     43          1           0       -0.733528    3.464588   -1.050379
     44          6           0        0.821986    2.452480   -1.991378
     45          1           0        1.239579    2.553406   -2.998295
     46          6           0        0.686950    0.940875   -1.647209
     47          6           0        1.789628    3.147229   -1.001362
     48          1           0        2.794363    2.744735   -1.137600
     49          1           0        1.805287    4.217586   -1.234613
     50          8           0       -0.307091    0.502819   -1.073363
     51          6           0        1.372818    3.001224    0.458786
     52          7           0        2.219386    2.357002    1.251685
     53          1           0        1.973482    2.230645    2.226249
     54          1           0        2.955769    1.730566    0.832301
     55          8           0        0.281297    3.508245    0.833576
     56          7           0        1.743785    0.158169   -2.060507
     57          1           0        2.601214    0.713154   -2.144316
     58          6           0        2.100717   -1.027747   -1.234978
     59          1           0        1.173889   -1.405140   -0.799574
     60          6           0        3.035093   -0.537320   -0.068354
     61          6           0        2.774431   -2.143145   -2.046254
     62          1           0        2.961684   -2.952493   -1.335136
     63          1           0        3.765814   -1.809164   -2.385012
     64          8           0        3.547754    0.623970   -0.266422
     65          6           0        1.946163   -2.654625   -3.246919
     66          1           0        2.029941   -3.743495   -3.337383
     67          1           0        0.883085   -2.445322   -3.073556
     68          6           0        2.387756   -2.013189   -4.580422
     69          1           0        2.732673   -0.986295   -4.428413
     70          1           0        3.232857   -2.555461   -5.012403
     71          7           0        1.340622   -1.969442   -5.615499
     72          1           0        1.214985   -2.785183   -6.199864
     73          7           0        0.328712   -0.090642   -4.716144
     74          1           0       -0.359272    0.665994   -4.701395
     75          1           0        0.897450   -0.155027   -3.865931
     76          7           0       -0.562040   -1.085208   -6.617246
     77          1           0       -1.259277   -0.355290   -6.664008
     78          1           0       -0.359928   -1.560190   -7.485724
     79          6           0        0.372382   -1.039704   -5.639046
     80          8           0        3.159335   -1.301040    0.886928
 ---------------------------------------------------------------------

 SCF Done:  E(RB3LYP) =  -1866.61019407     A.U. after    3 cycles

 Alpha  occ. eigenvalues --  -19.24615 -19.23403 -19.23321 -19.23287 -19.14487
 Alpha  occ. eigenvalues --  -19.13165 -14.54916 -14.50701 -14.50691 -14.48498
 Alpha  occ. eigenvalues --  -14.48243 -14.46168 -14.45097 -14.44220 -10.46545
 Alpha  occ. eigenvalues --  -10.41622 -10.39939 -10.39744 -10.39383 -10.37515
 Alpha  occ. eigenvalues --  -10.34673 -10.34339 -10.34195 -10.31942 -10.31829
 Alpha  occ. eigenvalues --  -10.29964 -10.29937 -10.28831 -10.28771 -10.28647
 Alpha  occ. eigenvalues --  -10.28433 -10.28197 -10.28088 -10.27928 -10.27841
 Alpha  occ. eigenvalues --  -10.27025 -10.26776 -10.25140 -10.24452  -1.16801
 Alpha  occ. eigenvalues --   -1.15296  -1.15008  -1.14017  -1.13675  -1.09879
 Alpha  occ. eigenvalues --   -1.07249  -1.05079  -1.04560  -1.02972  -1.02778
 Alpha  occ. eigenvalues --   -1.01418  -1.00094  -0.98175  -0.95343  -0.91224
 Alpha  occ. eigenvalues --   -0.89546  -0.89310  -0.88231  -0.85293  -0.83751
 Alpha  occ. eigenvalues --   -0.83423  -0.83055  -0.78777  -0.77554  -0.77467
 Alpha  occ. eigenvalues --   -0.75986  -0.75215  -0.74571  -0.72501  -0.70853
 Alpha  occ. eigenvalues --   -0.70600  -0.69799  -0.69505  -0.68958  -0.68356
 Alpha  occ. eigenvalues --   -0.68138  -0.67745  -0.67286  -0.66237  -0.65140
 Alpha  occ. eigenvalues --   -0.64046  -0.63492  -0.63243  -0.62432  -0.62222
 Alpha  occ. eigenvalues --   -0.61115  -0.59938  -0.59352  -0.59078  -0.58425
 Alpha  occ. eigenvalues --   -0.57918  -0.57058  -0.56969  -0.56446  -0.55896
 Alpha  occ. eigenvalues --   -0.55404  -0.54841  -0.54706  -0.54518  -0.54128
 Alpha  occ. eigenvalues --   -0.53504  -0.52617  -0.52333  -0.52253  -0.51567
 Alpha  occ. eigenvalues --   -0.51293  -0.51015  -0.50572  -0.50319  -0.49809
 Alpha  occ. eigenvalues --   -0.49326  -0.49246  -0.48838  -0.48193  -0.48007
 Alpha  occ. eigenvalues --   -0.47653  -0.47093  -0.46666  -0.46397  -0.45789
 Alpha  occ. eigenvalues --   -0.45440  -0.45198  -0.44497  -0.44277  -0.43584
 Alpha  occ. eigenvalues --   -0.43543  -0.43332  -0.42716  -0.41318  -0.41271
 Alpha  occ. eigenvalues --   -0.40859  -0.40741  -0.40377  -0.39785  -0.38947
 Alpha  occ. eigenvalues --   -0.38163  -0.37919  -0.37715  -0.37341  -0.36857
 Alpha  occ. eigenvalues --   -0.35751  -0.35210  -0.34413  -0.34057  -0.29818
 Alpha  occ. eigenvalues --   -0.29296  -0.26874
 Alpha virt. eigenvalues --   -0.12033  -0.10576  -0.10112  -0.09968  -0.09766
 Alpha virt. eigenvalues --   -0.08483  -0.08139  -0.06725  -0.05411  -0.02991
 Alpha virt. eigenvalues --   -0.02284  -0.00968  -0.00852  -0.00515  -0.00324

 Mulliken charges:
               1
     1  N   -0.761717
     2  H    0.428397
     3  H    0.417497
     4  H    0.391758
     5  C   -0.116582
     6  H    0.222338
     7  C    0.643406
     8  C   -0.385017
     9  H    0.184974
    10  H    0.193918
    11  O   -0.528346
    12  C    0.140730
    13  C   -0.217561
    14  H    0.137389
    15  C   -0.174363
    16  H    0.149319
    17  C   -0.122403
    18  H    0.158186
    19  C   -0.126441
    20  H    0.157563
    21  C   -0.124781
    22  H    0.160198
    23  N   -0.607338
    24  H    0.366550
    25  C   -0.076898
    26  H    0.184323
    27  C    0.622108
    28  C   -0.267754
    29  H    0.172191
    30  H    0.156039
    31  O   -0.564406
    32  C   -0.077629
    33  H    0.141908
    34  C   -0.449659
    35  H    0.147686
    36  H    0.153907
    37  H    0.155068
    38  C   -0.455180
    39  H    0.147942
    40  H    0.137146
    41  H    0.160279
    42  N   -0.592863
    43  H    0.383605
    44  C   -0.081265
    45  H    0.181880
    46  C    0.613705
    47  C   -0.384802
    48  H    0.217497
    49  H    0.203359
    50  O   -0.533936
    51  C    0.606562
    52  N   -0.728717
    53  H    0.334730
    54  H    0.433340
    55  O   -0.603707
    56  N   -0.637458
    57  H    0.347187
    58  C   -0.084630
    59  H    0.176974
    60  C    0.587987
    61  C   -0.293303
    62  H    0.195829
    63  H    0.152508
    64  O   -0.652801
    65  C   -0.273980
    66  H    0.164312
    67  H    0.154090
    68  C   -0.183979
    69  H    0.183807
    70  H    0.194203
    71  N   -0.596591
    72  H    0.359077
    73  N   -0.832617
    74  H    0.412771
    75  H    0.433221
    76  N   -0.764431
    77  H    0.381033
    78  H    0.372646
    79  C    0.810168
    80  O   -0.530157
 Sum of Mulliken charges =   1.00000

 Dipole moment (field-independent basis, Debye):
    X=            -10.1946    Y=              5.3573    Z=            -12.4979  Tot=             16.9949
 Quadrupole moment (field-independent basis, Debye-Ang):
   XX=           -202.6012   YY=           -191.2164   ZZ=            -75.8998
   XY=            -26.0549   XZ=            -33.9339   YZ=             51.5799

 Normal termination of Gaussian 16 at Sun Jun 19 01:47:38 2022.
