 Gaussian 16, Revision C.01,
 Gaussian 16:  ES64L-G16RevC.01  3-Jul-2019

 -------------------------------------------------------------------
 # B3LYP/6-31G* guess=read geom=check nosymm integral(ultrafinegrid)
 -------------------------------------------------------------------

 ------------------------------------------------------
 Candidate Structure: Conf:876 Charge calc in gas phase
 ------------------------------------------------------
 Structure from the checkpoint file:  "conf-876.chk"
 Charge =  1 Multiplicity = 1

                          Input orientation:
 ---------------------------------------------------------------------
 Center     Atomic      Atomic             Coordinates (Angstroms)
 Number     Number       Type             X           Y           Z
 ---------------------------------------------------------------------
      1          7           0       -5.126744    2.898232    3.718845
      2          1           0       -5.270332    1.845151    3.658398
      3          1           0       -4.581625    3.108127    4.570942
      4          1           0       -6.014084    3.404413    3.744909
      5          6           0       -4.290763    3.169528    2.489223
      6          1           0       -4.964228    3.569097    1.724856
      7          6           0       -3.869459    1.731949    2.050734
      8          6           0       -3.165635    4.188285    2.789621
      9          1           0       -3.629619    5.174044    2.914408
     10          1           0       -2.533785    4.265383    1.898647
     11          8           0       -4.434263    0.782883    2.617791
     12          6           0       -2.341159    3.838070    4.012110
     13          6           0       -2.709643    4.340268    5.272692
     14          1           0       -3.523089    5.061637    5.353158
     15          6           0       -1.229207    2.987327    3.917995
     16          1           0       -0.906720    2.619011    2.946980
     17          6           0       -1.996397    3.981792    6.420677
     18          1           0       -2.285958    4.387100    7.385740
     19          6           0       -0.516121    2.637827    5.064836
     20          1           0        0.349214    1.987178    4.979063
     21          6           0       -0.901595    3.124440    6.316903
     22          1           0       -0.340705    2.848490    7.204793
     23          7           0       -2.990420    1.644289    1.062066
     24          1           0       -2.421600    2.449209    0.793776
     25          6           0       -2.377319    0.400566    0.583437
     26          1           0       -2.517131   -0.367719    1.349198
     27          6           0       -0.879206    0.753147    0.428419
     28          6           0       -2.965302   -0.057737   -0.770131
     29          1           0       -2.791579    0.745002   -1.498139
     30          1           0       -2.368909   -0.910067   -1.118393
     31          8           0       -0.518556    1.937581    0.471730
     32          6           0       -4.455312   -0.450835   -0.760455
     33          1           0       -5.030896    0.392887   -0.350091
     34          6           0       -4.931508   -0.680963   -2.203536
     35          1           0       -4.387044   -1.512348   -2.668237
     36          1           0       -5.998448   -0.928842   -2.228462
     37          1           0       -4.776204    0.207603   -2.826447
     38          6           0       -4.732008   -1.686582    0.109433
     39          1           0       -4.148584   -2.548469   -0.238940
     40          1           0       -4.494206   -1.513062    1.163935
     41          1           0       -5.790826   -1.964073    0.056577
     42          7           0       -0.061184   -0.283923    0.216919
     43          1           0       -0.371263   -1.244646    0.364753
     44          6           0        1.335748   -0.123463   -0.148955
     45          1           0        1.890808    0.334359    0.680262
     46          6           0        1.471268    0.760738   -1.420305
     47          6           0        1.941425   -1.506458   -0.494355
     48          1           0        1.475232   -1.854444   -1.424521
     49          1           0        3.009076   -1.374923   -0.692249
     50          8           0        0.583184    0.798443   -2.265058
     51          6           0        1.683523   -2.581516    0.557398
     52          7           0        2.774732   -3.220347    1.045330
     53          1           0        2.633871   -3.992628    1.683358
     54          1           0        3.703933   -3.057512    0.687240
     55          8           0        0.541022   -2.856133    0.931303
     56          7           0        2.666298    1.379055   -1.521396
     57          1           0        3.424597    1.193778   -0.863744
     58          6           0        3.182188    1.937715   -2.765490
     59          1           0        2.863573    1.302739   -3.600580
     60          6           0        4.734674    1.890657   -2.663796
     61          6           0        2.642334    3.361607   -3.042160
     62          1           0        1.550655    3.295252   -3.018232
     63          1           0        2.907397    3.621123   -4.074677
     64          8           0        5.357409    2.303556   -3.703035
     65          6           0        3.132915    4.458288   -2.058060
     66          1           0        2.274721    4.976538   -1.613779
     67          1           0        3.681166    4.000575   -1.225378
     68          6           0        4.022541    5.539380   -2.701927
     69          1           0        3.471941    6.062047   -3.492810
     70          1           0        4.308715    6.283465   -1.952389
     71          7           0        5.236249    4.958161   -3.294183
     72          1           0        5.087011    4.041347   -3.756781
     73          7           0        6.864523    6.131717   -2.087036
     74          1           0        7.807998    6.176469   -1.730570
     75          1           0        6.433547    7.018128   -2.305862
     76          7           0        7.284678    3.992340   -2.943865
     77          1           0        8.262093    4.041998   -2.698575
     78          1           0        6.826596    3.087541   -3.217335
     79          6           0        6.467471    5.028024   -2.772684
     80          8           0        5.237282    1.516191   -1.589173
 ---------------------------------------------------------------------

 SCF Done:  E(RB3LYP) =  -1866.60973651     A.U. after    1 cycles

 Alpha  occ. eigenvalues --  -19.25652 -19.20448 -19.19492 -19.16500 -19.14375
 Alpha  occ. eigenvalues --  -19.14009 -14.58225 -14.47952 -14.46568 -14.43842
 Alpha  occ. eigenvalues --  -14.43839 -14.43655 -14.43412 -14.40035 -10.42428
 Alpha  occ. eigenvalues --  -10.41358 -10.39915 -10.37287 -10.37204 -10.33854
 Alpha  occ. eigenvalues --  -10.33472 -10.32681 -10.31934 -10.31457 -10.31186
 Alpha  occ. eigenvalues --  -10.30387 -10.30356 -10.29665 -10.29379 -10.29290
 Alpha  occ. eigenvalues --  -10.29208 -10.27967 -10.26717 -10.26379 -10.26105
 Alpha  occ. eigenvalues --  -10.25283 -10.24050 -10.23564 -10.23560  -1.18024
 Alpha  occ. eigenvalues --   -1.12574  -1.12058  -1.11199  -1.10028  -1.08421
 Alpha  occ. eigenvalues --   -1.07284  -1.04683  -1.00431  -0.99792  -0.98641
 Alpha  occ. eigenvalues --   -0.98446  -0.97789  -0.96788  -0.96550  -0.92280
 Alpha  occ. eigenvalues --   -0.88932  -0.86410  -0.85992  -0.85124  -0.85026
 Alpha  occ. eigenvalues --   -0.82840  -0.79853  -0.78956  -0.75696  -0.74581
 Alpha  occ. eigenvalues --   -0.73934  -0.73327  -0.73129  -0.72025  -0.71634
 Alpha  occ. eigenvalues --   -0.70512  -0.69896  -0.68797  -0.67748  -0.67022
 Alpha  occ. eigenvalues --   -0.66682  -0.66305  -0.64663  -0.63762  -0.62926
 Alpha  occ. eigenvalues --   -0.62474  -0.61816  -0.61662  -0.60474  -0.59675
 Alpha  occ. eigenvalues --   -0.58914  -0.58492  -0.58188  -0.57874  -0.56656
 Alpha  occ. eigenvalues --   -0.56439  -0.56130  -0.55742  -0.55582  -0.54830
 Alpha  occ. eigenvalues --   -0.54756  -0.52866  -0.52606  -0.52476  -0.51943
 Alpha  occ. eigenvalues --   -0.51503  -0.51237  -0.51151  -0.50653  -0.50379
 Alpha  occ. eigenvalues --   -0.50219  -0.49795  -0.49159  -0.48791  -0.48277
 Alpha  occ. eigenvalues --   -0.48108  -0.47402  -0.47222  -0.46771  -0.46628
 Alpha  occ. eigenvalues --   -0.45863  -0.45666  -0.44828  -0.44782  -0.44614
 Alpha  occ. eigenvalues --   -0.44574  -0.44236  -0.43435  -0.42979  -0.42561
 Alpha  occ. eigenvalues --   -0.42306  -0.41075  -0.40389  -0.40086  -0.39961
 Alpha  occ. eigenvalues --   -0.39496  -0.39326  -0.38851  -0.37534  -0.37096
 Alpha  occ. eigenvalues --   -0.35879  -0.35477  -0.35059  -0.34455  -0.33765
 Alpha  occ. eigenvalues --   -0.33727  -0.33326  -0.31038  -0.30303  -0.29632
 Alpha  occ. eigenvalues --   -0.28810  -0.28094
 Alpha virt. eigenvalues --   -0.11956  -0.11607  -0.11255  -0.07882  -0.06356
 Alpha virt. eigenvalues --   -0.06070  -0.05670  -0.03441  -0.02814  -0.02660
 Alpha virt. eigenvalues --   -0.02259  -0.00785  -0.00178  -0.00116   0.00083

 Mulliken charges:
               1
     1  N   -0.759745
     2  H    0.433656
     3  H    0.402871
     4  H    0.407428
     5  C   -0.111731
     6  H    0.225691
     7  C    0.656618
     8  C   -0.392485
     9  H    0.185040
    10  H    0.209973
    11  O   -0.542506
    12  C    0.133992
    13  C   -0.235091
    14  H    0.139344
    15  C   -0.186603
    16  H    0.178364
    17  C   -0.119545
    18  H    0.162176
    19  C   -0.127952
    20  H    0.163409
    21  C   -0.121875
    22  H    0.164419
    23  N   -0.592064
    24  H    0.370848
    25  C   -0.108511
    26  H    0.197405
    27  C    0.660985
    28  C   -0.249672
    29  H    0.161861
    30  H    0.165142
    31  O   -0.561573
    32  C   -0.071502
    33  H    0.110542
    34  C   -0.445226
    35  H    0.154574
    36  H    0.150841
    37  H    0.146625
    38  C   -0.461441
    39  H    0.149813
    40  H    0.158570
    41  H    0.151856
    42  N   -0.625347
    43  H    0.378887
    44  C   -0.024478
    45  H    0.164531
    46  C    0.632110
    47  C   -0.412234
    48  H    0.209769
    49  H    0.175449
    50  O   -0.540331
    51  C    0.619821
    52  N   -0.739753
    53  H    0.356838
    54  H    0.355972
    55  O   -0.525443
    56  N   -0.610107
    57  H    0.346863
    58  C   -0.053208
    59  H    0.172804
    60  C    0.593357
    61  C   -0.288367
    62  H    0.176185
    63  H    0.151746
    64  O   -0.639210
    65  C   -0.270837
    66  H    0.148135
    67  H    0.164158
    68  C   -0.168999
    69  H    0.171896
    70  H    0.149661
    71  N   -0.607551
    72  H    0.405388
    73  N   -0.750475
    74  H    0.360362
    75  H    0.366171
    76  N   -0.764099
    77  H    0.346098
    78  H    0.423623
    79  C    0.762010
    80  O   -0.565913
 Sum of Mulliken charges =   1.00000

 Dipole moment (field-independent basis, Debye):
    X=             -3.7051    Y=             19.4326    Z=             12.1847  Tot=             23.2340
 Quadrupole moment (field-independent basis, Debye-Ang):
   XX=            -56.6820   YY=           -100.0551   ZZ=           -170.8551
   XY=              6.1970   XZ=            -63.4695   YZ=             21.9402

 Normal termination of Gaussian 16 at Sun Jun 19 01:46:49 2022.
