 Gaussian 16, Revision C.01,
 Gaussian 16:  ES64L-G16RevC.01  3-Jul-2019

 -------------------------------------------------------------------
 # B3LYP/6-31G* guess=read geom=check nosymm integral(ultrafinegrid)
 -------------------------------------------------------------------

 ------------------------------------------------------
 Candidate Structure: Conf:304 Charge calc in gas phase
 ------------------------------------------------------
 Structure from the checkpoint file:  "conf-304.chk"
 Charge =  1 Multiplicity = 1

                          Input orientation:
 ---------------------------------------------------------------------
 Center     Atomic      Atomic             Coordinates (Angstroms)
 Number     Number       Type             X           Y           Z
 ---------------------------------------------------------------------
      1          7           0       -5.266555    1.345895    4.349543
      2          1           0       -6.164707    1.791321    4.142382
      3          1           0       -5.268261    0.380833    3.920198
      4          1           0       -5.132699    1.332327    5.372104
      5          6           0       -4.103600    2.014079    3.653698
      6          1           0       -4.395112    3.037526    3.409764
      7          6           0       -3.893621    1.138247    2.390931
      8          6           0       -2.859951    2.000627    4.577928
      9          1           0       -2.069296    2.554651    4.060325
     10          1           0       -2.508682    0.966028    4.673316
     11          8           0       -4.414854    0.012902    2.388997
     12          6           0       -3.149334    2.590900    5.942263
     13          6           0       -3.219830    3.980053    6.125797
     14          1           0       -3.003351    4.648143    5.294798
     15          6           0       -3.408852    1.748016    7.035513
     16          1           0       -3.305036    0.669275    6.924470
     17          6           0       -3.541046    4.512747    7.373321
     18          1           0       -3.578347    5.590039    7.505428
     19          6           0       -3.736522    2.283563    8.285739
     20          1           0       -3.920035    1.619880    9.125489
     21          6           0       -3.805199    3.665798    8.454209
     22          1           0       -4.051307    4.084514    9.425291
     23          7           0       -3.141683    1.674812    1.437698
     24          1           0       -2.620634    2.541649    1.606254
     25          6           0       -2.577163    0.965236    0.284983
     26          1           0       -2.521262   -0.100455    0.525179
     27          6           0       -1.152615    1.564879    0.149394
     28          6           0       -3.390609    1.191394   -1.008594
     29          1           0       -3.434464    2.274116   -1.187221
     30          1           0       -2.817615    0.764817   -1.842632
     31          8           0       -0.869874    2.605598    0.757452
     32          6           0       -4.815040    0.601624   -1.030644
     33          1           0       -5.359380    0.986443   -0.155706
     34          6           0       -5.548841    1.088122   -2.290394
     35          1           0       -5.045776    0.734768   -3.199158
     36          1           0       -6.576763    0.710085   -2.314088
     37          1           0       -5.591239    2.182776   -2.336452
     38          6           0       -4.815319   -0.932555   -0.956286
     39          1           0       -4.245554   -1.365560   -1.788483
     40          1           0       -4.391262   -1.301005   -0.016784
     41          1           0       -5.838305   -1.319296   -1.022962
     42          7           0       -0.316340    0.902317   -0.655966
     43          1           0       -0.591288    0.064334   -1.170277
     44          6           0        1.017241    1.358829   -1.018867
     45          1           0        0.996664    2.428806   -1.245151
     46          6           0        1.388552    0.537682   -2.282387
     47          6           0        2.032675    1.152230    0.136103
     48          1           0        1.656799    1.700950    1.005535
     49          1           0        2.097478    0.089555    0.395411
     50          8           0        0.706839   -0.448065   -2.585413
     51          6           0        3.379501    1.746660   -0.274697
     52          7           0        4.470726    0.938702   -0.173161
     53          1           0        5.231641    1.177261   -0.804350
     54          1           0        4.331810   -0.053340   -0.035619
     55          8           0        3.435654    2.891363   -0.717958
     56          7           0        2.470152    0.957232   -2.963013
     57          1           0        3.025674    1.732757   -2.607395
     58          6           0        3.139078    0.166289   -3.993653
     59          1           0        2.744247   -0.850183   -3.952685
     60          6           0        4.661933    0.132128   -3.709184
     61          6           0        2.856050    0.764068   -5.402671
     62          1           0        2.971257    1.854696   -5.334252
     63          1           0        1.797178    0.591251   -5.623126
     64          8           0        5.269901   -0.856838   -4.223725
     65          6           0        3.739194    0.180727   -6.532005
     66          1           0        4.179749   -0.756465   -6.187002
     67          1           0        3.120476   -0.053841   -7.406161
     68          6           0        4.864415    1.106271   -7.054995
     69          1           0        5.635875    0.515314   -7.555442
     70          1           0        4.454761    1.803544   -7.794030
     71          7           0        5.550537    1.962796   -6.071145
     72          1           0        5.068779    2.808975   -5.800077
     73          7           0        7.208941    0.483492   -5.383586
     74          1           0        8.143890    0.428257   -4.995831
     75          1           0        6.528698   -0.246462   -4.994948
     76          7           0        7.379108    2.760003   -4.882976
     77          1           0        7.797597    2.592433   -3.976167
     78          1           0        7.004985    3.692642   -5.001021
     79          6           0        6.695211    1.716274   -5.422804
     80          8           0        5.167008    1.108452   -3.101644
 ---------------------------------------------------------------------

 SCF Done:  E(RB3LYP) =  -1866.59982185     A.U. after    1 cycles

 Alpha  occ. eigenvalues --  -19.25997 -19.21007 -19.18095 -19.16961 -19.14207
 Alpha  occ. eigenvalues --  -19.14051 -14.59222 -14.48437 -14.46257 -14.45700
 Alpha  occ. eigenvalues --  -14.44231 -14.42388 -14.41307 -14.40646 -10.42811
 Alpha  occ. eigenvalues --  -10.41191 -10.40240 -10.37954 -10.35187 -10.34773
 Alpha  occ. eigenvalues --  -10.33749 -10.33532 -10.32042 -10.32024 -10.30854
 Alpha  occ. eigenvalues --  -10.30801 -10.30408 -10.30229 -10.30138 -10.30009
 Alpha  occ. eigenvalues --  -10.29758 -10.27570 -10.26968 -10.26939 -10.26526
 Alpha  occ. eigenvalues --  -10.24762 -10.24406 -10.24352 -10.24276  -1.18361
 Alpha  occ. eigenvalues --   -1.13364  -1.12739  -1.09995  -1.09865  -1.08781
 Alpha  occ. eigenvalues --   -1.07300  -1.05154  -1.00866  -0.99724  -0.99039
 Alpha  occ. eigenvalues --   -0.97609  -0.97432  -0.97010  -0.95714  -0.92915
 Alpha  occ. eigenvalues --   -0.89730  -0.86722  -0.86056  -0.85678  -0.85050
 Alpha  occ. eigenvalues --   -0.83089  -0.80093  -0.79160  -0.75848  -0.75338
 Alpha  occ. eigenvalues --   -0.74738  -0.73557  -0.73404  -0.72909  -0.71474
 Alpha  occ. eigenvalues --   -0.71208  -0.69969  -0.69764  -0.67048  -0.66627
 Alpha  occ. eigenvalues --   -0.66233  -0.65736  -0.64161  -0.63630  -0.63106
 Alpha  occ. eigenvalues --   -0.62934  -0.62608  -0.62418  -0.61000  -0.58834
 Alpha  occ. eigenvalues --   -0.58531  -0.58237  -0.57732  -0.57302  -0.57056
 Alpha  occ. eigenvalues --   -0.56529  -0.56310  -0.55852  -0.55148  -0.54711
 Alpha  occ. eigenvalues --   -0.53978  -0.53478  -0.53175  -0.52532  -0.52276
 Alpha  occ. eigenvalues --   -0.52136  -0.51817  -0.51273  -0.50999  -0.50798
 Alpha  occ. eigenvalues --   -0.50365  -0.50144  -0.49478  -0.48457  -0.48414
 Alpha  occ. eigenvalues --   -0.47841  -0.47378  -0.47177  -0.46851  -0.46517
 Alpha  occ. eigenvalues --   -0.45886  -0.45561  -0.45365  -0.45263  -0.45063
 Alpha  occ. eigenvalues --   -0.44821  -0.44073  -0.44002  -0.43200  -0.42197
 Alpha  occ. eigenvalues --   -0.41897  -0.41058  -0.40678  -0.40557  -0.40304
 Alpha  occ. eigenvalues --   -0.40209  -0.40171  -0.39159  -0.38091  -0.36887
 Alpha  occ. eigenvalues --   -0.36495  -0.36016  -0.35141  -0.34907  -0.34302
 Alpha  occ. eigenvalues --   -0.32888  -0.32376  -0.32074  -0.30513  -0.29824
 Alpha  occ. eigenvalues --   -0.28263  -0.27721
 Alpha virt. eigenvalues --   -0.12771  -0.12188  -0.10547  -0.09549  -0.07499
 Alpha virt. eigenvalues --   -0.06783  -0.04487  -0.04251  -0.03127  -0.02650
 Alpha virt. eigenvalues --   -0.02327  -0.01523  -0.00974  -0.00465  -0.00027

 Mulliken charges:
               1
     1  N   -0.750606
     2  H    0.414883
     3  H    0.426387
     4  H    0.404110
     5  C   -0.114127
     6  H    0.213397
     7  C    0.652377
     8  C   -0.389308
     9  H    0.216252
    10  H    0.193172
    11  O   -0.540784
    12  C    0.140103
    13  C   -0.181141
    14  H    0.148898
    15  C   -0.230610
    16  H    0.150324
    17  C   -0.122439
    18  H    0.167794
    19  C   -0.120333
    20  H    0.166882
    21  C   -0.123746
    22  H    0.168891
    23  N   -0.593112
    24  H    0.370052
    25  C   -0.089886
    26  H    0.192257
    27  C    0.633628
    28  C   -0.257961
    29  H    0.149760
    30  H    0.162400
    31  O   -0.554652
    32  C   -0.069263
    33  H    0.114821
    34  C   -0.446965
    35  H    0.154728
    36  H    0.154099
    37  H    0.144347
    38  C   -0.460557
    39  H    0.150567
    40  H    0.158468
    41  H    0.154527
    42  N   -0.626856
    43  H    0.366762
    44  C   -0.046278
    45  H    0.206945
    46  C    0.594627
    47  C   -0.345618
    48  H    0.198124
    49  H    0.146619
    50  O   -0.548017
    51  C    0.571842
    52  N   -0.722087
    53  H    0.368605
    54  H    0.334430
    55  O   -0.519236
    56  N   -0.612108
    57  H    0.370541
    58  C   -0.048726
    59  H    0.184418
    60  C    0.581945
    61  C   -0.269945
    62  H    0.115021
    63  H    0.163575
    64  O   -0.599495
    65  C   -0.293648
    66  H    0.204605
    67  H    0.149550
    68  C   -0.151989
    69  H    0.193279
    70  H    0.165374
    71  N   -0.572355
    72  H    0.349352
    73  N   -0.739861
    74  H    0.341441
    75  H    0.422543
    76  N   -0.740753
    77  H    0.370864
    78  H    0.353011
    79  C    0.741417
    80  O   -0.615552
 Sum of Mulliken charges =   1.00000

 Dipole moment (field-independent basis, Debye):
    X=             -9.6104    Y=             11.6834    Z=              9.4430  Tot=             17.8334
 Quadrupole moment (field-independent basis, Debye-Ang):
   XX=            -63.1831   YY=           -202.4115   ZZ=            -61.9037
   XY=            -10.9025   XZ=           -137.9725   YZ=              6.6504

 Normal termination of Gaussian 16 at Sun Jun 19 01:46:54 2022.
