 Gaussian 16, Revision C.01,
 Gaussian 16:  ES64L-G16RevC.01  3-Jul-2019

 -------------------------------------------------------------------
 # B3LYP/6-31G* guess=read geom=check nosymm integral(ultrafinegrid)
 -------------------------------------------------------------------

 ------------------------------------------------------
 Candidate Structure: Conf:962 Charge calc in gas phase
 ------------------------------------------------------
 Structure from the checkpoint file:  "conf-962.chk"
 Charge =  1 Multiplicity = 1

                          Input orientation:
 ---------------------------------------------------------------------
 Center     Atomic      Atomic             Coordinates (Angstroms)
 Number     Number       Type             X           Y           Z
 ---------------------------------------------------------------------
      1          7           0       -5.951409    1.299211    2.877994
      2          1           0       -6.386833    2.207223    2.693372
      3          1           0       -5.961712    0.718708    1.976935
      4          1           0       -6.465324    0.835694    3.632470
      5          6           0       -4.457985    1.388237    3.139142
      6          1           0       -4.211063    2.423768    3.381148
      7          6           0       -3.870387    0.961365    1.762732
      8          6           0       -4.081418    0.447202    4.306287
      9          1           0       -4.334470   -0.581394    4.021459
     10          1           0       -4.713340    0.715557    5.165081
     11          8           0       -4.649888    0.385693    0.979261
     12          6           0       -2.620570    0.535038    4.701085
     13          6           0       -1.751999   -0.535415    4.457414
     14          1           0       -2.126695   -1.438690    3.981682
     15          6           0       -2.124722    1.687096    5.329150
     16          1           0       -2.791388    2.518884    5.551433
     17          6           0       -0.410641   -0.457337    4.834865
     18          1           0        0.250236   -1.299132    4.650802
     19          6           0       -0.782353    1.768938    5.697761
     20          1           0       -0.410673    2.664626    6.186369
     21          6           0        0.076508    0.695622    5.451544
     22          1           0        1.119731    0.755773    5.746728
     23          7           0       -2.599263    1.236764    1.528768
     24          1           0       -1.992610    1.684969    2.220248
     25          6           0       -1.879041    0.861467    0.304444
     26          1           0       -2.156679   -0.163489    0.042919
     27          6           0       -0.392243    0.948008    0.712439
     28          6           0       -2.235786    1.826175   -0.853928
     29          1           0       -3.331028    1.864979   -0.913513
     30          1           0       -1.890417    2.828409   -0.568986
     31          8           0       -0.062953    1.686511    1.647763
     32          6           0       -1.682006    1.461025   -2.247310
     33          1           0       -0.587629    1.397374   -2.183084
     34          6           0       -2.214582    0.113142   -2.759415
     35          1           0       -3.310986    0.116690   -2.807257
     36          1           0       -1.836640   -0.090942   -3.766580
     37          1           0       -1.912764   -0.733184   -2.130803
     38          6           0       -2.023262    2.586252   -3.237072
     39          1           0       -3.109430    2.697924   -3.348544
     40          1           0       -1.618319    3.549764   -2.906280
     41          1           0       -1.609365    2.370744   -4.227928
     42          7           0        0.463616    0.207523   -0.003724
     43          1           0        0.166828   -0.424598   -0.746606
     44          6           0        1.901671    0.175689    0.217840
     45          1           0        2.265626    1.202641    0.327850
     46          6           0        2.500390   -0.477982   -1.049841
     47          6           0        2.244495   -0.642803    1.499266
     48          1           0        1.900018   -0.068051    2.366022
     49          1           0        1.701644   -1.589767    1.460180
     50          8           0        1.792105   -1.207351   -1.749538
     51          6           0        3.730413   -0.996056    1.595670
     52          7           0        4.569444    0.029205    1.954349
     53          1           0        5.533774   -0.068578    1.649775
     54          1           0        4.219924    0.976165    2.013802
     55          8           0        4.133533   -2.117588    1.334348
     56          7           0        3.793345   -0.194384   -1.278311
     57          1           0        4.338082    0.333663   -0.594075
     58          6           0        4.685002   -1.015628   -2.095863
     59          1           0        4.440275   -2.071171   -1.930704
     60          6           0        6.127178   -0.764431   -1.556143
     61          6           0        4.542051   -0.728695   -3.607858
     62          1           0        3.487973   -0.874707   -3.861351
     63          1           0        5.091120   -1.512635   -4.143492
     64          8           0        7.047464   -1.411888   -2.157355
     65          6           0        5.010935    0.679997   -4.065306
     66          1           0        4.198417    1.195439   -4.591172
     67          1           0        5.255519    1.299484   -3.193345
     68          6           0        6.221478    0.667771   -5.018620
     69          1           0        5.978326    0.114050   -5.932928
     70          1           0        6.479630    1.690431   -5.310060
     71          7           0        7.389733    0.034151   -4.390222
     72          1           0        7.159620   -0.775807   -3.783490
     73          7           0        8.941364    1.777585   -4.572324
     74          1           0        9.766760    2.240923   -4.221769
     75          1           0        8.750141    1.891877   -5.556908
     76          7           0        9.078469    0.199039   -2.849034
     77          1           0        9.993623    0.516615   -2.567079
     78          1           0        8.523534   -0.473152   -2.268689
     79          6           0        8.474834    0.672435   -3.937165
     80          8           0        6.273140    0.065497   -0.636506
 ---------------------------------------------------------------------

 SCF Done:  E(RB3LYP) =  -1866.60007367     A.U. after    2 cycles

 Alpha  occ. eigenvalues --  -19.26383 -19.20846 -19.18011 -19.16116 -19.14609
 Alpha  occ. eigenvalues --  -19.14347 -14.59712 -14.48815 -14.46557 -14.44535
 Alpha  occ. eigenvalues --  -14.43957 -14.43661 -14.40625 -14.40248 -10.43048
 Alpha  occ. eigenvalues --  -10.41400 -10.40656 -10.37987 -10.34908 -10.34021
 Alpha  occ. eigenvalues --  -10.33986 -10.33657 -10.32297 -10.31349 -10.30665
 Alpha  occ. eigenvalues --  -10.30317 -10.29219 -10.28947 -10.28501 -10.28328
 Alpha  occ. eigenvalues --  -10.28216 -10.27710 -10.26936 -10.26916 -10.26034
 Alpha  occ. eigenvalues --  -10.25374 -10.24676 -10.24525 -10.24141  -1.18844
 Alpha  occ. eigenvalues --   -1.13526  -1.12747  -1.10062  -1.09698  -1.07979
 Alpha  occ. eigenvalues --   -1.07607  -1.05342  -1.01027  -0.99919  -0.98887
 Alpha  occ. eigenvalues --   -0.97862  -0.97232  -0.96362  -0.95090  -0.92516
 Alpha  occ. eigenvalues --   -0.89737  -0.86241  -0.85703  -0.84876  -0.84148
 Alpha  occ. eigenvalues --   -0.83069  -0.79820  -0.79351  -0.76056  -0.75448
 Alpha  occ. eigenvalues --   -0.75003  -0.73660  -0.73345  -0.72841  -0.71752
 Alpha  occ. eigenvalues --   -0.70463  -0.69825  -0.68167  -0.67819  -0.66744
 Alpha  occ. eigenvalues --   -0.66566  -0.66034  -0.64281  -0.63868  -0.63462
 Alpha  occ. eigenvalues --   -0.62690  -0.62044  -0.61018  -0.60833  -0.59055
 Alpha  occ. eigenvalues --   -0.58770  -0.58507  -0.58196  -0.57649  -0.56816
 Alpha  occ. eigenvalues --   -0.56450  -0.55583  -0.55502  -0.55094  -0.54617
 Alpha  occ. eigenvalues --   -0.53961  -0.53095  -0.52783  -0.52447  -0.52113
 Alpha  occ. eigenvalues --   -0.51764  -0.51618  -0.51289  -0.50706  -0.50345
 Alpha  occ. eigenvalues --   -0.50309  -0.49899  -0.49646  -0.49402  -0.49034
 Alpha  occ. eigenvalues --   -0.47567  -0.47268  -0.46785  -0.45894  -0.45682
 Alpha  occ. eigenvalues --   -0.45641  -0.45471  -0.44799  -0.44428  -0.44295
 Alpha  occ. eigenvalues --   -0.44238  -0.43860  -0.43789  -0.43209  -0.42568
 Alpha  occ. eigenvalues --   -0.42108  -0.41859  -0.41220  -0.41142  -0.40562
 Alpha  occ. eigenvalues --   -0.40106  -0.39992  -0.39199  -0.37927  -0.37079
 Alpha  occ. eigenvalues --   -0.35252  -0.34661  -0.34523  -0.34163  -0.33822
 Alpha  occ. eigenvalues --   -0.32214  -0.31848  -0.31339  -0.29993  -0.29506
 Alpha  occ. eigenvalues --   -0.29239  -0.28448
 Alpha virt. eigenvalues --   -0.12137  -0.10950  -0.10716  -0.09910  -0.07022
 Alpha virt. eigenvalues --   -0.06357  -0.05845  -0.04150  -0.02826  -0.02698
 Alpha virt. eigenvalues --   -0.02608  -0.01346  -0.00742  -0.00382   0.00143

 Mulliken charges:
               1
     1  N   -0.760025
     2  H    0.415173
     3  H    0.434874
     4  H    0.411949
     5  C   -0.107925
     6  H    0.215248
     7  C    0.657685
     8  C   -0.382199
     9  H    0.186825
    10  H    0.181412
    11  O   -0.552588
    12  C    0.149837
    13  C   -0.180133
    14  H    0.143826
    15  C   -0.190612
    16  H    0.128401
    17  C   -0.122223
    18  H    0.164446
    19  C   -0.117256
    20  H    0.158358
    21  C   -0.116586
    22  H    0.161940
    23  N   -0.606464
    24  H    0.383464
    25  C   -0.060138
    26  H    0.187130
    27  C    0.628450
    28  C   -0.259195
    29  H    0.155594
    30  H    0.151242
    31  O   -0.552718
    32  C   -0.091844
    33  H    0.143642
    34  C   -0.453611
    35  H    0.149912
    36  H    0.166705
    37  H    0.142962
    38  C   -0.446410
    39  H    0.145061
    40  H    0.147250
    41  H    0.158546
    42  N   -0.623415
    43  H    0.370237
    44  C   -0.048767
    45  H    0.169352
    46  C    0.616027
    47  C   -0.354455
    48  H    0.175507
    49  H    0.177932
    50  O   -0.550216
    51  C    0.555999
    52  N   -0.736125
    53  H    0.374029
    54  H    0.325103
    55  O   -0.482748
    56  N   -0.613722
    57  H    0.355872
    58  C   -0.055235
    59  H    0.191368
    60  C    0.612133
    61  C   -0.293264
    62  H    0.176536
    63  H    0.155823
    64  O   -0.632510
    65  C   -0.273200
    66  H    0.150758
    67  H    0.162326
    68  C   -0.169294
    69  H    0.174365
    70  H    0.152438
    71  N   -0.607709
    72  H    0.407590
    73  N   -0.750663
    74  H    0.361624
    75  H    0.368049
    76  N   -0.766711
    77  H    0.347704
    78  H    0.423634
    79  C    0.763209
    80  O   -0.579585
 Sum of Mulliken charges =   1.00000

 Dipole moment (field-independent basis, Debye):
    X=             -6.8520    Y=             13.1356    Z=              3.4071  Tot=             15.2021
 Quadrupole moment (field-independent basis, Debye-Ang):
   XX=             17.3571   YY=           -220.4866   ZZ=           -128.2989
   XY=             22.6511   XZ=           -140.6363   YZ=             -0.4886

 Normal termination of Gaussian 16 at Sun Jun 19 01:47:08 2022.
