 Gaussian 16, Revision C.01,
 Gaussian 16:  ES64L-G16RevC.01  3-Jul-2019

 ----------------------------------------------------------------------
 # B3LYP/6-31G* empiricaldispersion=gd3 guess=read geom=check nosymm in
 tegral(ultrafinegrid)
 ----------------------------------------------------------------------

 ------------------------------------------------------
 Candidate Structure: Conf:497 Charge calc in gas phase
 ------------------------------------------------------
 Structure from the checkpoint file:  "conf-497.chk"
 Charge =  1 Multiplicity = 1

                          Input orientation:
 ---------------------------------------------------------------------
 Center     Atomic      Atomic             Coordinates (Angstroms)
 Number     Number       Type             X           Y           Z
 ---------------------------------------------------------------------
      1          7           0       -7.223583   -4.193651   -5.891784
      2          1           0       -8.041772   -4.026288   -5.305340
      3          1           0       -7.222809   -5.170225   -6.175738
      4          1           0       -7.336019   -3.607146   -6.717704
      5          6           0       -5.996772   -3.817595   -5.165708
      6          1           0       -5.950141   -4.368334   -4.219457
      7          6           0       -6.068674   -2.321454   -4.852829
      8          6           0       -4.719812   -4.137112   -5.957141
      9          1           0       -3.870984   -3.732095   -5.400016
     10          8           0       -6.969458   -1.618199   -5.285033
     11          6           0       -4.503300   -5.618268   -6.179910
     12          1           0       -4.493101   -6.166745   -5.234825
     13          1           0       -5.287150   -6.039918   -6.813282
     14          1           0       -3.548560   -5.773254   -6.686596
     15          8           0       -4.703300   -3.437897   -7.197183
     16          1           0       -5.369528   -3.833676   -7.762527
     17          7           0       -5.088930   -1.863188   -4.034440
     18          1           0       -4.264669   -2.425382   -3.873907
     19          6           0       -4.842209   -0.445350   -3.823814
     20          1           0       -5.426426    0.133063   -4.546071
     21          6           0       -3.341563   -0.282696   -4.067827
     22          6           0       -5.258224    0.007027   -2.404469
     23          1           0       -4.732521   -0.653677   -1.706795
     24          8           0       -2.566165   -1.180808   -3.779722
     25          6           0       -6.765545   -0.185826   -2.209735
     26          1           0       -7.058722   -1.163211   -2.592341
     27          1           0       -7.278531    0.551265   -2.839505
     28          6           0       -4.873403    1.460808   -2.122558
     29          1           0       -5.332009    2.123235   -2.865568
     30          1           0       -3.794555    1.626611   -2.139426
     31          1           0       -5.239087    1.769495   -1.142371
     32          6           0       -7.227853   -0.060063   -0.763496
     33          1           0       -8.303257   -0.232982   -0.689542
     34          1           0       -7.020442    0.926554   -0.347525
     35          1           0       -6.725793   -0.799911   -0.133211
     36          7           0       -2.937588    0.886277   -4.637483
     37          1           0       -3.571680    1.669504   -4.591250
     38          6           0       -1.527904    1.232281   -4.672818
     39          1           0       -0.983640    0.288797   -4.677283
     40          6           0       -1.178430    2.027548   -3.414214
     41          6           0       -1.199264    2.058864   -5.908353
     42          1           0       -0.128279    2.272590   -5.942866
     43          1           0       -1.736557    3.008817   -5.878554
     44          1           0       -1.479025    1.519571   -6.814486
     45          8           0       -1.917615    2.925350   -3.003654
     46          7           0       -0.000340    1.735546   -2.829224
     47          1           0        0.593902    0.987520   -3.155314
     48          6           0        0.444326    2.450140   -1.648448
     49          1           0        0.260375    3.515219   -1.802886
     50          6           0        1.929901    2.127509   -1.505244
     51          6           0       -0.326133    1.985311   -0.393092
     52          1           0       -0.030908    0.958044   -0.185139
     53          1           0       -1.386799    1.973665   -0.644448
     54          8           0        2.374323    1.043246   -1.827883
     55          6           0       -0.088171    2.857957    0.840133
     56          1           0        0.940679    3.167498    0.916284
     57          1           0       -0.677268    3.777022    0.780553
     58          6           0       -0.470335    2.147763    2.135402
     59          7           0        0.095955    2.655495    3.273777
     60          1           0        0.927516    3.220772    3.237345
     61          1           0       -0.113670    2.159515    4.121954
     62          8           0       -1.274594    1.235176    2.172465
     63          7           0        2.714601    3.104161   -0.956141
     64          1           0        2.251473    3.924794   -0.609181
     65          6           0        3.937243    2.716486   -0.249255
     66          1           0        4.414242    1.943747   -0.841128
     67          6           0        3.593247    2.140912    1.145718
     68          6           0        4.865512    3.921751   -0.056137
     69          1           0        4.336515    4.647265    0.561821
     70          1           0        5.044519    4.365789   -1.035236
     71          8           0        3.022967    2.861592    1.989496
     72          6           0        6.162667    3.531728    0.578531
     73          6           0        6.317270    3.566752    1.973309
     74          1           0        5.475710    3.876029    2.589446
     75          6           0        7.233481    3.072342   -0.205764
     76          1           0        7.122096    3.047204   -1.285598
     77          6           0        7.495187    3.195261    2.576634
     78          1           0        7.622662    3.245291    3.649794
     79          6           0        8.421630    2.664171    0.348394
     80          1           0        9.245175    2.312438   -0.258591
     81          8           0        9.672625    2.338966    2.316487
     82          6           0        8.617074    2.701762    1.791032
     83          7           0        3.949915    0.829614    1.324542
     84          1           0        4.549531    0.435963    0.617245
     85          6           0        4.150291    0.287107    2.660663
     86          1           0        3.726115    1.002250    3.362355
     87          6           0        5.655529    0.169822    2.897875
     88          6           0        3.486473   -1.075912    2.802802
     89          1           0        3.646539   -1.472961    3.809266
     90          1           0        2.416126   -1.002715    2.611226
     91          1           0        3.929789   -1.777153    2.091054
     92          8           0        6.426888   -0.192512    2.027953
     93          7           0        6.088261    0.456243    4.156251
     94          1           0        5.408693    0.584065    4.896095
     95          6           0        7.447597    0.075110    4.507175
     96          1           0        8.140761    0.574659    3.822992
     97          6           0        7.622225   -1.422736    4.345574
     98          6           0        7.745468    0.476549    5.954275
     99          1           0        7.469193    1.525279    6.045637
    100          1           0        8.821821    0.414659    6.126032
    101          8           0        6.736956   -2.243307    4.381420
    102          6           0        6.983420   -0.399744    6.945857
    103          1           0        7.540409   -1.319463    7.138756
    104          1           0        6.048392   -0.708121    6.494646
    105          6           0        6.661300    0.267660    8.274418
    106          1           0        7.568540    0.407771    8.864087
    107          1           0        5.996365   -0.383196    8.855297
    108          7           0        6.066651    1.611489    8.133744
    109          1           0        6.452710    2.331772    8.723393
    110          7           0        4.155657    0.841217    7.037466
    111          1           0        3.162127    0.999436    6.963082
    112          1           0        4.371958   -0.072532    7.422011
    113          7           0        4.372779    3.114150    7.611727
    114          1           0        3.635940    3.310359    6.949200
    115          1           0        5.052237    3.863024    7.685659
    116          6           0        4.869876    1.849848    7.605538
    117          8           0        8.928459   -1.752189    4.235504
    118          1           0        8.952909   -2.713621    4.158177
 ---------------------------------------------------------------------

 SCF Done:  E(RB3LYP) =  -2837.63867108     A.U. after    4 cycles

 Alpha  occ. eigenvalues --  -19.28838 -19.24729 -19.23906 -19.20525 -19.18642
 Alpha  occ. eigenvalues --  -19.17051 -19.17012 -19.16597 -19.15554 -19.15216
 Alpha  occ. eigenvalues --  -19.04610 -14.63201 -14.51031 -14.50942 -14.50452
 Alpha  occ. eigenvalues --  -14.47235 -14.43797 -14.41558 -14.40712 -14.40528
 Alpha  occ. eigenvalues --  -14.40408 -14.39439 -10.45459 -10.42148 -10.40737
 Alpha  occ. eigenvalues --  -10.39254 -10.37215 -10.36373 -10.34603 -10.34183
 Alpha  occ. eigenvalues --  -10.33693 -10.33279 -10.32884 -10.32520 -10.32111
 Alpha  occ. eigenvalues --  -10.31645 -10.29736 -10.28417 -10.28156 -10.28051
 Alpha  occ. eigenvalues --  -10.27957 -10.26881 -10.26327 -10.26235 -10.25037
 Alpha  occ. eigenvalues --  -10.24628 -10.23802 -10.23714 -10.23332 -10.23309
 Alpha  occ. eigenvalues --  -10.23064 -10.20440 -10.19753 -10.16852 -10.16535
 Alpha  occ. eigenvalues --  -10.16473 -10.14829 -10.14383  -1.19995  -1.16575
 Alpha  occ. eigenvalues --   -1.15929  -1.15525  -1.15297  -1.13032  -1.09893
 Alpha  occ. eigenvalues --   -1.08952  -1.08399  -1.07441  -1.07051  -1.06243
 Alpha  occ. eigenvalues --   -1.05052  -1.04168  -1.04074  -1.00536  -0.98108
 Alpha  occ. eigenvalues --   -0.97589  -0.97195  -0.96965  -0.95316  -0.94312
 Alpha  occ. eigenvalues --   -0.94302  -0.89698  -0.89507  -0.86886  -0.85623
 Alpha  occ. eigenvalues --   -0.84379  -0.83903  -0.83161  -0.81695  -0.81417
 Alpha  occ. eigenvalues --   -0.79086  -0.78501  -0.78064  -0.77353  -0.76978
 Alpha  occ. eigenvalues --   -0.76909  -0.75893  -0.75200  -0.72878  -0.72307
 Alpha  occ. eigenvalues --   -0.72011  -0.71618  -0.71538  -0.70844  -0.69963
 Alpha  occ. eigenvalues --   -0.69884  -0.68288  -0.67833  -0.67479  -0.66434
 Alpha  occ. eigenvalues --   -0.65938  -0.65603  -0.64353  -0.63824  -0.63705
 Alpha  occ. eigenvalues --   -0.63619  -0.63158  -0.62904  -0.62794  -0.62436
 Alpha  occ. eigenvalues --   -0.61506  -0.61468  -0.60777  -0.59730  -0.59169
 Alpha  occ. eigenvalues --   -0.58962  -0.58296  -0.58130  -0.57983  -0.57728
 Alpha  occ. eigenvalues --   -0.57488  -0.56571  -0.55908  -0.55282  -0.54917
 Alpha  occ. eigenvalues --   -0.54625  -0.54512  -0.53899  -0.53686  -0.53447
 Alpha  occ. eigenvalues --   -0.53064  -0.52482  -0.52477  -0.52158  -0.52012
 Alpha  occ. eigenvalues --   -0.51662  -0.51561  -0.51226  -0.50739  -0.50693
 Alpha  occ. eigenvalues --   -0.50294  -0.49779  -0.49390  -0.49282  -0.49155
 Alpha  occ. eigenvalues --   -0.48061  -0.47937  -0.47719  -0.47528  -0.47293
 Alpha  occ. eigenvalues --   -0.46791  -0.46554  -0.46284  -0.45977  -0.45836
 Alpha  occ. eigenvalues --   -0.45582  -0.45510  -0.45215  -0.45053  -0.44830
 Alpha  occ. eigenvalues --   -0.44346  -0.43840  -0.43648  -0.43442  -0.43212
 Alpha  occ. eigenvalues --   -0.43058  -0.42975  -0.42756  -0.42614  -0.42333
 Alpha  occ. eigenvalues --   -0.42281  -0.42023  -0.42007  -0.41762  -0.41321
 Alpha  occ. eigenvalues --   -0.41132  -0.40816  -0.40176  -0.39927  -0.39882
 Alpha  occ. eigenvalues --   -0.39766  -0.39526  -0.39311  -0.39009  -0.38873
 Alpha  occ. eigenvalues --   -0.38680  -0.38164  -0.37030  -0.36412  -0.36263
 Alpha  occ. eigenvalues --   -0.34902  -0.34518  -0.34059  -0.33112  -0.32621
 Alpha  occ. eigenvalues --   -0.32397  -0.32160  -0.31675  -0.31256  -0.30948
 Alpha  occ. eigenvalues --   -0.30578  -0.30222  -0.30077  -0.29199  -0.28938
 Alpha  occ. eigenvalues --   -0.28701  -0.27862  -0.22888  -0.18125  -0.14344
 Alpha virt. eigenvalues --   -0.13764  -0.12843  -0.10971  -0.07971  -0.07927
 Alpha virt. eigenvalues --   -0.07138  -0.06402  -0.04441  -0.04070  -0.03799
 Alpha virt. eigenvalues --   -0.03748  -0.03393  -0.02982  -0.02514  -0.02280

 Mulliken charges:
               1
     1  N   -0.702037
     2  H    0.421274
     3  H    0.398537
     4  H    0.405521
     5  C   -0.158763
     6  H    0.223135
     7  C    0.647250
     8  C    0.088808
     9  H    0.212869
    10  O   -0.517148
    11  C   -0.476112
    12  H    0.177021
    13  H    0.125942
    14  H    0.222874
    15  O   -0.579668
    16  H    0.382483
    17  N   -0.605522
    18  H    0.357693
    19  C   -0.073817
    20  H    0.182675
    21  C    0.619966
    22  C   -0.065546
    23  H    0.141706
    24  O   -0.536722
    25  C   -0.247916
    26  H    0.117804
    27  H    0.142504
    28  C   -0.498936
    29  H    0.139117
    30  H    0.198780
    31  H    0.171628
    32  C   -0.452876
    33  H    0.150906
    34  H    0.163060
    35  H    0.147837
    36  N   -0.580986
    37  H    0.348183
    38  C   -0.075589
    39  H    0.181188
    40  C    0.636925
    41  C   -0.454292
    42  H    0.172352
    43  H    0.171043
    44  H    0.165975
    45  O   -0.551847
    46  N   -0.613878
    47  H    0.354017
    48  C   -0.030314
    49  H    0.167405
    50  C    0.602945
    51  C   -0.261820
    52  H    0.168244
    53  H    0.180789
    54  O   -0.524163
    55  C   -0.400143
    56  H    0.169242
    57  H    0.175818
    58  C    0.590939
    59  N   -0.756342
    60  H    0.353365
    61  H    0.318194
    62  O   -0.509563
    63  N   -0.596196
    64  H    0.331632
    65  C   -0.047447
    66  H    0.176905
    67  C    0.645601
    68  C   -0.370397
    69  H    0.139695
    70  H    0.150264
    71  O   -0.581805
    72  C    0.121209
    73  C   -0.183364
    74  H    0.077089
    75  C   -0.182065
    76  H    0.089339
    77  C   -0.220852
    78  H    0.052441
    79  C   -0.201320
    80  H    0.102510
    81  O   -0.629899
    82  C    0.437059
    83  N   -0.564079
    84  H    0.363280
    85  C   -0.086294
    86  H    0.140354
    87  C    0.680556
    88  C   -0.438640
    89  H    0.137937
    90  H    0.166758
    91  H    0.179943
    92  O   -0.510633
    93  N   -0.626392
    94  H    0.329371
    95  C   -0.050985
    96  H    0.267243
    97  C    0.610722
    98  C   -0.307194
    99  H    0.163681
   100  H    0.195416
   101  O   -0.488186
   102  C   -0.310466
   103  H    0.190480
   104  H    0.154776
   105  C   -0.189751
   106  H    0.196604
   107  H    0.175419
   108  N   -0.563693
   109  H    0.369134
   110  N   -0.735128
   111  H    0.371456
   112  H    0.379677
   113  N   -0.732004
   114  H    0.373488
   115  H    0.375530
   116  C    0.691795
   117  O   -0.556868
   118  H    0.414283
 Sum of Mulliken charges =   1.00000

 Dipole moment (field-independent basis, Debye):
    X=            -26.3611    Y=            -16.0258    Z=              2.8557  Tot=             30.9820
 Quadrupole moment (field-independent basis, Debye-Ang):
   XX=           -255.5369   YY=           -244.6787   ZZ=             34.0334
   XY=             92.8253   XZ=            272.8789   YZ=            138.3966

 Normal termination of Gaussian 16 at Mon Jun 27 03:09:30 2022.
