 Gaussian 16, Revision C.01,
 Gaussian 16:  ES64L-G16RevC.01  3-Jul-2019

 ----------------------------------------------------------------------
 # B3LYP/6-31G* empiricaldispersion=gd3 guess=read geom=check nosymm in
 tegral(ultrafinegrid)
 ----------------------------------------------------------------------

 ------------------------------------------------------
 Candidate Structure: Conf:197 Charge calc in gas phase
 ------------------------------------------------------
 Structure from the checkpoint file:  "conf-197.chk"
 Charge =  1 Multiplicity = 1

                          Input orientation:
 ---------------------------------------------------------------------
 Center     Atomic      Atomic             Coordinates (Angstroms)
 Number     Number       Type             X           Y           Z
 ---------------------------------------------------------------------
      1          7           0       -8.917393   -4.977455   -6.338538
      2          1           0       -8.930220   -5.924996   -5.950942
      3          1           0       -9.398145   -4.958225   -7.251835
      4          1           0       -9.377398   -4.338957   -5.659607
      5          6           0       -7.535067   -4.445956   -6.516739
      6          1           0       -6.854896   -5.253167   -6.808807
      7          6           0       -7.135338   -3.843589   -5.162299
      8          6           0       -7.573014   -3.397337   -7.655165
      9          1           0       -8.207805   -2.565240   -7.330249
     10          8           0       -8.038483   -3.436332   -4.423800
     11          6           0       -6.199094   -2.888944   -8.066910
     12          1           0       -5.675513   -2.392740   -7.246198
     13          1           0       -5.575952   -3.720253   -8.421583
     14          1           0       -6.316202   -2.177358   -8.887322
     15          8           0       -8.274792   -3.973016   -8.761038
     16          1           0       -7.690901   -4.619061   -9.193367
     17          7           0       -5.828138   -3.783007   -4.901548
     18          1           0       -5.123848   -4.038519   -5.592195
     19          6           0       -5.276408   -3.095256   -3.738954
     20          1           0       -5.894773   -2.214786   -3.540064
     21          6           0       -3.858348   -2.676652   -4.152142
     22          6           0       -5.302933   -4.003327   -2.472525
     23          1           0       -6.362544   -4.264297   -2.349733
     24          8           0       -3.247256   -3.307208   -5.021922
     25          6           0       -4.841337   -3.301525   -1.181124
     26          1           0       -3.777533   -3.048395   -1.267308
     27          1           0       -4.901626   -4.056682   -0.385826
     28          6           0       -4.489107   -5.287759   -2.687314
     29          1           0       -3.423168   -5.058406   -2.785564
     30          1           0       -4.800653   -5.820907   -3.590716
     31          1           0       -4.614155   -5.960731   -1.834029
     32          6           0       -5.642909   -2.072084   -0.746906
     33          1           0       -5.220750   -1.645523    0.170544
     34          1           0       -6.688131   -2.331221   -0.546233
     35          1           0       -5.636826   -1.271072   -1.493800
     36          7           0       -3.357338   -1.639406   -3.468692
     37          1           0       -3.919996   -1.102074   -2.815778
     38          6           0       -1.962621   -1.216647   -3.506370
     39          1           0       -1.329839   -2.110360   -3.492951
     40          6           0       -1.801169   -0.395008   -2.217039
     41          6           0       -1.634421   -0.380036   -4.748423
     42          1           0       -0.585429   -0.068761   -4.731802
     43          1           0       -2.264114    0.514585   -4.776771
     44          1           0       -1.816724   -0.972653   -5.648025
     45          8           0       -2.757977    0.266562   -1.798078
     46          7           0       -0.602719   -0.459184   -1.616673
     47          1           0        0.203201   -0.883499   -2.069761
     48          6           0       -0.268800    0.292448   -0.414905
     49          1           0       -0.856010    1.216778   -0.407409
     50          6           0        1.235870    0.595297   -0.511399
     51          6           0       -0.576969   -0.487828    0.881884
     52          1           0       -0.397076    0.169702    1.736753
     53          1           0        0.116355   -1.330744    0.973120
     54          8           0        1.959011   -0.065104   -1.263410
     55          6           0       -2.022444   -0.983230    0.934056
     56          1           0       -2.706046   -0.188152    0.615876
     57          1           0       -2.170997   -1.815032    0.235525
     58          6           0       -2.452725   -1.417411    2.331744
     59          7           0       -3.606010   -2.159666    2.355640
     60          1           0       -4.115489   -2.381163    1.514813
     61          1           0       -3.982726   -2.429617    3.252309
     62          8           0       -1.856604   -1.105293    3.350456
     63          7           0        1.684534    1.563948    0.305084
     64          1           0        1.061723    2.084658    0.913179
     65          6           0        3.089358    1.944230    0.380411
     66          1           0        3.693662    1.031253    0.383181
     67          6           0        3.252825    2.684619    1.711121
     68          6           0        3.488098    2.792586   -0.858646
     69          1           0        2.789012    3.634965   -0.910673
     70          1           0        3.300613    2.137527   -1.717161
     71          8           0        2.313264    3.314025    2.208251
     72          6           0        4.890809    3.343216   -0.883335
     73          6           0        5.103161    4.713506   -0.690670
     74          1           0        4.240564    5.374559   -0.595197
     75          6           0        6.031259    2.527060   -1.008192
     76          1           0        5.894906    1.454763   -1.158057
     77          6           0        6.378211    5.258947   -0.618882
     78          1           0        6.499069    6.329442   -0.498335
     79          6           0        7.316824    3.043176   -0.913724
     80          1           0        8.187219    2.399628   -1.000887
     81          8           0        8.759720    4.930576   -0.669787
     82          6           0        7.566955    4.452466   -0.718829
     83          7           0        4.461094    2.583565    2.300795
     84          1           0        5.208309    2.065251    1.853174
     85          6           0        4.813041    3.376756    3.471643
     86          1           0        4.431084    4.392385    3.316254
     87          6           0        6.332752    3.350945    3.568801
     88          6           0        4.218478    2.790823    4.759473
     89          1           0        4.489399    3.408229    5.622945
     90          1           0        3.130720    2.749396    4.671731
     91          1           0        4.607688    1.781122    4.916885
     92          8           0        6.947912    2.299540    3.424933
     93          7           0        6.976333    4.536059    3.776263
     94          1           0        6.471962    5.325647    4.153992
     95          6           0        8.413273    4.486311    3.965460
     96          1           0        8.801369    3.783495    3.225086
     97          6           0        8.738257    3.960483    5.360318
     98          6           0        9.073717    5.847251    3.706748
     99          1           0       10.152870    5.716443    3.844565
    100          1           0        8.761081    6.606177    4.437671
    101          8           0        7.977450    3.953590    6.300522
    102          6           0        8.737675    6.250850    2.273959
    103          1           0        7.677514    6.512998    2.215121
    104          1           0        8.886318    5.385018    1.617793
    105          6           0        9.563715    7.375368    1.663970
    106          1           0       10.623904    7.109668    1.703319
    107          1           0        9.472194    8.344112    2.172472
    108          7           0        9.221403    7.515275    0.230227
    109          1           0        9.563298    6.736766   -0.333431
    110          7           0        7.244702    8.694774    0.614035
    111          1           0        6.515492    9.275313    0.225690
    112          1           0        7.598169    8.981801    1.514664
    113          7           0        7.687909    7.789259   -1.478826
    114          1           0        6.932244    8.336561   -1.866552
    115          1           0        8.390246    7.502452   -2.146283
    116          6           0        8.066445    8.014397   -0.210286
    117          8           0       10.019698    3.533990    5.432579
    118          1           0       10.158775    3.234068    6.349838
 ---------------------------------------------------------------------

 SCF Done:  E(RB3LYP) =  -2837.73139985     A.U. after    1 cycles

 Alpha  occ. eigenvalues --  -19.30787 -19.26422 -19.23499 -19.21265 -19.18696
 Alpha  occ. eigenvalues --  -19.17816 -19.16069 -19.15459 -19.15314 -19.14485
 Alpha  occ. eigenvalues --  -19.06482 -14.61645 -14.49560 -14.47145 -14.45817
 Alpha  occ. eigenvalues --  -14.44751 -14.44501 -14.42450 -14.40370 -14.40219
 Alpha  occ. eigenvalues --  -14.39886 -14.38736 -10.43662 -10.41925 -10.41300
 Alpha  occ. eigenvalues --  -10.40218 -10.38292 -10.35795 -10.35702 -10.33933
 Alpha  occ. eigenvalues --  -10.33252 -10.33179 -10.32395 -10.31538 -10.31508
 Alpha  occ. eigenvalues --  -10.31218 -10.30150 -10.29194 -10.28658 -10.27884
 Alpha  occ. eigenvalues --  -10.27239 -10.26606 -10.26197 -10.26121 -10.26023
 Alpha  occ. eigenvalues --  -10.25181 -10.24874 -10.24118 -10.23904 -10.23418
 Alpha  occ. eigenvalues --  -10.21370 -10.20474 -10.20345 -10.17690 -10.17548
 Alpha  occ. eigenvalues --  -10.17084 -10.15677 -10.15587  -1.19852  -1.17912
 Alpha  occ. eigenvalues --   -1.15088  -1.14367  -1.13184  -1.10998  -1.10697
 Alpha  occ. eigenvalues --   -1.08036  -1.07757  -1.07328  -1.06217  -1.06068
 Alpha  occ. eigenvalues --   -1.05391  -1.01490  -0.99952  -0.99648  -0.98953
 Alpha  occ. eigenvalues --   -0.96975  -0.96421  -0.95243  -0.94910  -0.94816
 Alpha  occ. eigenvalues --   -0.94258  -0.90835  -0.86563  -0.86111  -0.85987
 Alpha  occ. eigenvalues --   -0.84351  -0.83258  -0.82809  -0.81731  -0.80554
 Alpha  occ. eigenvalues --   -0.80246  -0.78767  -0.78184  -0.76837  -0.75582
 Alpha  occ. eigenvalues --   -0.75006  -0.73977  -0.73641  -0.73222  -0.72438
 Alpha  occ. eigenvalues --   -0.72071  -0.71706  -0.71059  -0.69613  -0.69036
 Alpha  occ. eigenvalues --   -0.68249  -0.67816  -0.66896  -0.66718  -0.66250
 Alpha  occ. eigenvalues --   -0.65722  -0.65630  -0.65105  -0.64443  -0.64021
 Alpha  occ. eigenvalues --   -0.63556  -0.63062  -0.62441  -0.61695  -0.60769
 Alpha  occ. eigenvalues --   -0.60646  -0.59519  -0.59437  -0.59120  -0.58799
 Alpha  occ. eigenvalues --   -0.58706  -0.58662  -0.58073  -0.57686  -0.57278
 Alpha  occ. eigenvalues --   -0.55979  -0.55667  -0.55384  -0.54886  -0.54305
 Alpha  occ. eigenvalues --   -0.54245  -0.54065  -0.53907  -0.53352  -0.52822
 Alpha  occ. eigenvalues --   -0.52635  -0.52067  -0.51911  -0.51633  -0.51545
 Alpha  occ. eigenvalues --   -0.51429  -0.51376  -0.51206  -0.51015  -0.50480
 Alpha  occ. eigenvalues --   -0.50273  -0.49645  -0.49575  -0.49004  -0.48745
 Alpha  occ. eigenvalues --   -0.48296  -0.48216  -0.47995  -0.47903  -0.47534
 Alpha  occ. eigenvalues --   -0.46890  -0.46460  -0.46036  -0.45910  -0.45563
 Alpha  occ. eigenvalues --   -0.45468  -0.45122  -0.45028  -0.44805  -0.44726
 Alpha  occ. eigenvalues --   -0.44256  -0.44202  -0.44165  -0.43863  -0.43634
 Alpha  occ. eigenvalues --   -0.43305  -0.43119  -0.42702  -0.42404  -0.42167
 Alpha  occ. eigenvalues --   -0.41934  -0.41803  -0.41686  -0.41333  -0.41137
 Alpha  occ. eigenvalues --   -0.40916  -0.40409  -0.40168  -0.40109  -0.40071
 Alpha  occ. eigenvalues --   -0.39474  -0.39108  -0.38933  -0.38444  -0.38289
 Alpha  occ. eigenvalues --   -0.37870  -0.37509  -0.37203  -0.35689  -0.35539
 Alpha  occ. eigenvalues --   -0.35324  -0.34617  -0.34401  -0.33947  -0.32929
 Alpha  occ. eigenvalues --   -0.32281  -0.31963  -0.31612  -0.31171  -0.30314
 Alpha  occ. eigenvalues --   -0.30174  -0.29929  -0.29398  -0.29154  -0.28714
 Alpha  occ. eigenvalues --   -0.27866  -0.27697  -0.23481  -0.20676  -0.16621
 Alpha virt. eigenvalues --   -0.13145  -0.11308  -0.07536  -0.06960  -0.06597
 Alpha virt. eigenvalues --   -0.06030  -0.04610  -0.03935  -0.03604  -0.03014
 Alpha virt. eigenvalues --   -0.02803  -0.02272  -0.01918  -0.01811  -0.01233

 Mulliken charges:
               1
     1  N   -0.729014
     2  H    0.423279
     3  H    0.422967
     4  H    0.426324
     5  C   -0.151984
     6  H    0.200310
     7  C    0.649733
     8  C    0.114522
     9  H    0.193834
    10  O   -0.531959
    11  C   -0.487270
    12  H    0.192327
    13  H    0.162766
    14  H    0.213632
    15  O   -0.610655
    16  H    0.412911
    17  N   -0.608172
    18  H    0.366839
    19  C   -0.061201
    20  H    0.184742
    21  C    0.622103
    22  C   -0.082759
    23  H    0.150772
    24  O   -0.556201
    25  C   -0.283584
    26  H    0.156175
    27  H    0.153798
    28  C   -0.458011
    29  H    0.173503
    30  H    0.132191
    31  H    0.163819
    32  C   -0.477090
    33  H    0.164287
    34  H    0.162620
    35  H    0.154001
    36  N   -0.626343
    37  H    0.373453
    38  C   -0.029345
    39  H    0.175919
    40  C    0.614084
    41  C   -0.450900
    42  H    0.173584
    43  H    0.167265
    44  H    0.177375
    45  O   -0.554340
    46  N   -0.609564
    47  H    0.358905
    48  C   -0.072410
    49  H    0.179964
    50  C    0.630511
    51  C   -0.253551
    52  H    0.185485
    53  H    0.161261
    54  O   -0.551519
    55  C   -0.393941
    56  H    0.199974
    57  H    0.144290
    58  C    0.601397
    59  N   -0.772247
    60  H    0.344916
    61  H    0.343859
    62  O   -0.494975
    63  N   -0.618147
    64  H    0.352792
    65  C   -0.036079
    66  H    0.171560
    67  C    0.627476
    68  C   -0.352726
    69  H    0.133316
    70  H    0.163873
    71  O   -0.562992
    72  C    0.143718
    73  C   -0.197525
    74  H    0.078655
    75  C   -0.210993
    76  H    0.100624
    77  C   -0.200160
    78  H    0.039665
    79  C   -0.204996
    80  H    0.098909
    81  O   -0.740886
    82  C    0.416505
    83  N   -0.609714
    84  H    0.363367
    85  C   -0.004219
    86  H    0.155582
    87  C    0.618877
    88  C   -0.452260
    89  H    0.151002
    90  H    0.184065
    91  H    0.172202
    92  O   -0.524030
    93  N   -0.597395
    94  H    0.329945
    95  C   -0.041393
    96  H    0.223660
    97  C    0.592009
    98  C   -0.308131
    99  H    0.171975
   100  H    0.137758
   101  O   -0.465914
   102  C   -0.277757
   103  H    0.150257
   104  H    0.227270
   105  C   -0.199743
   106  H    0.189303
   107  H    0.146577
   108  N   -0.545881
   109  H    0.386080
   110  N   -0.727874
   111  H    0.362423
   112  H    0.373272
   113  N   -0.688321
   114  H    0.355942
   115  H    0.382971
   116  C    0.732379
   117  O   -0.565945
   118  H    0.416405
 Sum of Mulliken charges =   1.00000

 Dipole moment (field-independent basis, Debye):
    X=            -23.9349    Y=             -2.4493    Z=            -25.4879  Tot=             35.0502
 Quadrupole moment (field-independent basis, Debye-Ang):
   XX=              7.6968   YY=            -37.1249   ZZ=           -159.9200
   XY=            319.5753   XZ=            233.3649   YZ=            137.4967

 Normal termination of Gaussian 16 at Mon Jun 27 03:08:01 2022.
