 Gaussian 16, Revision C.01,
 Gaussian 16:  ES64L-G16RevC.01  3-Jul-2019

 ----------------------------------------------------------------------
 # B3LYP/6-31G* empiricaldispersion=gd3 guess=read geom=check nosymm in
 tegral(ultrafinegrid)
 ----------------------------------------------------------------------

 ------------------------------------------------------
 Candidate Structure: Conf:553 Charge calc in gas phase
 ------------------------------------------------------
 Structure from the checkpoint file:  "conf-553.chk"
 Charge =  1 Multiplicity = 1

                          Input orientation:
 ---------------------------------------------------------------------
 Center     Atomic      Atomic             Coordinates (Angstroms)
 Number     Number       Type             X           Y           Z
 ---------------------------------------------------------------------
      1          7           0       -7.149276   -3.386505   -8.885451
      2          1           0       -7.732592   -4.170552   -8.581745
      3          1           0       -7.015690   -3.418833   -9.911189
      4          1           0       -7.594180   -2.496659   -8.553539
      5          6           0       -5.787926   -3.368399   -8.245151
      6          1           0       -5.503147   -4.391872   -7.988503
      7          6           0       -5.955306   -2.444064   -7.018530
      8          6           0       -4.804914   -2.760402   -9.295432
      9          1           0       -5.005579   -1.683662   -9.346942
     10          8           0       -6.911333   -1.658382   -7.024401
     11          6           0       -3.342949   -3.009783   -8.950167
     12          1           0       -3.055487   -2.547796   -8.000841
     13          1           0       -3.135879   -4.085955   -8.881161
     14          1           0       -2.712594   -2.584712   -9.736224
     15          8           0       -5.167801   -3.269269  -10.580951
     16          1           0       -4.616227   -4.040972  -10.791802
     17          7           0       -5.013139   -2.538674   -6.087649
     18          1           0       -4.196041   -3.136925   -6.214747
     19          6           0       -4.812960   -1.566906   -5.011848
     20          1           0       -5.231134   -0.612646   -5.342887
     21          6           0       -3.276509   -1.467544   -4.885454
     22          6           0       -5.529770   -2.021416   -3.706426
     23          1           0       -6.566666   -2.208409   -4.020512
     24          8           0       -2.555839   -2.323023   -5.420366
     25          6           0       -5.576211   -0.938372   -2.608676
     26          1           0       -4.575137   -0.775070   -2.190823
     27          1           0       -6.173499   -1.352405   -1.786686
     28          6           0       -4.934974   -3.328574   -3.165580
     29          1           0       -3.900961   -3.185956   -2.830808
     30          1           0       -4.936216   -4.122730   -3.920147
     31          1           0       -5.516105   -3.683310   -2.308519
     32          6           0       -6.189307    0.400804   -3.036733
     33          1           0       -6.319883    1.055857   -2.170309
     34          1           0       -7.170390    0.257356   -3.505184
     35          1           0       -5.561046    0.948172   -3.750517
     36          7           0       -2.810468   -0.438788   -4.171093
     37          1           0       -3.427203    0.210393   -3.687640
     38          6           0       -1.408608   -0.278224   -3.811214
     39          1           0       -1.004444   -1.262284   -3.544736
     40          6           0       -1.410519    0.634169   -2.566172
     41          6           0       -0.583966    0.308988   -4.967239
     42          1           0        0.470998    0.401799   -4.691545
     43          1           0       -0.959209    1.300570   -5.239683
     44          1           0       -0.657865   -0.353817   -5.833460
     45          8           0       -2.455654    1.163302   -2.173042
     46          7           0       -0.215765    0.810552   -1.981305
     47          1           0        0.625598    0.345142   -2.310367
     48          6           0       -0.000261    1.698830   -0.848013
     49          1           0       -0.561534    2.622509   -1.004925
     50          6           0        1.510116    1.969510   -0.805624
     51          6           0       -0.481016    1.017683    0.461527
     52          1           0        0.046961    0.061286    0.553829
     53          1           0       -1.544384    0.795713    0.321285
     54          8           0        2.302223    1.143392   -1.279988
     55          6           0       -0.284130    1.805178    1.776615
     56          1           0       -0.686941    1.200362    2.596860
     57          1           0        0.779028    1.957626    1.991005
     58          6           0       -0.928612    3.184272    1.747307
     59          7           0       -2.005358    3.373890    2.546244
     60          1           0       -2.328488    2.675792    3.198346
     61          1           0       -2.430929    4.291156    2.569110
     62          8           0       -0.507922    4.085971    1.014007
     63          7           0        1.872355    3.105774   -0.184205
     64          1           0        1.129205    3.662340    0.253392
     65          6           0        3.258109    3.332371    0.229846
     66          1           0        3.896643    3.051339   -0.612300
     67          6           0        3.522690    2.398311    1.428735
     68          6           0        3.463718    4.800068    0.597208
     69          1           0        2.773706    5.036207    1.416619
     70          1           0        3.151126    5.403261   -0.266226
     71          8           0        3.181383    2.706880    2.577560
     72          6           0        4.875525    5.164484    1.020690
     73          6           0        5.085406    6.372169    1.700730
     74          1           0        4.234726    7.018802    1.908629
     75          6           0        5.998247    4.365606    0.764516
     76          1           0        5.897264    3.417393    0.244333
     77          6           0        6.349821    6.767941    2.126636
     78          1           0        6.485412    7.702487    2.661065
     79          6           0        7.270373    4.736361    1.199569
     80          1           0        8.129164    4.095556    1.024911
     81          8           0        8.699554    6.207272    2.371422
     82          6           0        7.460550    5.934807    1.902516
     83          7           0        4.065153    1.204983    1.107336
     84          1           0        4.152037    0.977438    0.123863
     85          6           0        4.244284    0.120584    2.080775
     86          1           0        3.405429    0.176675    2.784882
     87          6           0        5.561137    0.367089    2.852981
     88          6           0        4.263010   -1.223618    1.365256
     89          1           0        4.318667   -2.035200    2.095312
     90          1           0        3.358289   -1.345763    0.759946
     91          1           0        5.147278   -1.298974    0.725928
     92          8           0        6.595038   -0.240179    2.602733
     93          7           0        5.472296    1.339462    3.796551
     94          1           0        4.618970    1.886698    3.834763
     95          6           0        6.668026    1.810021    4.465355
     96          1           0        7.420979    2.086689    3.717125
     97          6           0        7.260175    0.696250    5.330134
     98          6           0        6.369836    3.028250    5.358157
     99          1           0        7.326926    3.370710    5.766314
    100          1           0        5.754040    2.710743    6.209863
    101          8           0        6.636574   -0.185164    5.871440
    102          6           0        5.676868    4.176698    4.605340
    103          1           0        4.606837    3.975905    4.484687
    104          1           0        6.075367    4.258690    3.588134
    105          6           0        5.834736    5.529102    5.300516
    106          1           0        5.522449    5.449173    6.350604
    107          1           0        5.181852    6.264728    4.814828
    108          7           0        7.240500    5.968042    5.233306
    109          1           0        7.755998    5.555766    4.462918
    110          7           0        6.888996    7.961909    6.377394
    111          1           0        7.223652    8.889956    6.599980
    112          1           0        6.667737    7.410401    7.197463
    113          7           0        8.423702    7.833630    4.549435
    114          1           0        8.702147    8.775242    4.819501
    115          1           0        8.675719    6.951568    3.046490
    116          6           0        7.571338    7.300890    5.368498
    117          8           0        8.593267    0.876271    5.482907
    118          1           0        8.902497    0.164452    6.073896
 ---------------------------------------------------------------------

 SCF Done:  E(RB3LYP) =  -2837.81411328     A.U. after    3 cycles

 Alpha  occ. eigenvalues --  -19.30799 -19.26567 -19.22238 -19.22234 -19.20175
 Alpha  occ. eigenvalues --  -19.19181 -19.18933 -19.17525 -19.17482 -19.16303
 Alpha  occ. eigenvalues --  -19.14819 -14.59923 -14.49411 -14.45550 -14.43844
 Alpha  occ. eigenvalues --  -14.43512 -14.41965 -14.41713 -14.39938 -14.38697
 Alpha  occ. eigenvalues --  -14.38306 -14.33990 -10.43630 -10.40769 -10.40087
 Alpha  occ. eigenvalues --  -10.39156 -10.37187 -10.36778 -10.35583 -10.34415
 Alpha  occ. eigenvalues --  -10.34274 -10.34234 -10.33272 -10.32372 -10.31712
 Alpha  occ. eigenvalues --  -10.31411 -10.30506 -10.29292 -10.28949 -10.27969
 Alpha  occ. eigenvalues --  -10.27026 -10.26964 -10.26857 -10.26822 -10.26805
 Alpha  occ. eigenvalues --  -10.26512 -10.26489 -10.25930 -10.25692 -10.23871
 Alpha  occ. eigenvalues --  -10.23061 -10.22610 -10.22514 -10.22317 -10.22177
 Alpha  occ. eigenvalues --  -10.22027 -10.21183 -10.21015  -1.19537  -1.17905
 Alpha  occ. eigenvalues --   -1.14211  -1.13570  -1.13007  -1.12037  -1.10883
 Alpha  occ. eigenvalues --   -1.10514  -1.09063  -1.06677  -1.06199  -1.06006
 Alpha  occ. eigenvalues --   -1.04014  -1.02334  -1.02316  -1.00495  -0.99092
 Alpha  occ. eigenvalues --   -0.98059  -0.97916  -0.95730  -0.93726  -0.93145
 Alpha  occ. eigenvalues --   -0.90836  -0.89260  -0.88432  -0.87651  -0.86071
 Alpha  occ. eigenvalues --   -0.85499  -0.84067  -0.83289  -0.82827  -0.81314
 Alpha  occ. eigenvalues --   -0.80633  -0.79643  -0.77929  -0.77879  -0.77509
 Alpha  occ. eigenvalues --   -0.76101  -0.74734  -0.74443  -0.73269  -0.72519
 Alpha  occ. eigenvalues --   -0.71836  -0.71228  -0.70811  -0.70538  -0.69134
 Alpha  occ. eigenvalues --   -0.68199  -0.67222  -0.66564  -0.66416  -0.65996
 Alpha  occ. eigenvalues --   -0.65214  -0.65003  -0.64888  -0.64466  -0.64194
 Alpha  occ. eigenvalues --   -0.63389  -0.63293  -0.62667  -0.61696  -0.61080
 Alpha  occ. eigenvalues --   -0.60965  -0.60641  -0.59511  -0.59020  -0.58641
 Alpha  occ. eigenvalues --   -0.57993  -0.57782  -0.57628  -0.56925  -0.56590
 Alpha  occ. eigenvalues --   -0.56332  -0.56147  -0.55683  -0.55645  -0.55080
 Alpha  occ. eigenvalues --   -0.54446  -0.54238  -0.54054  -0.53440  -0.53375
 Alpha  occ. eigenvalues --   -0.52927  -0.52066  -0.52001  -0.51599  -0.51507
 Alpha  occ. eigenvalues --   -0.51322  -0.51211  -0.50931  -0.50909  -0.50565
 Alpha  occ. eigenvalues --   -0.50411  -0.50203  -0.49845  -0.49341  -0.49330
 Alpha  occ. eigenvalues --   -0.49038  -0.48490  -0.48381  -0.48319  -0.48053
 Alpha  occ. eigenvalues --   -0.48037  -0.47742  -0.47067  -0.46856  -0.46787
 Alpha  occ. eigenvalues --   -0.46289  -0.46016  -0.45603  -0.45513  -0.45416
 Alpha  occ. eigenvalues --   -0.45176  -0.45030  -0.44907  -0.44642  -0.44243
 Alpha  occ. eigenvalues --   -0.44158  -0.44062  -0.43550  -0.43477  -0.43330
 Alpha  occ. eigenvalues --   -0.42864  -0.42747  -0.42450  -0.42336  -0.42223
 Alpha  occ. eigenvalues --   -0.42094  -0.42043  -0.41825  -0.41540  -0.41508
 Alpha  occ. eigenvalues --   -0.40632  -0.40431  -0.39781  -0.39568  -0.38943
 Alpha  occ. eigenvalues --   -0.38607  -0.38161  -0.37779  -0.37425  -0.36280
 Alpha  occ. eigenvalues --   -0.36134  -0.35568  -0.34787  -0.34484  -0.34317
 Alpha  occ. eigenvalues --   -0.34220  -0.34041  -0.33541  -0.33020  -0.32476
 Alpha  occ. eigenvalues --   -0.32056  -0.31642  -0.30469  -0.30312  -0.30198
 Alpha  occ. eigenvalues --   -0.28566  -0.28107  -0.27786  -0.27226  -0.23912
 Alpha virt. eigenvalues --   -0.12613  -0.10580  -0.08035  -0.06073  -0.05775
 Alpha virt. eigenvalues --   -0.05352  -0.05049  -0.04931  -0.03866  -0.03146
 Alpha virt. eigenvalues --   -0.02644  -0.01728  -0.01711  -0.01424  -0.00842

 Mulliken charges:
               1
     1  N   -0.744995
     2  H    0.415537
     3  H    0.426749
     4  H    0.426259
     5  C   -0.142047
     6  H    0.202581
     7  C    0.643884
     8  C    0.128625
     9  H    0.193067
    10  O   -0.533933
    11  C   -0.515594
    12  H    0.209440
    13  H    0.163671
    14  H    0.206221
    15  O   -0.628847
    16  H    0.424238
    17  N   -0.596212
    18  H    0.371557
    19  C   -0.090704
    20  H    0.196672
    21  C    0.633297
    22  C   -0.071166
    23  H    0.148689
    24  O   -0.562988
    25  C   -0.284201
    26  H    0.158605
    27  H    0.154996
    28  C   -0.464250
    29  H    0.164255
    30  H    0.138156
    31  H    0.167513
    32  C   -0.462167
    33  H    0.173630
    34  H    0.155901
    35  H    0.143039
    36  N   -0.621169
    37  H    0.384536
    38  C   -0.051203
    39  H    0.186610
    40  C    0.629088
    41  C   -0.449447
    42  H    0.169107
    43  H    0.166827
    44  H    0.178338
    45  O   -0.550336
    46  N   -0.623404
    47  H    0.359401
    48  C   -0.044043
    49  H    0.202634
    50  C    0.604043
    51  C   -0.272173
    52  H    0.159867
    53  H    0.176399
    54  O   -0.569428
    55  C   -0.399351
    56  H    0.150359
    57  H    0.213961
    58  C    0.626216
    59  N   -0.733420
    60  H    0.350886
    61  H    0.356329
    62  O   -0.529700
    63  N   -0.637580
    64  H    0.401364
    65  C   -0.057782
    66  H    0.171825
    67  C    0.648735
    68  C   -0.363545
    69  H    0.170959
    70  H    0.164175
    71  O   -0.575011
    72  C    0.170958
    73  C   -0.192655
    74  H    0.120947
    75  C   -0.195266
    76  H    0.119618
    77  C   -0.195054
    78  H    0.141811
    79  C   -0.181981
    80  H    0.143185
    81  O   -0.689412
    82  C    0.339143
    83  N   -0.586418
    84  H    0.361963
    85  C   -0.061946
    86  H    0.165021
    87  C    0.642856
    88  C   -0.472774
    89  H    0.176808
    90  H    0.143673
    91  H    0.181302
    92  O   -0.521343
    93  N   -0.626745
    94  H    0.374131
    95  C   -0.006348
    96  H    0.181092
    97  C    0.598576
    98  C   -0.311325
    99  H    0.178559
   100  H    0.154471
   101  O   -0.465867
   102  C   -0.334453
   103  H    0.166296
   104  H    0.185139
   105  C   -0.113004
   106  H    0.133554
   107  H    0.157889
   108  N   -0.608124
   109  H    0.348461
   110  N   -0.742758
   111  H    0.333023
   112  H    0.339589
   113  N   -0.721257
   114  H    0.283859
   115  H    0.453646
   116  C    0.645801
   117  O   -0.570229
   118  H    0.412039
 Sum of Mulliken charges =   1.00000

 Dipole moment (field-independent basis, Debye):
    X=            -27.2910    Y=             -8.2043    Z=            -26.2800  Tot=             38.7653
 Quadrupole moment (field-independent basis, Debye-Ang):
   XX=           -211.8249   YY=           -238.7294   ZZ=             -1.7296
   XY=            110.8960   XZ=            213.0034   YZ=            184.8012

 Normal termination of Gaussian 16 at Mon Jun 27 03:08:53 2022.
