 Gaussian 16, Revision C.01,
 Gaussian 16:  ES64L-G16RevC.01  3-Jul-2019

 ----------------------------------------------------------------------
 # B3LYP/6-31G* empiricaldispersion=gd3 guess=read geom=check nosymm in
 tegral(ultrafinegrid)
 ----------------------------------------------------------------------

 ------------------------------------------------------
 Candidate Structure: Conf:879 Charge calc in gas phase
 ------------------------------------------------------
 Structure from the checkpoint file:  "conf-879.chk"
 Charge =  1 Multiplicity = 1

                          Input orientation:
 ---------------------------------------------------------------------
 Center     Atomic      Atomic             Coordinates (Angstroms)
 Number     Number       Type             X           Y           Z
 ---------------------------------------------------------------------
      1          7           0       -5.963709   -4.979357   -4.081776
      2          1           0       -6.476337   -5.554836   -3.408897
      3          1           0       -5.614659   -5.562718   -4.861047
      4          1           0       -6.588703   -4.205833   -4.404323
      5          6           0       -4.780107   -4.264707   -3.480925
      6          1           0       -4.347740   -4.871354   -2.682685
      7          6           0       -5.349069   -2.919064   -2.998214
      8          6           0       -3.771623   -4.063854   -4.649646
      9          1           0       -4.214810   -3.339071   -5.343229
     10          8           0       -6.340095   -2.477564   -3.596744
     11          6           0       -2.412195   -3.574229   -4.178798
     12          1           0       -2.491496   -2.593249   -3.700808
     13          1           0       -1.980129   -4.273232   -3.453244
     14          1           0       -1.743624   -3.489318   -5.040086
     15          8           0       -3.711462   -5.292695   -5.384194
     16          1           0       -2.973675   -5.826182   -5.045443
     17          7           0       -4.681089   -2.338252   -2.006541
     18          1           0       -3.897346   -2.855025   -1.588765
     19          6           0       -4.940117   -0.975108   -1.563790
     20          1           0       -5.664496   -0.551045   -2.267801
     21          6           0       -3.618068   -0.187084   -1.724705
     22          6           0       -5.563949   -0.953340   -0.140864
     23          1           0       -5.824778    0.093713    0.077009
     24          8           0       -2.689210   -0.642909   -2.401388
     25          6           0       -4.571732   -1.437048    0.936524
     26          1           0       -3.647801   -0.850393    0.858712
     27          1           0       -4.297776   -2.480715    0.726268
     28          6           0       -6.876933   -1.751126   -0.136919
     29          1           0       -6.675501   -2.824746   -0.228960
     30          1           0       -7.524392   -1.456297   -0.969494
     31          1           0       -7.428979   -1.592433    0.792997
     32          6           0       -5.105332   -1.320379    2.368583
     33          1           0       -4.329861   -1.588419    3.093558
     34          1           0       -5.961526   -1.979724    2.542341
     35          1           0       -5.421969   -0.293563    2.588313
     36          7           0       -3.551112    1.006048   -1.100293
     37          1           0       -4.315284    1.300095   -0.506983
     38          6           0       -2.331220    1.833183   -1.044606
     39          1           0       -1.829717    1.728749   -2.010384
     40          6           0       -1.425977    1.233538    0.064384
     41          6           0       -2.706262    3.284036   -0.788076
     42          1           0       -1.818592    3.917952   -0.840591
     43          1           0       -3.152508    3.398808    0.205252
     44          1           0       -3.421315    3.620983   -1.545152
     45          8           0       -1.367107    1.702384    1.201380
     46          7           0       -0.811074    0.086199   -0.318726
     47          1           0       -0.871311   -0.182558   -1.293804
     48          6           0       -0.057087   -0.779385    0.569907
     49          1           0       -0.057019   -0.287071    1.545251
     50          6           0        1.373462   -0.906403    0.019490
     51          6           0       -0.733043   -2.161376    0.725865
     52          1           0       -1.710571   -2.002344    1.195251
     53          1           0       -0.134595   -2.757085    1.427326
     54          8           0        1.576486   -1.335749   -1.118588
     55          6           0       -0.919676   -2.925150   -0.603450
     56          1           0       -1.431874   -2.293868   -1.330480
     57          1           0        0.057766   -3.180264   -1.023573
     58          6           0       -1.766151   -4.170894   -0.440708
     59          7           0       -1.200621   -5.201458    0.224932
     60          1           0       -0.270996   -5.139249    0.613407
     61          1           0       -1.749148   -6.029036    0.415860
     62          8           0       -2.923607   -4.262290   -0.887073
     63          7           0        2.334352   -0.517794    0.875361
     64          1           0        2.096126   -0.128502    1.782290
     65          6           0        3.734066   -0.346519    0.533730
     66          1           0        4.168098   -1.321080    0.272265
     67          6           0        4.404657    0.109985    1.845083
     68          6           0        3.948286    0.612068   -0.682597
     69          1           0        3.807773    0.013533   -1.585236
     70          1           0        4.992205    0.952553   -0.685761
     71          8           0        3.756831    0.243518    2.886102
     72          6           0        2.996497    1.785246   -0.707449
     73          6           0        2.004441    1.859915   -1.692834
     74          1           0        1.943860    1.078420   -2.445847
     75          6           0        3.049038    2.796233    0.263257
     76          1           0        3.832340    2.791904    1.017536
     77          6           0        1.076691    2.899673   -1.707085
     78          1           0        0.316638    2.964892   -2.480724
     79          6           0        2.118674    3.831599    0.263604
     80          1           0        2.176782    4.618241    1.008905
     81          8           0        0.172589    4.867169   -0.737218
     82          6           0        1.108102    3.887013   -0.712803
     83          7           0        5.744706    0.296011    1.806956
     84          1           0        6.201538    0.362812    0.907820
     85          6           0        6.446303    0.828250    2.970918
     86          1           0        6.370682    0.086713    3.774711
     87          6           0        5.787832    2.150750    3.419537
     88          6           0        7.912861    1.084276    2.617091
     89          1           0        8.458049    1.435104    3.497932
     90          1           0        8.393380    0.168226    2.257651
     91          1           0        7.979857    1.857962    1.844648
     92          8           0        5.501045    3.025792    2.608558
     93          7           0        5.612080    2.272746    4.756043
     94          1           0        5.864081    1.520037    5.383640
     95          6           0        5.053553    3.461193    5.371176
     96          1           0        5.284176    4.316163    4.728812
     97          6           0        5.727983    3.643790    6.724144
     98          6           0        3.521454    3.372669    5.574619
     99          1           0        3.209156    4.262138    6.137119
    100          1           0        3.305160    2.502124    6.209255
    101          8           0        6.327889    2.772570    7.316205
    102          6           0        2.729566    3.280081    4.266336
    103          1           0        2.980935    2.363079    3.726501
    104          1           0        3.024923    4.106295    3.606746
    105          6           0        1.212271    3.330730    4.530988
    106          1           0        0.973976    4.161783    5.205332
    107          1           0        0.897021    2.412972    5.041197
    108          7           0        0.395887    3.480859    3.335602
    109          1           0        0.103738    2.654788    2.828886
    110          7           0        0.713500    5.797007    3.252349
    111          1           0        0.479066    6.633915    2.732795
    112          1           0        1.697149    5.724539    3.477708
    113          7           0       -0.744504    4.817692    1.747362
    114          1           0       -0.094012    5.093282    0.215421
    115          1           0       -1.244769    3.944085    1.579105
    116          6           0        0.092998    4.671995    2.730997
    117          8           0        5.528819    4.883743    7.211740
    118          1           0        5.944023    4.916285    8.094982
 ---------------------------------------------------------------------

 SCF Done:  E(RB3LYP) =  -2837.84495134     A.U. after    1 cycles

 Alpha  occ. eigenvalues --  -19.28770 -19.26452 -19.24424 -19.23378 -19.21859
 Alpha  occ. eigenvalues --  -19.20887 -19.19952 -19.19896 -19.18602 -19.18138
 Alpha  occ. eigenvalues --  -19.17611 -14.58305 -14.47166 -14.46966 -14.45966
 Alpha  occ. eigenvalues --  -14.43844 -14.43656 -14.42934 -14.42479 -14.40090
 Alpha  occ. eigenvalues --  -14.39546 -14.32964 -10.41397 -10.40338 -10.38899
 Alpha  occ. eigenvalues --  -10.38817 -10.38132 -10.37690 -10.36781 -10.36654
 Alpha  occ. eigenvalues --  -10.35899 -10.35000 -10.33539 -10.33501 -10.31535
 Alpha  occ. eigenvalues --  -10.31403 -10.30901 -10.30706 -10.30342 -10.29448
 Alpha  occ. eigenvalues --  -10.29009 -10.28577 -10.28208 -10.27960 -10.27703
 Alpha  occ. eigenvalues --  -10.27164 -10.26373 -10.25586 -10.25536 -10.25493
 Alpha  occ. eigenvalues --  -10.25409 -10.23906 -10.23830 -10.23162 -10.22936
 Alpha  occ. eigenvalues --  -10.22506 -10.22209 -10.22164  -1.17445  -1.17386
 Alpha  occ. eigenvalues --   -1.15759  -1.14458  -1.13678  -1.12103  -1.11878
 Alpha  occ. eigenvalues --   -1.11398  -1.10319  -1.09603  -1.08467  -1.06634
 Alpha  occ. eigenvalues --   -1.04406  -1.02810  -1.02201  -1.01639  -1.00451
 Alpha  occ. eigenvalues --   -1.00327  -0.99695  -0.99173  -0.93760  -0.92055
 Alpha  occ. eigenvalues --   -0.90034  -0.89369  -0.89116  -0.88682  -0.86679
 Alpha  occ. eigenvalues --   -0.85579  -0.85159  -0.83941  -0.83118  -0.82024
 Alpha  occ. eigenvalues --   -0.81100  -0.80248  -0.79569  -0.78333  -0.77843
 Alpha  occ. eigenvalues --   -0.75888  -0.73948  -0.73304  -0.72764  -0.72420
 Alpha  occ. eigenvalues --   -0.72394  -0.72172  -0.71020  -0.70742  -0.70520
 Alpha  occ. eigenvalues --   -0.69170  -0.69027  -0.67964  -0.67062  -0.66458
 Alpha  occ. eigenvalues --   -0.65984  -0.65844  -0.65574  -0.65192  -0.65015
 Alpha  occ. eigenvalues --   -0.64576  -0.64460  -0.64277  -0.63081  -0.62419
 Alpha  occ. eigenvalues --   -0.61813  -0.61043  -0.60252  -0.59875  -0.59348
 Alpha  occ. eigenvalues --   -0.58380  -0.58253  -0.57731  -0.56915  -0.56826
 Alpha  occ. eigenvalues --   -0.56709  -0.56369  -0.55989  -0.55726  -0.55431
 Alpha  occ. eigenvalues --   -0.55143  -0.54877  -0.54724  -0.54325  -0.53887
 Alpha  occ. eigenvalues --   -0.53672  -0.53559  -0.53438  -0.52748  -0.52547
 Alpha  occ. eigenvalues --   -0.52165  -0.51941  -0.51696  -0.51457  -0.51354
 Alpha  occ. eigenvalues --   -0.51143  -0.50794  -0.50770  -0.50234  -0.50071
 Alpha  occ. eigenvalues --   -0.49554  -0.49398  -0.48858  -0.48742  -0.48529
 Alpha  occ. eigenvalues --   -0.48331  -0.48237  -0.47821  -0.47802  -0.47617
 Alpha  occ. eigenvalues --   -0.47401  -0.47010  -0.46725  -0.46560  -0.46087
 Alpha  occ. eigenvalues --   -0.45883  -0.45760  -0.45703  -0.45600  -0.45466
 Alpha  occ. eigenvalues --   -0.45235  -0.45087  -0.44792  -0.44486  -0.44340
 Alpha  occ. eigenvalues --   -0.44127  -0.43839  -0.43640  -0.43454  -0.43290
 Alpha  occ. eigenvalues --   -0.43218  -0.42893  -0.42748  -0.42007  -0.41981
 Alpha  occ. eigenvalues --   -0.41846  -0.41596  -0.41145  -0.40559  -0.39977
 Alpha  occ. eigenvalues --   -0.39416  -0.38789  -0.38763  -0.38394  -0.38242
 Alpha  occ. eigenvalues --   -0.37203  -0.37119  -0.37080  -0.36840  -0.35622
 Alpha  occ. eigenvalues --   -0.34779  -0.34579  -0.34333  -0.34147  -0.33670
 Alpha  occ. eigenvalues --   -0.32835  -0.32671  -0.31850  -0.31557  -0.31353
 Alpha  occ. eigenvalues --   -0.31172  -0.30895  -0.28806  -0.27040  -0.25241
 Alpha virt. eigenvalues --   -0.10806  -0.08941  -0.08568  -0.08509  -0.06686
 Alpha virt. eigenvalues --   -0.05867  -0.05795  -0.04397  -0.04099  -0.03878
 Alpha virt. eigenvalues --   -0.03642  -0.03157  -0.02966  -0.02186  -0.01698

 Mulliken charges:
               1
     1  N   -0.743548
     2  H    0.411046
     3  H    0.421912
     4  H    0.421095
     5  C   -0.151694
     6  H    0.222764
     7  C    0.632083
     8  C    0.124406
     9  H    0.187901
    10  O   -0.546779
    11  C   -0.521570
    12  H    0.231927
    13  H    0.155146
    14  H    0.190735
    15  O   -0.633582
    16  H    0.418376
    17  N   -0.607081
    18  H    0.420374
    19  C   -0.092904
    20  H    0.212164
    21  C    0.630660
    22  C   -0.094015
    23  H    0.134150
    24  O   -0.541203
    25  C   -0.293653
    26  H    0.152910
    27  H    0.144376
    28  C   -0.459506
    29  H    0.137894
    30  H    0.166108
    31  H    0.171846
    32  C   -0.452097
    33  H    0.156480
    34  H    0.158245
    35  H    0.155685
    36  N   -0.596667
    37  H    0.348572
    38  C   -0.062901
    39  H    0.188758
    40  C    0.645517
    41  C   -0.508904
    42  H    0.234224
    43  H    0.163304
    44  H    0.156979
    45  O   -0.541175
    46  N   -0.595295
    47  H    0.373885
    48  C   -0.070519
    49  H    0.174188
    50  C    0.658112
    51  C   -0.286190
    52  H    0.169000
    53  H    0.146762
    54  O   -0.557499
    55  C   -0.399941
    56  H    0.199496
    57  H    0.202715
    58  C    0.602846
    59  N   -0.717790
    60  H    0.362268
    61  H    0.354867
    62  O   -0.566251
    63  N   -0.623622
    64  H    0.360141
    65  C   -0.021182
    66  H    0.178944
    67  C    0.633199
    68  C   -0.389448
    69  H    0.180938
    70  H    0.146990
    71  O   -0.545126
    72  C    0.155089
    73  C   -0.192565
    74  H    0.134016
    75  C   -0.226351
    76  H    0.185668
    77  C   -0.192905
    78  H    0.124858
    79  C   -0.184797
    80  H    0.118426
    81  O   -0.689205
    82  C    0.357796
    83  N   -0.604924
    84  H    0.344529
    85  C   -0.025200
    86  H    0.161468
    87  C    0.654324
    88  C   -0.490335
    89  H    0.180012
    90  H    0.168100
    91  H    0.182247
    92  O   -0.536636
    93  N   -0.598946
    94  H    0.347978
    95  C   -0.044694
    96  H    0.199503
    97  C    0.583857
    98  C   -0.269372
    99  H    0.161141
   100  H    0.147965
   101  O   -0.464242
   102  C   -0.294283
   103  H    0.192576
   104  H    0.146089
   105  C   -0.146954
   106  H    0.169013
   107  H    0.150935
   108  N   -0.608674
   109  H    0.350038
   110  N   -0.750530
   111  H    0.347221
   112  H    0.332429
   113  N   -0.777835
   114  H    0.443894
   115  H    0.323532
   116  C    0.653564
   117  O   -0.560795
   118  H    0.423121
 Sum of Mulliken charges =   1.00000

 Dipole moment (field-independent basis, Debye):
    X=            -10.5920    Y=            -19.5943    Z=             -2.0068  Tot=             22.3642
 Quadrupole moment (field-independent basis, Debye-Ang):
   XX=           -189.9466   YY=           -227.5938   ZZ=           -270.2527
   XY=             93.2532   XZ=             80.6538   YZ=             78.1127

 Normal termination of Gaussian 16 at Mon Jun 27 03:08:32 2022.
