 Gaussian 16, Revision C.01,
 Gaussian 16:  ES64L-G16RevC.01  3-Jul-2019

 ----------------------------------------------------------------------
 # B3LYP/6-31G* empiricaldispersion=gd3 guess=read geom=check nosymm in
 tegral(ultrafinegrid)
 ----------------------------------------------------------------------

 ------------------------------------------------------
 Candidate Structure: Conf:231 Charge calc in gas phase
 ------------------------------------------------------
 Structure from the checkpoint file:  "conf-231.chk"
 Charge =  1 Multiplicity = 1

                          Input orientation:
 ---------------------------------------------------------------------
 Center     Atomic      Atomic             Coordinates (Angstroms)
 Number     Number       Type             X           Y           Z
 ---------------------------------------------------------------------
      1          7           0       -6.186960    0.582100   -7.279716
      2          1           0       -6.856892    0.376893   -6.536097
      3          1           0       -6.615925    0.363027   -8.179542
      4          1           0       -5.964873    1.579217   -7.251567
      5          6           0       -4.939427   -0.202166   -7.109400
      6          1           0       -5.180336   -1.260136   -6.990524
      7          6           0       -4.229773    0.284225   -5.838367
      8          6           0       -4.070158   -0.053746   -8.351902
      9          1           0       -3.974109    1.019924   -8.566329
     10          8           0       -3.708382    1.437206   -5.776994
     11          6           0       -2.690798   -0.660372   -8.198695
     12          1           0       -2.141815   -0.101327   -7.438172
     13          1           0       -2.769302   -1.703816   -7.888856
     14          1           0       -2.142696   -0.604069   -9.140285
     15          8           0       -4.802715   -0.691546   -9.403367
     16          1           0       -4.320721   -0.560712  -10.223063
     17          7           0       -4.282625   -0.572810   -4.780914
     18          1           0       -4.567703   -1.523653   -4.933521
     19          6           0       -3.631441   -0.233039   -3.523817
     20          1           0       -3.416263    0.832108   -3.553382
     21          6           0       -2.276893   -0.905416   -3.510026
     22          6           0       -4.523709   -0.448197   -2.311424
     23          1           0       -4.790481   -1.508599   -2.264924
     24          8           0       -2.033304   -1.929251   -2.888528
     25          6           0       -5.815167    0.370460   -2.498485
     26          1           0       -6.388184    0.312112   -1.568678
     27          1           0       -6.434755   -0.100361   -3.267762
     28          6           0       -3.805787   -0.048817   -1.018329
     29          1           0       -3.470441    0.988237   -1.075695
     30          1           0       -2.934255   -0.676496   -0.839730
     31          1           0       -4.477044   -0.144053   -0.161304
     32          6           0       -5.590473    1.834629   -2.870624
     33          1           0       -6.518881    2.401219   -2.791198
     34          1           0       -5.221382    1.955683   -3.890254
     35          1           0       -4.855234    2.302345   -2.210776
     36          7           0       -1.363030   -0.339095   -4.332165
     37          1           0       -1.595478    0.563194   -4.724951
     38          6           0        0.041098   -0.651116   -4.131340
     39          1           0        0.185668   -1.707919   -4.370507
     40          6           0        0.349351   -0.445620   -2.648616
     41          6           0        0.896752    0.236801   -5.014611
     42          1           0        1.961810    0.109357   -4.804630
     43          1           0        0.636300    1.285459   -4.859847
     44          1           0        0.715446   -0.004605   -6.064019
     45          8           0       -0.091272    0.521615   -2.038033
     46          7           0        1.086226   -1.414535   -2.052650
     47          1           0        1.332642   -2.226994   -2.593796
     48          6           0        0.994646   -1.596264   -0.596231
     49          1           0       -0.054650   -1.414275   -0.333174
     50          6           0        1.848146   -0.547581    0.104344
     51          6           0        1.399477   -3.016669   -0.222225
     52          1           0        1.469233   -3.104177    0.862651
     53          1           0        2.395976   -3.203288   -0.621237
     54          8           0        3.006565   -0.780249    0.466263
     55          6           0        0.398949   -4.056207   -0.737939
     56          1           0        0.179845   -3.901392   -1.798917
     57          1           0        0.822934   -5.056473   -0.621186
     58          6           0       -0.867892   -4.031785    0.096082
     59          7           0       -1.990425   -3.589305   -0.520566
     60          1           0       -1.985953   -3.113056   -1.408992
     61          1           0       -2.817907   -3.571229    0.047274
     62          8           0       -0.865567   -4.404577    1.258451
     63          7           0        1.258473    0.642686    0.360863
     64          1           0        0.423453    0.909076   -0.148371
     65          6           0        2.023293    1.712896    0.977935
     66          1           0        3.062216    1.582613    0.658052
     67          6           0        1.971358    1.586378    2.504363
     68          6           0        1.506657    3.079591    0.528475
     69          1           0        2.128553    3.833782    1.014987
     70          1           0        0.497008    3.223799    0.910819
     71          8           0        1.436098    2.427532    3.229421
     72          6           0        1.524998    3.241042   -0.949120
     73          6           0        2.718763    3.109927   -1.672509
     74          1           0        3.637948    2.916899   -1.129760
     75          6           0        0.338547    3.498483   -1.643852
     76          1           0       -0.597235    3.553721   -1.096158
     77          6           0        2.758413    3.238179   -3.040231
     78          1           0        3.682776    3.155278   -3.596813
     79          6           0        0.312194    3.616137   -3.008587
     80          1           0       -0.608989    3.768511   -3.555775
     81          8           0        1.531406    3.572612   -5.021566
     82          6           0        1.536755    3.491166   -3.787410
     83          7           0        2.537432    0.474797    3.013761
     84          1           0        2.999206   -0.173475    2.384398
     85          6           0        2.564747    0.235278    4.444614
     86          1           0        1.649404    0.682249    4.846375
     87          6           0        3.770246    0.966656    5.051532
     88          6           0        2.609001   -1.253664    4.730026
     89          1           0        2.600252   -1.433501    5.806554
     90          1           0        1.737872   -1.734594    4.281394
     91          1           0        3.518345   -1.695571    4.318570
     92          8           0        4.771214    0.385453    5.447909
     93          7           0        3.663505    2.321508    5.067633
     94          1           0        2.821677    2.772486    4.729251
     95          6           0        4.676244    3.135827    5.697016
     96          1           0        5.317266    2.474854    6.288840
     97          6           0        4.019006    4.137133    6.625154
     98          6           0        5.552607    3.879286    4.681500
     99          1           0        6.204977    4.570215    5.211745
    100          1           0        4.920697    4.485888    4.034788
    101          8           0        2.871005    4.492232    6.572523
    102          6           0        6.387137    2.926885    3.839651
    103          1           0        5.747056    2.189954    3.352077
    104          1           0        7.054247    2.364007    4.500383
    105          6           0        7.196177    3.641830    2.763736
    106          1           0        6.520122    4.076331    2.026595
    107          1           0        7.831827    2.927956    2.239845
    108          7           0        8.089793    4.693166    3.296733
    109          1           0        8.769291    4.315084    3.944026
    110          7           0        6.570078    6.443103    3.009639
    111          1           0        6.305993    7.393663    3.208741
    112          1           0        6.399302    6.144573    2.060894
    113          7           0        8.144526    6.541524    4.741056
    114          1           0        8.011325    7.540936    4.808873
    115          1           0        9.040034    6.228417    5.089940
    116          6           0        7.620393    5.901190    3.662178
    117          8           0        4.897577    4.624843    7.526539
    118          1           0        4.407003    5.270700    8.050150
 ---------------------------------------------------------------------

 SCF Done:  E(RB3LYP) =  -2837.65413105     A.U. after    1 cycles

 Alpha  occ. eigenvalues --  -19.27527 -19.26543 -19.23559 -19.20720 -19.20104
 Alpha  occ. eigenvalues --  -19.16803 -19.16135 -19.15540 -19.15410 -19.13675
 Alpha  occ. eigenvalues --  -19.05346 -14.61780 -14.52319 -14.51797 -14.51560
 Alpha  occ. eigenvalues --  -14.48668 -14.42851 -14.41329 -14.40344 -14.39361
 Alpha  occ. eigenvalues --  -14.38865 -14.38125 -10.47636 -10.41235 -10.39737
 Alpha  occ. eigenvalues --  -10.38568 -10.37607 -10.36445 -10.34436 -10.33569
 Alpha  occ. eigenvalues --  -10.32990 -10.32366 -10.32000 -10.31563 -10.31334
 Alpha  occ. eigenvalues --  -10.30216 -10.29001 -10.28701 -10.28077 -10.27972
 Alpha  occ. eigenvalues --  -10.27516 -10.27072 -10.26950 -10.25879 -10.25746
 Alpha  occ. eigenvalues --  -10.24459 -10.23646 -10.23535 -10.23374 -10.22177
 Alpha  occ. eigenvalues --  -10.21485 -10.20522 -10.20247 -10.17521 -10.17166
 Alpha  occ. eigenvalues --  -10.16897 -10.15513 -10.15161  -1.17975  -1.17890
 Alpha  occ. eigenvalues --   -1.16468  -1.14786  -1.13622  -1.12397  -1.09124
 Alpha  occ. eigenvalues --   -1.08906  -1.08457  -1.07693  -1.06965  -1.06062
 Alpha  occ. eigenvalues --   -1.05905  -1.05175  -1.04357  -0.99848  -0.97981
 Alpha  occ. eigenvalues --   -0.97929  -0.96509  -0.96071  -0.95577  -0.93308
 Alpha  occ. eigenvalues --   -0.93046  -0.89860  -0.89727  -0.85392  -0.84886
 Alpha  occ. eigenvalues --   -0.84569  -0.83613  -0.83175  -0.81480  -0.81038
 Alpha  occ. eigenvalues --   -0.79802  -0.78968  -0.78664  -0.76807  -0.76571
 Alpha  occ. eigenvalues --   -0.76239  -0.75607  -0.73938  -0.72859  -0.72313
 Alpha  occ. eigenvalues --   -0.71780  -0.71602  -0.71446  -0.70650  -0.70356
 Alpha  occ. eigenvalues --   -0.70243  -0.68660  -0.67993  -0.67668  -0.66667
 Alpha  occ. eigenvalues --   -0.66150  -0.65444  -0.64593  -0.64453  -0.64280
 Alpha  occ. eigenvalues --   -0.64261  -0.63308  -0.63169  -0.62108  -0.61538
 Alpha  occ. eigenvalues --   -0.61167  -0.60525  -0.60508  -0.59283  -0.58941
 Alpha  occ. eigenvalues --   -0.58244  -0.58239  -0.58179  -0.57910  -0.56845
 Alpha  occ. eigenvalues --   -0.56685  -0.56250  -0.55910  -0.55139  -0.55038
 Alpha  occ. eigenvalues --   -0.54708  -0.54632  -0.54478  -0.54182  -0.53740
 Alpha  occ. eigenvalues --   -0.53355  -0.52901  -0.52251  -0.51906  -0.51685
 Alpha  occ. eigenvalues --   -0.51613  -0.51276  -0.51267  -0.50866  -0.50326
 Alpha  occ. eigenvalues --   -0.49971  -0.49220  -0.49115  -0.48827  -0.48221
 Alpha  occ. eigenvalues --   -0.47780  -0.47242  -0.47144  -0.46983  -0.46778
 Alpha  occ. eigenvalues --   -0.46457  -0.45843  -0.45617  -0.45425  -0.45369
 Alpha  occ. eigenvalues --   -0.45231  -0.45150  -0.44777  -0.44579  -0.44481
 Alpha  occ. eigenvalues --   -0.44139  -0.44057  -0.43889  -0.43817  -0.43509
 Alpha  occ. eigenvalues --   -0.43440  -0.43113  -0.42579  -0.42313  -0.41940
 Alpha  occ. eigenvalues --   -0.41775  -0.41534  -0.41334  -0.40952  -0.40872
 Alpha  occ. eigenvalues --   -0.40601  -0.40513  -0.40300  -0.40231  -0.40163
 Alpha  occ. eigenvalues --   -0.40018  -0.39836  -0.39495  -0.39036  -0.38717
 Alpha  occ. eigenvalues --   -0.38653  -0.37931  -0.37883  -0.37357  -0.36596
 Alpha  occ. eigenvalues --   -0.35447  -0.34415  -0.34160  -0.33464  -0.33212
 Alpha  occ. eigenvalues --   -0.32888  -0.32291  -0.31754  -0.31174  -0.30635
 Alpha  occ. eigenvalues --   -0.30466  -0.29666  -0.28792  -0.28582  -0.28089
 Alpha  occ. eigenvalues --   -0.27674  -0.27365  -0.23604  -0.18966  -0.15087
 Alpha virt. eigenvalues --   -0.13957  -0.13645  -0.10562  -0.08823  -0.07124
 Alpha virt. eigenvalues --   -0.06219  -0.05717  -0.04829  -0.04719  -0.03835
 Alpha virt. eigenvalues --   -0.03800  -0.03524  -0.02973  -0.02834  -0.02488

 Mulliken charges:
               1
     1  N   -0.700495
     2  H    0.410308
     3  H    0.417937
     4  H    0.425496
     5  C   -0.145500
     6  H    0.206170
     7  C    0.603418
     8  C    0.131581
     9  H    0.162735
    10  O   -0.538998
    11  C   -0.479175
    12  H    0.201275
    13  H    0.169920
    14  H    0.180036
    15  O   -0.641562
    16  H    0.424682
    17  N   -0.593861
    18  H    0.343571
    19  C   -0.087971
    20  H    0.222475
    21  C    0.645961
    22  C   -0.094285
    23  H    0.130740
    24  O   -0.544472
    25  C   -0.244177
    26  H    0.157251
    27  H    0.094567
    28  C   -0.477028
    29  H    0.166636
    30  H    0.182169
    31  H    0.157487
    32  C   -0.488435
    33  H    0.151429
    34  H    0.151493
    35  H    0.176459
    36  N   -0.598907
    37  H    0.360727
    38  C   -0.038100
    39  H    0.145456
    40  C    0.648643
    41  C   -0.489793
    42  H    0.179071
    43  H    0.234467
    44  H    0.142463
    45  O   -0.526360
    46  N   -0.595799
    47  H    0.332372
    48  C   -0.056953
    49  H    0.171605
    50  C    0.647626
    51  C   -0.306248
    52  H    0.189154
    53  H    0.165134
    54  O   -0.564746
    55  C   -0.355702
    56  H    0.128734
    57  H    0.179185
    58  C    0.567642
    59  N   -0.782547
    60  H    0.397682
    61  H    0.327854
    62  O   -0.511083
    63  N   -0.594852
    64  H    0.374833
    65  C   -0.054508
    66  H    0.168136
    67  C    0.627687
    68  C   -0.378481
    69  H    0.123580
    70  H    0.154597
    71  O   -0.555948
    72  C    0.153908
    73  C   -0.176358
    74  H    0.064285
    75  C   -0.163114
    76  H    0.077014
    77  C   -0.221459
    78  H    0.087394
    79  C   -0.219207
    80  H    0.073802
    81  O   -0.643369
    82  C    0.425387
    83  N   -0.615636
    84  H    0.372142
    85  C   -0.055599
    86  H    0.182532
    87  C    0.615606
    88  C   -0.456832
    89  H    0.165656
    90  H    0.163188
    91  H    0.167787
    92  O   -0.533034
    93  N   -0.616481
    94  H    0.380308
    95  C   -0.041099
    96  H    0.202765
    97  C    0.572119
    98  C   -0.285615
    99  H    0.146194
   100  H    0.156766
   101  O   -0.441874
   102  C   -0.272687
   103  H    0.202080
   104  H    0.166793
   105  C   -0.196576
   106  H    0.177963
   107  H    0.205597
   108  N   -0.548352
   109  H    0.357018
   110  N   -0.708176
   111  H    0.377048
   112  H    0.391185
   113  N   -0.718839
   114  H    0.372679
   115  H    0.378141
   116  C    0.698927
   117  O   -0.571046
   118  H    0.416616
 Sum of Mulliken charges =   1.00000

 Dipole moment (field-independent basis, Debye):
    X=              2.1022    Y=             15.2190    Z=            -10.7325  Tot=             18.7409
 Quadrupole moment (field-independent basis, Debye-Ang):
   XX=             29.0848   YY=           -232.8846   ZZ=           -104.7026
   XY=            165.0635   XZ=            286.5050   YZ=            141.1788

 Normal termination of Gaussian 16 at Mon Jun 27 03:08:09 2022.
