 Gaussian 16, Revision C.01,
 Gaussian 16:  ES64L-G16RevC.01  3-Jul-2019

 ----------------------------------------------------------------------
 # B3LYP/6-31G* empiricaldispersion=gd3 guess=read geom=check nosymm in
 tegral(ultrafinegrid)
 ----------------------------------------------------------------------

 ------------------------------------------------------
 Candidate Structure: Conf:684 Charge calc in gas phase
 ------------------------------------------------------
 Structure from the checkpoint file:  "conf-684.chk"
 Charge =  1 Multiplicity = 1

                          Input orientation:
 ---------------------------------------------------------------------
 Center     Atomic      Atomic             Coordinates (Angstroms)
 Number     Number       Type             X           Y           Z
 ---------------------------------------------------------------------
      1          7           0       -3.799978    1.400652   -6.621026
      2          1           0       -4.593937    1.990300   -6.878269
      3          1           0       -3.452857    0.892411   -7.451827
      4          1           0       -3.083465    1.998297   -6.138197
      5          6           0       -4.139111    0.363992   -5.580154
      6          1           0       -5.213643    0.166870   -5.626482
      7          6           0       -3.705983    1.021763   -4.250092
      8          6           0       -3.343569   -0.912252   -5.939769
      9          1           0       -2.288187   -0.745664   -5.691312
     10          8           0       -3.005389    2.036984   -4.314850
     11          6           0       -3.828661   -2.140226   -5.183997
     12          1           0       -3.555534   -2.066379   -4.129210
     13          1           0       -4.908705   -2.287799   -5.300386
     14          1           0       -3.320715   -3.025225   -5.582018
     15          8           0       -3.545965   -1.031453   -7.367543
     16          1           0       -2.920323   -1.691443   -7.704315
     17          7           0       -4.170506    0.461113   -3.129104
     18          1           0       -4.672291   -0.420654   -3.189147
     19          6           0       -3.443652    0.615846   -1.868376
     20          1           0       -2.492713    1.080806   -2.115446
     21          6           0       -3.206049   -0.805738   -1.348411
     22          6           0       -4.206447    1.502839   -0.847076
     23          1           0       -4.321987    2.473604   -1.350989
     24          8           0       -4.066489   -1.682991   -1.466317
     25          6           0       -3.405256    1.739430    0.451501
     26          1           0       -3.248505    0.783117    0.965756
     27          1           0       -4.035960    2.345678    1.114228
     28          6           0       -5.604033    0.952863   -0.529536
     29          1           0       -5.545869   -0.020910   -0.032742
     30          1           0       -6.195922    0.824067   -1.441620
     31          1           0       -6.145864    1.643051    0.126150
     32          6           0       -2.053858    2.447109    0.277758
     33          1           0       -1.644584    2.714186    1.262585
     34          1           0       -2.159844    3.376065   -0.295286
     35          1           0       -1.312215    1.824045   -0.231859
     36          7           0       -2.045886   -0.965725   -0.682311
     37          1           0       -1.291990   -0.310863   -0.870958
     38          6           0       -1.678765   -2.205716   -0.029690
     39          1           0       -2.528226   -2.509259    0.598413
     40          6           0       -0.518810   -1.853588    0.909475
     41          6           0       -1.369757   -3.345278   -1.016247
     42          1           0       -1.274604   -4.310148   -0.502126
     43          1           0       -0.459557   -3.130185   -1.580889
     44          1           0       -2.207241   -3.425518   -1.711297
     45          8           0       -0.274254   -0.669643    1.201604
     46          7           0        0.220454   -2.871489    1.398664
     47          1           0        0.075845   -3.803018    1.032193
     48          6           0        1.360652   -2.656787    2.291964
     49          1           0        1.209517   -1.665482    2.717170
     50          6           0        2.692638   -2.552029    1.513532
     51          6           0        1.356087   -3.683317    3.431992
     52          1           0        1.472573   -4.694207    3.026174
     53          1           0        0.367626   -3.626580    3.899964
     54          8           0        3.667715   -3.257801    1.777151
     55          6           0        2.449824   -3.468375    4.509660
     56          1           0        2.125698   -3.940477    5.441493
     57          1           0        3.376734   -3.938652    4.181124
     58          6           0        2.688635   -1.994624    4.796748
     59          7           0        3.818882   -1.481797    4.283858
     60          1           0        4.328632   -1.993725    3.572335
     61          1           0        3.938152   -0.478609    4.240214
     62          8           0        1.864132   -1.305792    5.434583
     63          7           0        2.704249   -1.580469    0.578343
     64          1           0        1.884540   -1.003292    0.424477
     65          6           0        3.904293   -1.226063   -0.145837
     66          1           0        4.335861   -2.137660   -0.573486
     67          6           0        4.919292   -0.575699    0.808507
     68          6           0        3.588476   -0.181835   -1.272199
     69          1           0        4.401016   -0.260075   -2.007858
     70          1           0        3.679452    0.820928   -0.842845
     71          8           0        4.616481   -0.171899    1.932774
     72          6           0        2.242740   -0.325033   -1.935902
     73          6           0        1.868066   -1.486821   -2.642158
     74          1           0        2.564101   -2.324910   -2.690105
     75          6           0        1.327198    0.736935   -1.924723
     76          1           0        1.602989    1.663925   -1.420471
     77          6           0        0.644167   -1.589969   -3.282372
     78          1           0        0.377265   -2.492624   -3.827666
     79          6           0        0.095661    0.660005   -2.572679
     80          1           0       -0.550129    1.533488   -2.620948
     81          8           0       -1.489478   -0.651406   -3.791179
     82          6           0       -0.326909   -0.526766   -3.264904
     83          7           0        6.161190   -0.368798    0.289966
     84          1           0        6.285712   -0.545727   -0.699045
     85          6           0        7.004166    0.675076    0.868522
     86          1           0        7.353065    0.334137    1.849811
     87          6           0        6.149254    1.948256    1.039388
     88          6           0        8.196140    0.955606   -0.049275
     89          1           0        8.853694    1.705928    0.399093
     90          1           0        8.777790    0.043398   -0.216323
     91          1           0        7.846202    1.341919   -1.012975
     92          8           0        5.335345    2.292644    0.186863
     93          7           0        6.353170    2.670050    2.170351
     94          1           0        6.981574    2.361598    2.901015
     95          6           0        5.444123    3.754948    2.474162
     96          1           0        5.289545    4.333102    1.558462
     97          6           0        6.082897    4.642500    3.526360
     98          6           0        4.057293    3.235343    2.973414
     99          1           0        4.077290    3.200570    4.073454
    100          1           0        3.943158    2.207927    2.615302
    101          8           0        7.038889    4.335756    4.202570
    102          6           0        2.889970    4.094209    2.479749
    103          1           0        2.799070    3.964578    1.394159
    104          1           0        3.103319    5.154503    2.661818
    105          6           0        1.549532    3.790263    3.156884
    106          1           0        0.778086    4.460562    2.764974
    107          1           0        1.605880    3.991830    4.232644
    108          7           0        1.043308    2.419856    2.971824
    109          1           0        0.436920    2.260808    2.175558
    110          7           0        1.833368    1.509343    4.992092
    111          1           0        1.980526    0.624573    5.492288
    112          1           0        2.530642    2.231031    5.080985
    113          7           0        0.288738    0.362002    3.736363
    114          1           0        0.478073   -0.418904    4.364945
    115          1           0       -0.085832    0.119520    2.814121
    116          6           0        1.074410    1.434504    3.884948
    117          8           0        5.409833    5.805364    3.658967
    118          1           0        5.849100    6.313830    4.367897
 ---------------------------------------------------------------------

 SCF Done:  E(RB3LYP) =  -2837.82673407     A.U. after    1 cycles

 Alpha  occ. eigenvalues --  -19.28785 -19.25358 -19.23126 -19.22638 -19.21700
 Alpha  occ. eigenvalues --  -19.21530 -19.19980 -19.19663 -19.19152 -19.18356
 Alpha  occ. eigenvalues --  -19.10855 -14.54871 -14.48768 -14.47315 -14.46820
 Alpha  occ. eigenvalues --  -14.45896 -14.44255 -14.44196 -14.44070 -14.43823
 Alpha  occ. eigenvalues --  -14.43342 -14.42212 -10.44115 -10.41105 -10.39438
 Alpha  occ. eigenvalues --  -10.38780 -10.38449 -10.36761 -10.36577 -10.36346
 Alpha  occ. eigenvalues --  -10.35627 -10.35208 -10.33859 -10.33218 -10.32617
 Alpha  occ. eigenvalues --  -10.32608 -10.31797 -10.31535 -10.30581 -10.29381
 Alpha  occ. eigenvalues --  -10.28675 -10.28500 -10.28371 -10.27580 -10.26366
 Alpha  occ. eigenvalues --  -10.26014 -10.25991 -10.25336 -10.25162 -10.24945
 Alpha  occ. eigenvalues --  -10.24942 -10.24899 -10.23182 -10.22804 -10.22606
 Alpha  occ. eigenvalues --  -10.22108 -10.20538 -10.20414  -1.19640  -1.14507
 Alpha  occ. eigenvalues --   -1.14405  -1.12946  -1.12485  -1.12391  -1.12222
 Alpha  occ. eigenvalues --   -1.11448  -1.10863  -1.10515  -1.10190  -1.08519
 Alpha  occ. eigenvalues --   -1.03065  -1.02523  -1.01305  -1.00808  -1.00388
 Alpha  occ. eigenvalues --   -1.00180  -1.00048  -0.99866  -0.99435  -0.99325
 Alpha  occ. eigenvalues --   -0.89852  -0.89293  -0.88777  -0.87987  -0.87076
 Alpha  occ. eigenvalues --   -0.86285  -0.84892  -0.84375  -0.82839  -0.81165
 Alpha  occ. eigenvalues --   -0.80297  -0.79490  -0.78614  -0.77383  -0.76912
 Alpha  occ. eigenvalues --   -0.76467  -0.74755  -0.73948  -0.73639  -0.72776
 Alpha  occ. eigenvalues --   -0.72187  -0.71076  -0.70307  -0.70032  -0.69673
 Alpha  occ. eigenvalues --   -0.69545  -0.69381  -0.68602  -0.67296  -0.67220
 Alpha  occ. eigenvalues --   -0.66896  -0.66617  -0.66540  -0.65761  -0.65602
 Alpha  occ. eigenvalues --   -0.65206  -0.64127  -0.63554  -0.62527  -0.61681
 Alpha  occ. eigenvalues --   -0.61564  -0.61320  -0.61080  -0.60721  -0.60572
 Alpha  occ. eigenvalues --   -0.59914  -0.58884  -0.58532  -0.58292  -0.58157
 Alpha  occ. eigenvalues --   -0.57933  -0.57096  -0.56526  -0.56507  -0.55938
 Alpha  occ. eigenvalues --   -0.55923  -0.55353  -0.55141  -0.54907  -0.54439
 Alpha  occ. eigenvalues --   -0.53985  -0.53587  -0.53415  -0.53125  -0.52710
 Alpha  occ. eigenvalues --   -0.52584  -0.52165  -0.51530  -0.51234  -0.50892
 Alpha  occ. eigenvalues --   -0.50713  -0.50485  -0.50303  -0.49964  -0.49778
 Alpha  occ. eigenvalues --   -0.49665  -0.49492  -0.49396  -0.49343  -0.49143
 Alpha  occ. eigenvalues --   -0.48770  -0.48636  -0.48408  -0.48254  -0.47712
 Alpha  occ. eigenvalues --   -0.47555  -0.47269  -0.47178  -0.46885  -0.46751
 Alpha  occ. eigenvalues --   -0.46254  -0.46038  -0.45847  -0.45487  -0.45242
 Alpha  occ. eigenvalues --   -0.45021  -0.44859  -0.44709  -0.44445  -0.44304
 Alpha  occ. eigenvalues --   -0.44258  -0.44088  -0.43638  -0.43615  -0.43499
 Alpha  occ. eigenvalues --   -0.43252  -0.43091  -0.42878  -0.42056  -0.41700
 Alpha  occ. eigenvalues --   -0.41462  -0.40880  -0.40287  -0.39937  -0.39372
 Alpha  occ. eigenvalues --   -0.39101  -0.38760  -0.38634  -0.37775  -0.37395
 Alpha  occ. eigenvalues --   -0.37315  -0.37063  -0.36869  -0.36601  -0.36300
 Alpha  occ. eigenvalues --   -0.36100  -0.35195  -0.34749  -0.34543  -0.34363
 Alpha  occ. eigenvalues --   -0.33646  -0.33527  -0.33005  -0.32676  -0.32289
 Alpha  occ. eigenvalues --   -0.32142  -0.31373  -0.28506  -0.25061  -0.21611
 Alpha virt. eigenvalues --   -0.08990  -0.08722  -0.07979  -0.07616  -0.07546
 Alpha virt. eigenvalues --   -0.06767  -0.06206  -0.06119  -0.04823  -0.04238
 Alpha virt. eigenvalues --   -0.04217  -0.03801  -0.03107  -0.01639  -0.01570

 Mulliken charges:
               1
     1  N   -0.747836
     2  H    0.403263
     3  H    0.419021
     4  H    0.421216
     5  C   -0.139921
     6  H    0.198858
     7  C    0.691653
     8  C    0.121275
     9  H    0.214910
    10  O   -0.545826
    11  C   -0.487802
    12  H    0.218051
    13  H    0.147637
    14  H    0.160005
    15  O   -0.662850
    16  H    0.422771
    17  N   -0.594492
    18  H    0.359126
    19  C   -0.066428
    20  H    0.198374
    21  C    0.654115
    22  C   -0.078205
    23  H    0.140622
    24  O   -0.571695
    25  C   -0.256550
    26  H    0.145199
    27  H    0.141697
    28  C   -0.459849
    29  H    0.166122
    30  H    0.144171
    31  H    0.148218
    32  C   -0.474733
    33  H    0.114339
    34  H    0.157375
    35  H    0.162251
    36  N   -0.609252
    37  H    0.376720
    38  C   -0.034257
    39  H    0.195441
    40  C    0.622553
    41  C   -0.480606
    42  H    0.131606
    43  H    0.188463
    44  H    0.207293
    45  O   -0.581227
    46  N   -0.596530
    47  H    0.354213
    48  C   -0.101704
    49  H    0.175502
    50  C    0.643506
    51  C   -0.269872
    52  H    0.169974
    53  H    0.164186
    54  O   -0.550737
    55  C   -0.346424
    56  H    0.186998
    57  H    0.193159
    58  C    0.571340
    59  N   -0.701717
    60  H    0.384585
    61  H    0.345928
    62  O   -0.574122
    63  N   -0.597818
    64  H    0.361945
    65  C   -0.046496
    66  H    0.177890
    67  C    0.649022
    68  C   -0.417130
    69  H    0.146906
    70  H    0.196789
    71  O   -0.573675
    72  C    0.125612
    73  C   -0.180238
    74  H    0.104693
    75  C   -0.187045
    76  H    0.099948
    77  C   -0.220447
    78  H    0.101231
    79  C   -0.297215
    80  H    0.129643
    81  O   -0.705009
    82  C    0.431638
    83  N   -0.583375
    84  H    0.342138
    85  C   -0.027746
    86  H    0.161645
    87  C    0.646732
    88  C   -0.487297
    89  H    0.177286
    90  H    0.177166
    91  H    0.177848
    92  O   -0.538515
    93  N   -0.621042
    94  H    0.348504
    95  C   -0.014510
    96  H    0.209998
    97  C    0.572135
    98  C   -0.311093
    99  H    0.120658
   100  H    0.209733
   101  O   -0.454171
   102  C   -0.267264
   103  H    0.178072
   104  H    0.179016
   105  C   -0.188319
   106  H    0.190104
   107  H    0.173780
   108  N   -0.601525
   109  H    0.376111
   110  N   -0.779156
   111  H    0.398357
   112  H    0.365124
   113  N   -0.801420
   114  H    0.394667
   115  H    0.411123
   116  C    0.774643
   117  O   -0.565323
   118  H    0.426570
 Sum of Mulliken charges =   1.00000

 Dipole moment (field-independent basis, Debye):
    X=              0.8372    Y=              5.7355    Z=             -2.7675  Tot=              6.4231
 Quadrupole moment (field-independent basis, Debye-Ang):
   XX=           -246.2225   YY=           -281.6523   ZZ=           -197.6250
   XY=              6.3969   XZ=             85.0938   YZ=             11.0073

 Normal termination of Gaussian 16 at Mon Jun 27 03:08:20 2022.
