 Gaussian 16, Revision C.01,
 Gaussian 16:  ES64L-G16RevC.01  3-Jul-2019

 ----------------------------------------------------------------------
 # B3LYP/6-31G* empiricaldispersion=gd3 guess=read geom=check nosymm in
 tegral(ultrafinegrid)
 ----------------------------------------------------------------------

 ------------------------------------------------------
 Candidate Structure: Conf:883 Charge calc in gas phase
 ------------------------------------------------------
 Structure from the checkpoint file:  "conf-883.chk"
 Charge =  1 Multiplicity = 1

                          Input orientation:
 ---------------------------------------------------------------------
 Center     Atomic      Atomic             Coordinates (Angstroms)
 Number     Number       Type             X           Y           Z
 ---------------------------------------------------------------------
      1          7           0       -3.587596    0.710590  -10.247263
      2          1           0       -4.320149    1.387078  -10.474088
      3          1           0       -3.559884   -0.039443  -10.958362
      4          1           0       -2.674614    1.227211  -10.137114
      5          6           0       -3.762475    0.066075   -8.900169
      6          1           0       -4.822635    0.068643   -8.635207
      7          6           0       -2.880156    0.923444   -7.960966
      8          6           0       -3.214906   -1.390403   -9.021058
      9          1           0       -2.120859   -1.327432   -9.051693
     10          8           0       -1.995090    1.608535   -8.496900
     11          6           0       -3.661901   -2.288977   -7.876330
     12          1           0       -3.306625   -1.937426   -6.902386
     13          1           0       -4.757939   -2.348204   -7.834841
     14          1           0       -3.265541   -3.295455   -8.037863
     15          8           0       -3.593517   -1.900787  -10.304926
     16          1           0       -4.418222   -2.406420  -10.214702
     17          7           0       -3.125678    0.788283   -6.669022
     18          1           0       -3.806664    0.103865   -6.330344
     19          6           0       -2.227038    1.179984   -5.576166
     20          1           0       -1.235376    1.369749   -5.992377
     21          6           0       -2.233845   -0.064456   -4.660579
     22          6           0       -2.770107    2.452257   -4.859569
     23          1           0       -2.988969    3.157060   -5.676076
     24          8           0       -3.235314   -0.809193   -4.691330
     25          6           0       -1.738147    3.116266   -3.929542
     26          1           0       -1.487725    2.416773   -3.123630
     27          1           0       -2.250560    3.960474   -3.448457
     28          6           0       -4.068347    2.163343   -4.089424
     29          1           0       -3.866247    1.530023   -3.219180
     30          1           0       -4.819092    1.659576   -4.708073
     31          1           0       -4.504622    3.102608   -3.732623
     32          6           0       -0.469742    3.624046   -4.626248
     33          1           0        0.099149    4.270870   -3.947274
     34          1           0       -0.716884    4.214121   -5.518937
     35          1           0        0.194041    2.799308   -4.903216
     36          7           0       -1.167068   -0.227402   -3.888393
     37          1           0       -0.300292    0.352033   -4.022492
     38          6           0       -1.126028   -1.223847   -2.827644
     39          1           0       -2.069090   -1.777569   -2.879181
     40          6           0       -1.141761   -0.451400   -1.484300
     41          6           0        0.052651   -2.182803   -3.034628
     42          1           0        0.034038   -2.999125   -2.304536
     43          1           0        1.010081   -1.658186   -2.960352
     44          1           0       -0.015406   -2.628705   -4.031218
     45          8           0       -1.828115    0.565298   -1.359416
     46          7           0       -0.391812   -0.965651   -0.479869
     47          1           0        0.309291   -1.672151   -0.686082
     48          6           0       -0.011441   -0.139582    0.657950
     49          1           0       -0.009247    0.895211    0.312057
     50          6           0        1.449550   -0.488952    0.979149
     51          6           0       -0.956452   -0.236654    1.881595
     52          1           0       -0.373387   -0.220781    2.808014
     53          1           0       -1.480013   -1.196776    1.843703
     54          8           0        2.016005   -1.443520    0.446795
     55          6           0       -1.971694    0.908850    1.904498
     56          1           0       -2.483048    0.961971    0.934917
     57          1           0       -2.734870    0.737321    2.674600
     58          6           0       -1.309524    2.262457    2.158202
     59          7           0       -2.170797    3.297425    2.346086
     60          1           0       -3.171974    3.180514    2.306184
     61          1           0       -1.792924    4.221875    2.497187
     62          8           0       -0.089346    2.437082    2.183912
     63          7           0        2.058627    0.366480    1.842764
     64          1           0        1.531557    1.178957    2.164468
     65          6           0        3.499774    0.468501    1.833843
     66          1           0        3.909907   -0.529584    1.663977
     67          6           0        4.012879    1.114598    3.117696
     68          6           0        3.994366    1.457127    0.710591
     69          1           0        5.081691    1.361393    0.621971
     70          1           0        3.796848    2.456305    1.110614
     71          8           0        3.340724    1.927787    3.738992
     72          6           0        3.317045    1.339285   -0.626839
     73          6           0        3.803709    0.506747   -1.654179
     74          1           0        4.723663   -0.051754   -1.487326
     75          6           0        2.102545    2.017365   -0.871420
     76          1           0        1.679425    2.638897   -0.081495
     77          6           0        3.142804    0.384951   -2.869792
     78          1           0        3.529520   -0.267173   -3.649148
     79          6           0        1.417618    1.892875   -2.071578
     80          1           0        0.477281    2.413319   -2.214081
     81          8           0        1.258661    0.882092   -4.240049
     82          6           0        1.894094    1.049542   -3.132639
     83          7           0        5.334774    0.852393    3.407667
     84          1           0        5.839364    0.319093    2.707206
     85          6           0        6.153022    1.898034    4.018193
     86          1           0        5.486803    2.483295    4.656623
     87          6           0        6.714220    2.767872    2.874613
     88          6           0        7.303445    1.301264    4.834808
     89          1           0        7.902404    2.092566    5.298569
     90          1           0        6.904525    0.653909    5.620466
     91          1           0        7.962028    0.709341    4.189845
     92          8           0        7.101221    2.253056    1.825721
     93          7           0        6.735441    4.114859    3.077151
     94          1           0        6.522755    4.501148    3.989163
     95          6           0        7.325295    5.011087    2.098597
     96          1           0        8.021551    4.420484    1.495191
     97          6           0        8.097007    6.096441    2.834264
     98          6           0        6.284318    5.662253    1.142357
     99          1           0        6.845270    6.144768    0.332085
    100          1           0        5.742833    6.456259    1.675243
    101          8           0        8.030994    6.305158    4.024671
    102          6           0        5.276918    4.637977    0.610928
    103          1           0        4.700666    4.261786    1.461134
    104          1           0        5.796842    3.772201    0.188253
    105          6           0        4.274373    5.196566   -0.403770
    106          1           0        3.848656    6.142638   -0.051205
    107          1           0        3.437561    4.505479   -0.536767
    108          7           0        4.849272    5.457358   -1.734877
    109          1           0        5.482847    6.241325   -1.819547
    110          7           0        4.296541    3.410005   -2.707040
    111          1           0        3.975578    2.884230   -3.511489
    112          1           0        4.094481    2.931567   -1.820686
    113          7           0        5.220350    5.105484   -3.990452
    114          1           0        5.225702    4.486610   -4.789004
    115          1           0        5.161796    6.093273   -4.193597
    116          6           0        4.768731    4.638934   -2.797227
    117          8           0        8.836555    6.833458    1.979972
    118          1           0        9.284353    7.521446    2.509060
 ---------------------------------------------------------------------

 SCF Done:  E(RB3LYP) =  -2837.79322574     A.U. after    2 cycles

 Alpha  occ. eigenvalues --  -19.28526 -19.27718 -19.23580 -19.22123 -19.18628
 Alpha  occ. eigenvalues --  -19.17159 -19.16991 -19.16802 -19.15578 -19.15497
 Alpha  occ. eigenvalues --  -19.11103 -14.57307 -14.49172 -14.48989 -14.47188
 Alpha  occ. eigenvalues --  -14.45962 -14.43566 -14.41026 -14.40864 -14.39465
 Alpha  occ. eigenvalues --  -14.39151 -14.38842 -10.44941 -10.40525 -10.40107
 Alpha  occ. eigenvalues --  -10.38066 -10.37553 -10.35572 -10.34370 -10.33942
 Alpha  occ. eigenvalues --  -10.33656 -10.32840 -10.32525 -10.32398 -10.31846
 Alpha  occ. eigenvalues --  -10.29852 -10.29288 -10.28726 -10.28106 -10.27624
 Alpha  occ. eigenvalues --  -10.27354 -10.27213 -10.26410 -10.26296 -10.25142
 Alpha  occ. eigenvalues --  -10.24021 -10.23812 -10.23774 -10.23215 -10.22658
 Alpha  occ. eigenvalues --  -10.22567 -10.22323 -10.22289 -10.22205 -10.22160
 Alpha  occ. eigenvalues --  -10.21126 -10.20647 -10.20548  -1.18630  -1.16860
 Alpha  occ. eigenvalues --   -1.15204  -1.13377  -1.10991  -1.10773  -1.09738
 Alpha  occ. eigenvalues --   -1.08910  -1.08701  -1.08454  -1.07634  -1.06781
 Alpha  occ. eigenvalues --   -1.02943  -1.02699  -1.01217  -1.00079  -1.00021
 Alpha  occ. eigenvalues --   -0.97666  -0.96689  -0.96291  -0.95876  -0.95615
 Alpha  occ. eigenvalues --   -0.90859  -0.89071  -0.87859  -0.86832  -0.85001
 Alpha  occ. eigenvalues --   -0.84275  -0.83035  -0.82885  -0.81364  -0.80784
 Alpha  occ. eigenvalues --   -0.78854  -0.78353  -0.77481  -0.76745  -0.76396
 Alpha  occ. eigenvalues --   -0.75224  -0.75051  -0.74502  -0.71848  -0.71771
 Alpha  occ. eigenvalues --   -0.70532  -0.70297  -0.70080  -0.70055  -0.69320
 Alpha  occ. eigenvalues --   -0.69066  -0.68456  -0.67270  -0.66808  -0.66460
 Alpha  occ. eigenvalues --   -0.66050  -0.64368  -0.63766  -0.63509  -0.63146
 Alpha  occ. eigenvalues --   -0.62638  -0.62381  -0.62139  -0.61944  -0.61817
 Alpha  occ. eigenvalues --   -0.61068  -0.60866  -0.60787  -0.60024  -0.59841
 Alpha  occ. eigenvalues --   -0.58704  -0.58426  -0.57849  -0.56808  -0.56509
 Alpha  occ. eigenvalues --   -0.56337  -0.56040  -0.55561  -0.54912  -0.54472
 Alpha  occ. eigenvalues --   -0.54186  -0.53932  -0.53496  -0.53093  -0.52927
 Alpha  occ. eigenvalues --   -0.52547  -0.52370  -0.51828  -0.51616  -0.51402
 Alpha  occ. eigenvalues --   -0.51045  -0.50715  -0.50618  -0.50372  -0.50012
 Alpha  occ. eigenvalues --   -0.49534  -0.48999  -0.48883  -0.48671  -0.48570
 Alpha  occ. eigenvalues --   -0.48378  -0.48226  -0.48090  -0.47685  -0.47103
 Alpha  occ. eigenvalues --   -0.46745  -0.46634  -0.46555  -0.46303  -0.46212
 Alpha  occ. eigenvalues --   -0.45872  -0.45759  -0.45524  -0.45270  -0.44840
 Alpha  occ. eigenvalues --   -0.44566  -0.44294  -0.44191  -0.44103  -0.43931
 Alpha  occ. eigenvalues --   -0.43259  -0.42969  -0.42645  -0.42456  -0.42357
 Alpha  occ. eigenvalues --   -0.42161  -0.42087  -0.41763  -0.41636  -0.41419
 Alpha  occ. eigenvalues --   -0.41251  -0.40884  -0.40711  -0.40494  -0.40106
 Alpha  occ. eigenvalues --   -0.39862  -0.39790  -0.39377  -0.38902  -0.38509
 Alpha  occ. eigenvalues --   -0.38204  -0.38049  -0.37790  -0.37659  -0.37270
 Alpha  occ. eigenvalues --   -0.37079  -0.36683  -0.35771  -0.34964  -0.33882
 Alpha  occ. eigenvalues --   -0.33153  -0.32843  -0.32146  -0.31577  -0.31434
 Alpha  occ. eigenvalues --   -0.30883  -0.30627  -0.30242  -0.29790  -0.29436
 Alpha  occ. eigenvalues --   -0.28855  -0.28577  -0.27933  -0.25309  -0.22028
 Alpha virt. eigenvalues --   -0.09586  -0.09385  -0.08265  -0.06996  -0.05622
 Alpha virt. eigenvalues --   -0.04962  -0.04238  -0.03915  -0.03671  -0.03288
 Alpha virt. eigenvalues --   -0.02562  -0.02316  -0.02155  -0.01713  -0.01339

 Mulliken charges:
               1
     1  N   -0.747576
     2  H    0.409286
     3  H    0.420906
     4  H    0.422402
     5  C   -0.142120
     6  H    0.197659
     7  C    0.643334
     8  C    0.126440
     9  H    0.192928
    10  O   -0.543048
    11  C   -0.517945
    12  H    0.223485
    13  H    0.156623
    14  H    0.197843
    15  O   -0.632339
    16  H    0.419667
    17  N   -0.589206
    18  H    0.369124
    19  C   -0.102409
    20  H    0.204321
    21  C    0.638669
    22  C   -0.064607
    23  H    0.125499
    24  O   -0.589917
    25  C   -0.284799
    26  H    0.197932
    27  H    0.127328
    28  C   -0.471210
    29  H    0.195149
    30  H    0.125980
    31  H    0.143830
    32  C   -0.481648
    33  H    0.124378
    34  H    0.122609
    35  H    0.197342
    36  N   -0.612033
    37  H    0.422140
    38  C   -0.074969
    39  H    0.195119
    40  C    0.625182
    41  C   -0.488714
    42  H    0.156236
    43  H    0.197593
    44  H    0.155261
    45  O   -0.540944
    46  N   -0.625770
    47  H    0.366886
    48  C   -0.038078
    49  H    0.198192
    50  C    0.600421
    51  C   -0.269939
    52  H    0.168487
    53  H    0.157851
    54  O   -0.545915
    55  C   -0.392977
    56  H    0.214939
    57  H    0.157364
    58  C    0.616803
    59  N   -0.743706
    60  H    0.345699
    61  H    0.343517
    62  O   -0.527876
    63  N   -0.625193
    64  H    0.393166
    65  C   -0.047358
    66  H    0.179513
    67  C    0.601741
    68  C   -0.387164
    69  H    0.167268
    70  H    0.141022
    71  O   -0.515485
    72  C    0.058951
    73  C   -0.146465
    74  H    0.120270
    75  C   -0.228280
    76  H    0.139406
    77  C   -0.242765
    78  H    0.115023
    79  C   -0.229731
    80  H    0.133816
    81  O   -0.697753
    82  C    0.394930
    83  N   -0.572191
    84  H    0.337843
    85  C   -0.080186
    86  H    0.184536
    87  C    0.628629
    88  C   -0.452612
    89  H    0.159565
    90  H    0.181262
    91  H    0.166779
    92  O   -0.540480
    93  N   -0.606746
    94  H    0.355517
    95  C   -0.037644
    96  H    0.209890
    97  C    0.582225
    98  C   -0.281936
    99  H    0.147350
   100  H    0.153595
   101  O   -0.454017
   102  C   -0.280476
   103  H    0.188321
   104  H    0.186656
   105  C   -0.191504
   106  H    0.179275
   107  H    0.203979
   108  N   -0.594671
   109  H    0.354743
   110  N   -0.762183
   111  H    0.383017
   112  H    0.405297
   113  N   -0.760735
   114  H    0.375455
   115  H    0.368421
   116  C    0.801485
   117  O   -0.565696
   118  H    0.425647
 Sum of Mulliken charges =   1.00000

 Dipole moment (field-independent basis, Debye):
    X=              1.0561    Y=             17.7599    Z=            -29.9050  Tot=             34.7971
 Quadrupole moment (field-independent basis, Debye-Ang):
   XX=           -169.5641   YY=           -217.2749   ZZ=            -25.4559
   XY=             96.7412   XZ=            105.6826   YZ=            -24.2174

 Normal termination of Gaussian 16 at Mon Jun 27 03:08:57 2022.
