 Gaussian 16, Revision C.01,
 Gaussian 16:  ES64L-G16RevC.01  3-Jul-2019

 ----------------------------------------------------------------------
 # B3LYP/6-31G* empiricaldispersion=gd3 guess=read geom=check nosymm in
 tegral(ultrafinegrid)
 ----------------------------------------------------------------------

 -----------------------------------------------------
 Candidate Structure: Conf:81 Charge calc in gas phase
 -----------------------------------------------------
 Structure from the checkpoint file:  "conf-81.chk"
 Charge =  1 Multiplicity = 1

                          Input orientation:
 ---------------------------------------------------------------------
 Center     Atomic      Atomic             Coordinates (Angstroms)
 Number     Number       Type             X           Y           Z
 ---------------------------------------------------------------------
      1          7           0       -7.007874   -3.671532   -6.006417
      2          1           0       -7.770570   -3.973653   -5.395433
      3          1           0       -7.045866   -4.176647   -6.906324
      4          1           0       -7.054836   -2.619245   -6.106806
      5          6           0       -5.643962   -3.879868   -5.409876
      6          1           0       -5.681297   -4.725847   -4.718722
      7          6           0       -5.317786   -2.530517   -4.727184
      8          6           0       -4.676218   -4.169778   -6.595095
      9          1           0       -4.526373   -3.226486   -7.133329
     10          8           0       -5.953736   -1.541015   -5.120758
     11          6           0       -3.338826   -4.740091   -6.143987
     12          1           0       -2.787641   -4.053468   -5.493956
     13          1           0       -3.484356   -5.679694   -5.593672
     14          1           0       -2.723322   -4.945930   -7.024281
     15          8           0       -5.356924   -5.021940   -7.524281
     16          1           0       -5.140779   -5.946741   -7.319728
     17          7           0       -4.347180   -2.560823   -3.827344
     18          1           0       -3.817597   -3.417773   -3.670427
     19          6           0       -3.631074   -1.394796   -3.302352
     20          1           0       -3.862387   -0.522797   -3.916542
     21          6           0       -2.141170   -1.765873   -3.412132
     22          6           0       -4.016191   -1.081242   -1.830512
     23          1           0       -3.294903   -0.325873   -1.513494
     24          8           0       -1.803229   -2.960363   -3.502995
     25          6           0       -3.882069   -2.309857   -0.911577
     26          1           0       -2.961531   -2.851054   -1.157947
     27          1           0       -4.719739   -3.000128   -1.096473
     28          6           0       -5.405800   -0.435923   -1.797518
     29          1           0       -6.168096   -1.094469   -2.233859
     30          1           0       -5.386554    0.501385   -2.361779
     31          1           0       -5.710509   -0.207466   -0.770741
     32          6           0       -3.833532   -1.935954    0.573297
     33          1           0       -3.748296   -2.831125    1.200352
     34          1           0       -4.731835   -1.393652    0.889939
     35          1           0       -2.962632   -1.301839    0.767873
     36          7           0       -1.316841   -0.711908   -3.354289
     37          1           0       -1.783131    0.242843   -3.264439
     38          6           0        0.069547   -0.863108   -2.959394
     39          1           0        0.367611   -1.891664   -3.194624
     40          6           0        0.109453   -0.741095   -1.413993
     41          6           0        0.963263    0.128823   -3.711084
     42          1           0        2.026890   -0.040629   -3.501475
     43          1           0        0.703877    1.161083   -3.454109
     44          1           0        0.816534    0.003851   -4.786859
     45          8           0       -0.784677   -1.205814   -0.716299
     46          7           0        1.201075   -0.118285   -0.859997
     47          1           0        1.832084    0.377343   -1.474941
     48          6           0        1.140485    0.365525    0.523655
     49          1           0        0.083619    0.362817    0.807554
     50          6           0        1.697124    1.788922    0.497415
     51          6           0        1.929581   -0.497516    1.532301
     52          1           0        1.742149   -0.107847    2.538501
     53          1           0        2.997004   -0.349434    1.363103
     54          8           0        2.865326    1.999528    0.130555
     55          6           0        1.598833   -2.002914    1.450377
     56          1           0        1.014912   -2.326683    2.318543
     57          1           0        0.973949   -2.201504    0.574457
     58          6           0        2.843003   -2.859995    1.282752
     59          7           0        2.891672   -4.017364    1.980128
     60          1           0        2.149503   -4.302979    2.601749
     61          1           0        3.673307   -4.644524    1.843568
     62          8           0        3.760402   -2.529284    0.515520
     63          7           0        0.866525    2.781803    0.852801
     64          1           0       -0.135742    2.593590    0.801415
     65          6           0        1.255659    4.184056    0.647440
     66          1           0        1.897524    4.238170   -0.234198
     67          6           0        2.117549    4.669089    1.815902
     68          6           0       -0.031276    5.028172    0.391040
     69          1           0        0.294601    6.010910    0.032540
     70          1           0       -0.555799    5.186369    1.341626
     71          8           0        3.086049    5.401204    1.639634
     72          6           0       -0.911196    4.286208   -0.584751
     73          6           0       -0.494504    4.062436   -1.908518
     74          1           0        0.361955    4.615378   -2.296326
     75          6           0       -2.025231    3.555856   -0.127622
     76          1           0       -2.383820    3.721269    0.889975
     77          6           0       -1.134213    3.140528   -2.725995
     78          1           0       -0.819423    3.002322   -3.758061
     79          6           0       -2.676159    2.626631   -0.932492
     80          1           0       -3.539500    2.082434   -0.559316
     81          8           0       -2.793909    1.446095   -3.007885
     82          6           0       -2.242284    2.353614   -2.266957
     83          7           0        1.717823    4.231334    3.052367
     84          1           0        1.100625    3.426437    3.049001
     85          6           0        2.641665    4.288979    4.178332
     86          1           0        3.084743    5.288212    4.183110
     87          6           0        3.722102    3.219060    3.931245
     88          6           0        1.909022    4.014253    5.490186
     89          1           0        2.596863    4.098166    6.337720
     90          1           0        1.095288    4.732504    5.625522
     91          1           0        1.499128    2.998732    5.488625
     92          8           0        3.411264    2.042019    3.740805
     93          7           0        5.007603    3.660858    3.925209
     94          1           0        5.186046    4.652507    3.990394
     95          6           0        6.121243    2.758806    3.699478
     96          1           0        5.718958    1.748545    3.837898
     97          6           0        7.245304    2.912645    4.718268
     98          6           0        6.705217    2.848204    2.271821
     99          1           0        7.447660    2.044776    2.193989
    100          1           0        7.256311    3.789329    2.149289
    101          8           0        8.289755    2.305954    4.633117
    102          6           0        5.614689    2.728141    1.200424
    103          1           0        5.085801    3.678664    1.087605
    104          1           0        4.852036    2.013401    1.522593
    105          6           0        6.139680    2.302429   -0.172309
    106          1           0        6.978985    2.925741   -0.494293
    107          1           0        5.356385    2.400873   -0.927539
    108          7           0        6.628223    0.909817   -0.196875
    109          1           0        7.570175    0.760224    0.135748
    110          7           0        4.540044   -0.067149   -0.554420
    111          1           0        4.003773   -0.925333   -0.421337
    112          1           0        4.005936    0.791791   -0.351355
    113          7           0        6.356691   -1.399201   -0.092259
    114          1           0        5.709005   -2.159708    0.092317
    115          1           0        7.318838   -1.522537    0.177605
    116          6           0        5.836854   -0.171451   -0.256199
    117          8           0        6.964206    3.784536    5.709415
    118          1           0        7.742775    3.798979    6.298977
 ---------------------------------------------------------------------

 SCF Done:  E(RB3LYP) =  -2837.80917677     A.U. after    1 cycles

 Alpha  occ. eigenvalues --  -19.28138 -19.27249 -19.22707 -19.22331 -19.21359
 Alpha  occ. eigenvalues --  -19.21130 -19.18767 -19.18696 -19.17806 -19.17204
 Alpha  occ. eigenvalues --  -19.09584 -14.56857 -14.47774 -14.46866 -14.45999
 Alpha  occ. eigenvalues --  -14.45335 -14.44190 -14.44070 -14.43737 -14.43717
 Alpha  occ. eigenvalues --  -14.41937 -14.38916 -10.43040 -10.39743 -10.39510
 Alpha  occ. eigenvalues --  -10.39470 -10.37631 -10.37549 -10.37137 -10.35714
 Alpha  occ. eigenvalues --  -10.35685 -10.34649 -10.33623 -10.31681 -10.31469
 Alpha  occ. eigenvalues --  -10.31425 -10.30035 -10.29301 -10.29141 -10.28476
 Alpha  occ. eigenvalues --  -10.28206 -10.27953 -10.27114 -10.26968 -10.25737
 Alpha  occ. eigenvalues --  -10.24885 -10.24558 -10.24514 -10.24451 -10.22712
 Alpha  occ. eigenvalues --  -10.21903 -10.21323 -10.21165 -10.21121 -10.20949
 Alpha  occ. eigenvalues --  -10.20751 -10.19317 -10.19201  -1.17996  -1.16314
 Alpha  occ. eigenvalues --   -1.14573  -1.13614  -1.12997  -1.11776  -1.10800
 Alpha  occ. eigenvalues --   -1.10706  -1.10424  -1.09304  -1.08940  -1.08447
 Alpha  occ. eigenvalues --   -1.02019  -1.01680  -1.01090  -1.00567  -1.00179
 Alpha  occ. eigenvalues --   -0.99940  -0.98991  -0.98651  -0.98427  -0.96626
 Alpha  occ. eigenvalues --   -0.90403  -0.88159  -0.87963  -0.86923  -0.85823
 Alpha  occ. eigenvalues --   -0.84748  -0.83505  -0.82922  -0.82513  -0.81786
 Alpha  occ. eigenvalues --   -0.79949  -0.78414  -0.77350  -0.76053  -0.75535
 Alpha  occ. eigenvalues --   -0.75260  -0.74443  -0.73902  -0.72763  -0.71667
 Alpha  occ. eigenvalues --   -0.71252  -0.71075  -0.70043  -0.69685  -0.69173
 Alpha  occ. eigenvalues --   -0.68406  -0.68117  -0.67745  -0.67464  -0.67054
 Alpha  occ. eigenvalues --   -0.66683  -0.66100  -0.65982  -0.64986  -0.64030
 Alpha  occ. eigenvalues --   -0.63841  -0.63403  -0.62551  -0.62193  -0.61683
 Alpha  occ. eigenvalues --   -0.61093  -0.60624  -0.60577  -0.60088  -0.58956
 Alpha  occ. eigenvalues --   -0.58834  -0.58674  -0.58277  -0.57618  -0.57005
 Alpha  occ. eigenvalues --   -0.56661  -0.55959  -0.55809  -0.55696  -0.55680
 Alpha  occ. eigenvalues --   -0.55425  -0.54905  -0.54715  -0.54251  -0.53952
 Alpha  occ. eigenvalues --   -0.53746  -0.53002  -0.52784  -0.52083  -0.52018
 Alpha  occ. eigenvalues --   -0.51569  -0.51445  -0.50957  -0.50676  -0.50386
 Alpha  occ. eigenvalues --   -0.50348  -0.50108  -0.49794  -0.49452  -0.48990
 Alpha  occ. eigenvalues --   -0.48619  -0.48520  -0.48404  -0.48193  -0.47960
 Alpha  occ. eigenvalues --   -0.47620  -0.47508  -0.47122  -0.46865  -0.46821
 Alpha  occ. eigenvalues --   -0.46518  -0.46195  -0.46152  -0.45718  -0.45295
 Alpha  occ. eigenvalues --   -0.45261  -0.45022  -0.44774  -0.44674  -0.44604
 Alpha  occ. eigenvalues --   -0.44055  -0.43857  -0.43611  -0.43352  -0.43216
 Alpha  occ. eigenvalues --   -0.43071  -0.42916  -0.42651  -0.42003  -0.41769
 Alpha  occ. eigenvalues --   -0.41683  -0.41426  -0.41187  -0.40909  -0.40807
 Alpha  occ. eigenvalues --   -0.40318  -0.39737  -0.38990  -0.38946  -0.38150
 Alpha  occ. eigenvalues --   -0.38039  -0.37341  -0.37316  -0.37061  -0.36596
 Alpha  occ. eigenvalues --   -0.36243  -0.36148  -0.35975  -0.35862  -0.35763
 Alpha  occ. eigenvalues --   -0.35601  -0.35371  -0.34147  -0.33673  -0.33061
 Alpha  occ. eigenvalues --   -0.32588  -0.32516  -0.32210  -0.31379  -0.30935
 Alpha  occ. eigenvalues --   -0.30451  -0.29777  -0.27163  -0.23993  -0.20383
 Alpha virt. eigenvalues --   -0.08933  -0.08384  -0.07687  -0.07535  -0.06785
 Alpha virt. eigenvalues --   -0.06457  -0.05460  -0.04822  -0.04321  -0.03815
 Alpha virt. eigenvalues --   -0.03363  -0.02740  -0.02318  -0.01866  -0.01500

 Mulliken charges:
               1
     1  N   -0.745695
     2  H    0.410160
     3  H    0.419802
     4  H    0.423654
     5  C   -0.143173
     6  H    0.193600
     7  C    0.649590
     8  C    0.126156
     9  H    0.193202
    10  O   -0.537525
    11  C   -0.518275
    12  H    0.224946
    13  H    0.152173
    14  H    0.194915
    15  O   -0.631167
    16  H    0.417041
    17  N   -0.579072
    18  H    0.358861
    19  C   -0.114615
    20  H    0.221819
    21  C    0.626347
    22  C   -0.059680
    23  H    0.186211
    24  O   -0.586254
    25  C   -0.265383
    26  H    0.156970
    27  H    0.100082
    28  C   -0.462787
    29  H    0.115835
    30  H    0.184883
    31  H    0.144272
    32  C   -0.453219
    33  H    0.129100
    34  H    0.141213
    35  H    0.163387
    36  N   -0.610931
    37  H    0.417671
    38  C   -0.066190
    39  H    0.190955
    40  C    0.632331
    41  C   -0.498800
    42  H    0.141033
    43  H    0.182537
    44  H    0.178559
    45  O   -0.511435
    46  N   -0.637463
    47  H    0.351210
    48  C   -0.047070
    49  H    0.192364
    50  C    0.629485
    51  C   -0.290245
    52  H    0.183619
    53  H    0.164454
    54  O   -0.567323
    55  C   -0.370742
    56  H    0.157910
    57  H    0.229582
    58  C    0.609573
    59  N   -0.727346
    60  H    0.361881
    61  H    0.354523
    62  O   -0.555861
    63  N   -0.626617
    64  H    0.366896
    65  C   -0.038209
    66  H    0.187138
    67  C    0.624447
    68  C   -0.388158
    69  H    0.173930
    70  H    0.151034
    71  O   -0.533825
    72  C    0.130876
    73  C   -0.186615
    74  H    0.107847
    75  C   -0.238272
    76  H    0.107219
    77  C   -0.217553
    78  H    0.108999
    79  C   -0.197031
    80  H    0.112346
    81  O   -0.706230
    82  C    0.413440
    83  N   -0.574981
    84  H    0.335719
    85  C   -0.055171
    86  H    0.170072
    87  C    0.640894
    88  C   -0.466693
    89  H    0.168526
    90  H    0.175527
    91  H    0.165687
    92  O   -0.557376
    93  N   -0.587797
    94  H    0.349650
    95  C   -0.067283
    96  H    0.210562
    97  C    0.594452
    98  C   -0.272932
    99  H    0.143546
   100  H    0.155097
   101  O   -0.460820
   102  C   -0.287591
   103  H    0.198909
   104  H    0.179086
   105  C   -0.186788
   106  H    0.177132
   107  H    0.198689
   108  N   -0.589065
   109  H    0.347224
   110  N   -0.831885
   111  H    0.397081
   112  H    0.431159
   113  N   -0.777807
   114  H    0.397307
   115  H    0.356265
   116  C    0.781205
   117  O   -0.563895
   118  H    0.422980
 Sum of Mulliken charges =   1.00000

 Dipole moment (field-independent basis, Debye):
    X=              2.4067    Y=            -17.0595    Z=             -6.1242  Tot=             18.2846
 Quadrupole moment (field-independent basis, Debye-Ang):
   XX=           -120.6858   YY=           -247.2580   ZZ=           -214.1313
   XY=            100.0757   XZ=            119.1626   YZ=            100.3013

 Normal termination of Gaussian 16 at Mon Jun 27 03:09:05 2022.
