 Gaussian 16, Revision C.01,
 Gaussian 16:  ES64L-G16RevC.01  3-Jul-2019

 ----------------------------------------------------------------------
 # B3LYP/6-31G* empiricaldispersion=gd3 guess=read geom=check nosymm in
 tegral(ultrafinegrid)
 ----------------------------------------------------------------------

 ------------------------------------------------------
 Candidate Structure: Conf:234 Charge calc in gas phase
 ------------------------------------------------------
 Structure from the checkpoint file:  "conf-234.chk"
 Charge =  1 Multiplicity = 1

                          Input orientation:
 ---------------------------------------------------------------------
 Center     Atomic      Atomic             Coordinates (Angstroms)
 Number     Number       Type             X           Y           Z
 ---------------------------------------------------------------------
      1          7           0        0.726117   -4.895903   -1.480402
      2          1           0        0.001992   -5.610936   -1.380532
      3          1           0        1.514931   -5.077561   -0.830288
      4          1           0        1.026797   -4.856216   -2.476359
      5          6           0        0.247733   -3.498321   -1.175453
      6          1           0       -0.523784   -3.538772   -0.403348
      7          6           0       -0.239275   -2.936145   -2.522821
      8          6           0        1.496183   -2.747772   -0.659969
      9          1           0        2.178393   -2.604333   -1.513636
     10          8           0        0.287875   -3.389939   -3.545176
     11          6           0        1.125364   -1.405895   -0.066013
     12          1           0        0.679369   -0.748945   -0.814613
     13          1           0        0.425951   -1.559228    0.760941
     14          1           0        2.021255   -0.909293    0.304438
     15          8           0        2.076766   -3.633442    0.292278
     16          1           0        2.904487   -3.207437    0.629326
     17          7           0       -1.177393   -1.985964   -2.460076
     18          1           0       -1.554922   -1.728897   -1.541201
     19          6           0       -1.577301   -1.203324   -3.634240
     20          1           0       -0.932277   -1.550938   -4.445104
     21          6           0       -1.098207    0.246218   -3.370643
     22          6           0       -3.046455   -1.511989   -4.027391
     23          1           0       -3.033259   -2.595924   -4.208318
     24          8           0        0.086757    0.404610   -3.048226
     25          6           0       -3.499804   -0.863130   -5.356958
     26          1           0       -3.771386    0.191942   -5.211505
     27          1           0       -4.436570   -1.356502   -5.644277
     28          6           0       -4.063494   -1.264054   -2.900803
     29          1           0       -4.125571   -0.209083   -2.606995
     30          1           0       -3.820410   -1.839485   -2.003047
     31          1           0       -5.063412   -1.566685   -3.229592
     32          6           0       -2.494925   -0.970083   -6.508642
     33          1           0       -2.945973   -0.629101   -7.445555
     34          1           0       -2.166853   -2.006383   -6.654049
     35          1           0       -1.604330   -0.355797   -6.334299
     36          7           0       -1.971467    1.268018   -3.474584
     37          1           0       -2.935801    1.073533   -3.697727
     38          6           0       -1.631266    2.673085   -3.167355
     39          1           0       -0.599192    2.834745   -3.479313
     40          6           0       -1.723194    2.861353   -1.632871
     41          6           0       -2.554316    3.629520   -3.905091
     42          1           0       -2.217167    4.653141   -3.725513
     43          1           0       -3.581909    3.548814   -3.537413
     44          1           0       -2.527330    3.432897   -4.981202
     45          8           0       -2.604542    3.512573   -1.083974
     46          7           0       -0.784091    2.148856   -0.961292
     47          1           0       -0.017108    1.724703   -1.475543
     48          6           0       -0.668218    2.134289    0.474257
     49          1           0       -1.055597    3.077804    0.868918
     50          6           0        0.830238    1.976604    0.758931
     51          6           0       -1.402980    0.924148    1.125282
     52          1           0       -1.479170    1.079228    2.207841
     53          1           0       -0.782528    0.041260    0.972105
     54          8           0        1.579452    1.544838   -0.111324
     55          6           0       -2.787203    0.616128    0.526329
     56          1           0       -3.563825    1.265821    0.940647
     57          1           0       -2.753670    0.792414   -0.551571
     58          6           0       -3.094853   -0.862135    0.693683
     59          7           0       -4.140393   -1.194515    1.478027
     60          1           0       -4.725477   -0.500964    1.920291
     61          1           0       -4.369771   -2.171495    1.605629
     62          8           0       -2.397691   -1.731417    0.143998
     63          7           0        1.283857    2.216883    2.029987
     64          1           0        0.670877    2.745190    2.640293
     65          6           0        2.718447    2.484244    2.175623
     66          1           0        3.129459    2.206150    1.197298
     67          6           0        3.476299    1.483622    3.041203
     68          6           0        3.006227    3.995997    2.326623
     69          1           0        4.076541    4.115734    2.520368
     70          1           0        2.467825    4.412778    3.187130
     71          8           0        4.581110    1.742762    3.505220
     72          6           0        2.566756    4.617663    1.013227
     73          6           0        3.354113    4.428459   -0.131207
     74          1           0        4.389430    4.108491   -0.019550
     75          6           0        1.251094    5.065901    0.824412
     76          1           0        0.621709    5.258398    1.692304
     77          6           0        2.824909    4.567319   -1.409408
     78          1           0        3.448942    4.400749   -2.279744
     79          6           0        0.698497    5.196068   -0.450059
     80          1           0       -0.342553    5.473654   -0.584979
     81          8           0        0.860353    4.856451   -2.794447
     82          6           0        1.462659    4.872240   -1.580272
     83          7           0        2.948234    0.216196    3.021482
     84          1           0        2.077844    0.106193    2.516181
     85          6           0        3.808343   -0.970742    3.097312
     86          1           0        4.579202   -0.744061    3.839663
     87          6           0        4.497408   -1.172253    1.719336
     88          6           0        3.009385   -2.197938    3.516848
     89          1           0        3.666755   -3.068036    3.599126
     90          1           0        2.538370   -2.018505    4.486893
     91          1           0        2.235082   -2.440387    2.781853
     92          8           0        4.206618   -2.106745    0.953343
     93          7           0        5.383501   -0.214261    1.392339
     94          1           0        5.626641    0.487148    2.091834
     95          6           0        6.121354   -0.145306    0.136692
     96          1           0        6.281941   -1.164283   -0.229276
     97          6           0        7.477980    0.475229    0.451500
     98          6           0        5.391182    0.683974   -0.961136
     99          1           0        6.128407    1.141598   -1.627536
    100          1           0        4.848714    1.502146   -0.472398
    101          8           0        7.747523    1.067808    1.470876
    102          6           0        4.424600   -0.189449   -1.779516
    103          1           0        3.865253   -0.836984   -1.099103
    104          1           0        5.013521   -0.863946   -2.418956
    105          6           0        3.403250    0.585179   -2.612893
    106          1           0        2.779480    1.180484   -1.944374
    107          1           0        2.733764   -0.122486   -3.125855
    108          7           0        4.037801    1.504286   -3.552072
    109          1           0        4.785924    1.124646   -4.120720
    110          7           0        2.048377    2.747775   -4.013175
    111          1           0        1.361065    4.226057   -3.391297
    112          1           0        1.560825    1.950816   -3.605064
    113          7           0        4.099745    3.374620   -4.904613
    114          1           0        3.591500    4.158130   -5.294553
    115          1           0        5.007433    3.616632   -4.527346
    116          6           0        3.317192    2.527216   -4.139243
    117          8           0        8.334721    0.309600   -0.576076
    118          1           0        9.168955    0.752629   -0.328743
 ---------------------------------------------------------------------

 SCF Done:  E(RB3LYP) =  -2837.84903024     A.U. after    1 cycles

 Alpha  occ. eigenvalues --  -19.28016 -19.25327 -19.24091 -19.23115 -19.22487
 Alpha  occ. eigenvalues --  -19.22235 -19.22132 -19.21581 -19.20387 -19.20337
 Alpha  occ. eigenvalues --  -19.19121 -14.57443 -14.47233 -14.47194 -14.46366
 Alpha  occ. eigenvalues --  -14.46058 -14.45136 -14.44595 -14.42868 -14.42333
 Alpha  occ. eigenvalues --  -14.41474 -14.36054 -10.41173 -10.40525 -10.40487
 Alpha  occ. eigenvalues --  -10.38935 -10.38863 -10.38678 -10.37602 -10.37471
 Alpha  occ. eigenvalues --  -10.36069 -10.36055 -10.35742 -10.33266 -10.32647
 Alpha  occ. eigenvalues --  -10.32569 -10.32460 -10.31558 -10.31113 -10.29824
 Alpha  occ. eigenvalues --  -10.29475 -10.29375 -10.29249 -10.28448 -10.27405
 Alpha  occ. eigenvalues --  -10.27398 -10.27160 -10.27048 -10.26706 -10.26663
 Alpha  occ. eigenvalues --  -10.26569 -10.25571 -10.25075 -10.24997 -10.24995
 Alpha  occ. eigenvalues --  -10.24804 -10.24091 -10.23881  -1.19007  -1.16703
 Alpha  occ. eigenvalues --   -1.14567  -1.14410  -1.13997  -1.13497  -1.13211
 Alpha  occ. eigenvalues --   -1.12126  -1.10907  -1.10564  -1.10198  -1.08835
 Alpha  occ. eigenvalues --   -1.04952  -1.03993  -1.02830  -1.02233  -1.02015
 Alpha  occ. eigenvalues --   -1.01753  -1.00575  -1.00358  -0.95952  -0.91539
 Alpha  occ. eigenvalues --   -0.91371  -0.91141  -0.89683  -0.89347  -0.88443
 Alpha  occ. eigenvalues --   -0.86601  -0.85448  -0.84879  -0.83329  -0.82580
 Alpha  occ. eigenvalues --   -0.82205  -0.81720  -0.80306  -0.80189  -0.78936
 Alpha  occ. eigenvalues --   -0.75665  -0.74581  -0.74559  -0.74198  -0.72854
 Alpha  occ. eigenvalues --   -0.72497  -0.71918  -0.71747  -0.70288  -0.69613
 Alpha  occ. eigenvalues --   -0.69223  -0.69056  -0.68787  -0.68443  -0.68226
 Alpha  occ. eigenvalues --   -0.67317  -0.67217  -0.66928  -0.66742  -0.66017
 Alpha  occ. eigenvalues --   -0.65657  -0.64986  -0.64335  -0.64090  -0.62996
 Alpha  occ. eigenvalues --   -0.62532  -0.62154  -0.61395  -0.60226  -0.59585
 Alpha  occ. eigenvalues --   -0.59307  -0.58986  -0.58602  -0.58476  -0.58076
 Alpha  occ. eigenvalues --   -0.57600  -0.57422  -0.57265  -0.56869  -0.56524
 Alpha  occ. eigenvalues --   -0.56149  -0.55921  -0.55562  -0.55250  -0.54903
 Alpha  occ. eigenvalues --   -0.54747  -0.54538  -0.54092  -0.53623  -0.53395
 Alpha  occ. eigenvalues --   -0.53304  -0.52702  -0.52469  -0.52141  -0.51837
 Alpha  occ. eigenvalues --   -0.51701  -0.51367  -0.51284  -0.51161  -0.50898
 Alpha  occ. eigenvalues --   -0.50819  -0.50773  -0.50065  -0.49984  -0.49580
 Alpha  occ. eigenvalues --   -0.49513  -0.49183  -0.48893  -0.48519  -0.48357
 Alpha  occ. eigenvalues --   -0.48188  -0.47864  -0.47829  -0.47722  -0.47245
 Alpha  occ. eigenvalues --   -0.46934  -0.46744  -0.46504  -0.46469  -0.46233
 Alpha  occ. eigenvalues --   -0.45933  -0.45678  -0.45418  -0.45140  -0.45005
 Alpha  occ. eigenvalues --   -0.44966  -0.44770  -0.44597  -0.44454  -0.44208
 Alpha  occ. eigenvalues --   -0.44004  -0.43694  -0.43361  -0.42989  -0.42625
 Alpha  occ. eigenvalues --   -0.42274  -0.42228  -0.41771  -0.41555  -0.41510
 Alpha  occ. eigenvalues --   -0.40838  -0.40075  -0.38832  -0.38798  -0.38451
 Alpha  occ. eigenvalues --   -0.38208  -0.37670  -0.37389  -0.37315  -0.37276
 Alpha  occ. eigenvalues --   -0.36910  -0.36661  -0.36046  -0.35879  -0.35082
 Alpha  occ. eigenvalues --   -0.34892  -0.34171  -0.33949  -0.33306  -0.32696
 Alpha  occ. eigenvalues --   -0.32505  -0.32065  -0.30906  -0.30238  -0.26751
 Alpha virt. eigenvalues --   -0.10748  -0.09499  -0.09231  -0.08482  -0.07610
 Alpha virt. eigenvalues --   -0.07549  -0.07381  -0.06436  -0.05422  -0.05120
 Alpha virt. eigenvalues --   -0.04910  -0.03162  -0.02926  -0.02136  -0.01840

 Mulliken charges:
               1
     1  N   -0.745769
     2  H    0.408166
     3  H    0.428310
     4  H    0.416654
     5  C   -0.135358
     6  H    0.221433
     7  C    0.641518
     8  C    0.134914
     9  H    0.162055
    10  O   -0.542086
    11  C   -0.516702
    12  H    0.198732
    13  H    0.163808
    14  H    0.182929
    15  O   -0.700847
    16  H    0.470141
    17  N   -0.626005
    18  H    0.409236
    19  C   -0.080716
    20  H    0.218865
    21  C    0.622232
    22  C   -0.093811
    23  H    0.150812
    24  O   -0.542285
    25  C   -0.273609
    26  H    0.134033
    27  H    0.158950
    28  C   -0.492255
    29  H    0.139873
    30  H    0.164190
    31  H    0.169554
    32  C   -0.461152
    33  H    0.169051
    34  H    0.158436
    35  H    0.154723
    36  N   -0.609355
    37  H    0.350065
    38  C   -0.083178
    39  H    0.217012
    40  C    0.639316
    41  C   -0.471623
    42  H    0.201498
    43  H    0.164116
    44  H    0.158231
    45  O   -0.532860
    46  N   -0.642578
    47  H    0.403001
    48  C   -0.035854
    49  H    0.186111
    50  C    0.627844
    51  C   -0.300365
    52  H    0.153595
    53  H    0.172831
    54  O   -0.515733
    55  C   -0.343711
    56  H    0.168803
    57  H    0.190311
    58  C    0.604464
    59  N   -0.723079
    60  H    0.362800
    61  H    0.357481
    62  O   -0.561464
    63  N   -0.625725
    64  H    0.337770
    65  C   -0.094011
    66  H    0.234414
    67  C    0.600478
    68  C   -0.357673
    69  H    0.190819
    70  H    0.152377
    71  O   -0.516243
    72  C    0.148965
    73  C   -0.194641
    74  H    0.125968
    75  C   -0.218369
    76  H    0.116085
    77  C   -0.165711
    78  H    0.123596
    79  C   -0.170404
    80  H    0.153951
    81  O   -0.696801
    82  C    0.348611
    83  N   -0.586152
    84  H    0.342803
    85  C   -0.068933
    86  H    0.204487
    87  C    0.638427
    88  C   -0.466643
    89  H    0.174856
    90  H    0.173121
    91  H    0.151725
    92  O   -0.581580
    93  N   -0.613801
    94  H    0.393438
    95  C   -0.037395
    96  H    0.198339
    97  C    0.572718
    98  C   -0.271152
    99  H    0.167442
   100  H    0.170939
   101  O   -0.443645
   102  C   -0.318715
   103  H    0.171721
   104  H    0.139378
   105  C   -0.171182
   106  H    0.216276
   107  H    0.154858
   108  N   -0.606304
   109  H    0.327630
   110  N   -0.776406
   111  H    0.450209
   112  H    0.347158
   113  N   -0.750413
   114  H    0.348003
   115  H    0.332424
   116  C    0.654041
   117  O   -0.563920
   118  H    0.427096
 Sum of Mulliken charges =   1.00000

 Dipole moment (field-independent basis, Debye):
    X=             -0.3184    Y=            -11.4179    Z=             -3.8865  Tot=             12.0655
 Quadrupole moment (field-independent basis, Debye-Ang):
   XX=           -252.0940   YY=           -289.9148   ZZ=           -303.3960
   XY=             11.6985   XZ=            -21.3848   YZ=              7.0954

 Normal termination of Gaussian 16 at Mon Jun 27 03:08:33 2022.
