 Gaussian 16, Revision C.01,
 Gaussian 16:  ES64L-G16RevC.01  3-Jul-2019

 ----------------------------------------------------------------------
 # B3LYP/6-31G* empiricaldispersion=gd3 guess=read geom=check nosymm in
 tegral(ultrafinegrid)
 ----------------------------------------------------------------------

 ------------------------------------------------------
 Candidate Structure: Conf:156 Charge calc in gas phase
 ------------------------------------------------------
 Structure from the checkpoint file:  "conf-156.chk"
 Charge =  1 Multiplicity = 1

                          Input orientation:
 ---------------------------------------------------------------------
 Center     Atomic      Atomic             Coordinates (Angstroms)
 Number     Number       Type             X           Y           Z
 ---------------------------------------------------------------------
      1          7           0       -6.183428   -2.755906   -5.262940
      2          1           0       -6.773380   -3.409715   -4.742591
      3          1           0       -5.970981   -3.132328   -6.202121
      4          1           0       -6.662645   -1.824696   -5.289547
      5          6           0       -4.872000   -2.458587   -4.581977
      6          1           0       -4.541666   -3.331885   -4.015229
      7          6           0       -5.176536   -1.232449   -3.701144
      8          6           0       -3.867516   -2.117774   -5.720224
      9          1           0       -4.174841   -1.159983   -6.156971
     10          8           0       -6.106961   -0.493641   -4.058486
     11          6           0       -2.431899   -2.034967   -5.229324
     12          1           0       -2.311207   -1.208084   -4.523162
     13          1           0       -2.139022   -2.962000   -4.722455
     14          1           0       -1.773014   -1.861124   -6.085025
     15          8           0       -4.060006   -3.080920   -6.766250
     16          1           0       -3.436682   -3.813664   -6.630850
     17          7           0       -4.384665   -1.081691   -2.649459
     18          1           0       -3.681914   -1.806542   -2.470288
     19          6           0       -4.366396    0.097198   -1.794465
     20          1           0       -5.278914    0.666393   -1.994679
     21          6           0       -3.122830    0.930633   -2.213167
     22          6           0       -4.346978   -0.364300   -0.298888
     23          1           0       -3.354335   -0.796688   -0.109279
     24          8           0       -2.324523    0.484611   -3.039430
     25          6           0       -5.380042   -1.492400   -0.057736
     26          1           0       -5.297295   -1.786042    0.996469
     27          1           0       -5.099126   -2.378276   -0.639346
     28          6           0       -4.548680    0.790598    0.702952
     29          1           0       -5.348012    1.472889    0.386702
     30          1           0       -3.629940    1.358128    0.871719
     31          1           0       -4.844911    0.386174    1.676412
     32          6           0       -6.834024   -1.113516   -0.365425
     33          1           0       -7.506345   -1.942771   -0.119508
     34          1           0       -6.980065   -0.870279   -1.424344
     35          1           0       -7.157148   -0.247254    0.221967
     36          7           0       -2.939659    2.114466   -1.585318
     37          1           0       -3.607969    2.375632   -0.872931
     38          6           0       -1.585455    2.695799   -1.400252
     39          1           0       -1.052155    2.644597   -2.350317
     40          6           0       -0.960671    1.742278   -0.347066
     41          6           0       -1.692790    4.142677   -0.947569
     42          1           0       -0.740150    4.634478   -1.144640
     43          1           0       -1.938750    4.201136    0.117554
     44          1           0       -2.463670    4.657017   -1.530683
     45          8           0       -1.217852    1.832185    0.853530
     46          7           0       -0.316289    0.666350   -0.878579
     47          1           0       -0.140907    0.675134   -1.874842
     48          6           0       -0.310075   -0.639336   -0.220130
     49          1           0       -0.998275   -0.552911    0.629060
     50          6           0        1.094393   -0.993982    0.306938
     51          6           0       -0.796778   -1.698526   -1.217539
     52          1           0        0.008748   -1.891033   -1.934000
     53          1           0       -1.636412   -1.288816   -1.774357
     54          8           0        1.838122   -1.742261   -0.326845
     55          6           0       -1.214397   -3.016515   -0.558511
     56          1           0       -0.342946   -3.521030   -0.129368
     57          1           0       -1.917929   -2.820291    0.263105
     58          6           0       -1.948829   -3.909231   -1.546333
     59          7           0       -1.553839   -5.198241   -1.602564
     60          1           0       -0.792313   -5.551033   -1.041646
     61          1           0       -2.031187   -5.837007   -2.224122
     62          8           0       -2.874817   -3.490722   -2.262074
     63          7           0        1.423476   -0.429902    1.497810
     64          1           0        0.801329    0.269582    1.890508
     65          6           0        2.806523   -0.398823    1.916800
     66          1           0        3.310445   -1.214983    1.395654
     67          6           0        2.938873   -0.498586    3.431708
     68          6           0        3.512850    0.975094    1.585114
     69          1           0        4.583092    0.774364    1.451820
     70          1           0        3.435931    1.594846    2.486221
     71          8           0        2.027145   -0.187598    4.185519
     72          6           0        2.937380    1.756417    0.442958
     73          6           0        3.079029    1.366268   -0.900549
     74          1           0        3.599706    0.435933   -1.125285
     75          6           0        2.233809    2.947192    0.694046
     76          1           0        2.102789    3.270053    1.728215
     77          6           0        2.554336    2.122267   -1.946656
     78          1           0        2.614880    1.763420   -2.973375
     79          6           0        1.730558    3.744292   -0.326239
     80          1           0        1.187297    4.654450   -0.087873
     81          8           0        1.121827    3.912783   -2.627470
     82          6           0        1.754747    3.318621   -1.717472
     83          7           0        4.222712   -0.768055    3.861202
     84          1           0        4.923258   -0.867173    3.133073
     85          6           0        4.746013   -0.069698    5.036234
     86          1           0        3.880752    0.214717    5.640139
     87          6           0        5.505465    1.172012    4.521885
     88          6           0        5.699253   -0.955982    5.842940
     89          1           0        6.069893   -0.424652    6.726648
     90          1           0        5.177862   -1.860536    6.167875
     91          1           0        6.559799   -1.241852    5.229180
     92          8           0        6.326057    1.072654    3.609871
     93          7           0        5.208490    2.357947    5.118106
     94          1           0        4.607504    2.373515    5.934783
     95          6           0        6.024081    3.546395    4.915304
     96          1           0        7.025158    3.223812    4.608140
     97          6           0        6.134238    4.262224    6.258584
     98          6           0        5.469660    4.520148    3.846537
     99          1           0        6.063530    5.441478    3.897427
    100          1           0        4.439182    4.785828    4.117491
    101          8           0        5.464633    4.003913    7.234120
    102          6           0        5.502910    3.954359    2.421608
    103          1           0        4.847897    3.087001    2.344791
    104          1           0        6.511156    3.597363    2.178756
    105          6           0        5.044648    5.009010    1.402787
    106          1           0        5.738128    5.859451    1.362729
    107          1           0        4.079500    5.425452    1.705506
    108          7           0        4.823494    4.475156    0.056938
    109          1           0        3.850277    4.215568   -0.162419
    110          7           0        7.037206    4.567168   -0.685217
    111          1           0        7.777402    4.058091   -1.145104
    112          1           0        7.304503    5.114242    0.118091
    113          7           0        5.439603    3.385576   -1.880653
    114          1           0        6.013024    3.412859   -2.711558
    115          1           0        4.490263    2.986795   -1.958167
    116          6           0        5.757716    4.140993   -0.822510
    117          8           0        7.055685    5.244468    6.218553
    118          1           0        7.058695    5.672705    7.096296
 ---------------------------------------------------------------------

 SCF Done:  E(RB3LYP) =  -2837.78733962     A.U. after    1 cycles

 Alpha  occ. eigenvalues --  -19.27702 -19.27571 -19.23238 -19.22403 -19.22054
 Alpha  occ. eigenvalues --  -19.19521 -19.18433 -19.17297 -19.17096 -19.16996
 Alpha  occ. eigenvalues --  -19.09524 -14.57169 -14.47606 -14.46199 -14.46108
 Alpha  occ. eigenvalues --  -14.45917 -14.45469 -14.43320 -14.43092 -14.41496
 Alpha  occ. eigenvalues --  -14.40965 -14.40950 -10.42929 -10.40170 -10.40000
 Alpha  occ. eigenvalues --  -10.39558 -10.37021 -10.36533 -10.36477 -10.35395
 Alpha  occ. eigenvalues --  -10.34148 -10.33968 -10.33965 -10.31989 -10.31963
 Alpha  occ. eigenvalues --  -10.31689 -10.29566 -10.29276 -10.28396 -10.28213
 Alpha  occ. eigenvalues --  -10.28090 -10.28021 -10.27355 -10.27051 -10.26676
 Alpha  occ. eigenvalues --  -10.25828 -10.25800 -10.25680 -10.24703 -10.24601
 Alpha  occ. eigenvalues --  -10.24292 -10.23854 -10.22712 -10.22635 -10.21617
 Alpha  occ. eigenvalues --  -10.21566 -10.20340 -10.20227  -1.18539  -1.16287
 Alpha  occ. eigenvalues --   -1.14591  -1.13521  -1.11531  -1.11506  -1.10668
 Alpha  occ. eigenvalues --   -1.10543  -1.09638  -1.09273  -1.08879  -1.08384
 Alpha  occ. eigenvalues --   -1.03220  -1.00970  -1.00770  -0.99776  -0.99533
 Alpha  occ. eigenvalues --   -0.99490  -0.99237  -0.98312  -0.97871  -0.97419
 Alpha  occ. eigenvalues --   -0.90651  -0.88514  -0.88468  -0.87764  -0.87278
 Alpha  occ. eigenvalues --   -0.84484  -0.83478  -0.83100  -0.82173  -0.80996
 Alpha  occ. eigenvalues --   -0.80348  -0.79197  -0.78235  -0.77547  -0.77495
 Alpha  occ. eigenvalues --   -0.75460  -0.74542  -0.73108  -0.72326  -0.71777
 Alpha  occ. eigenvalues --   -0.71522  -0.71333  -0.69621  -0.69501  -0.69279
 Alpha  occ. eigenvalues --   -0.68911  -0.68773  -0.68540  -0.68018  -0.66376
 Alpha  occ. eigenvalues --   -0.66032  -0.65792  -0.65035  -0.64679  -0.64099
 Alpha  occ. eigenvalues --   -0.63814  -0.63611  -0.63180  -0.62795  -0.62566
 Alpha  occ. eigenvalues --   -0.61299  -0.60889  -0.60557  -0.60118  -0.59936
 Alpha  occ. eigenvalues --   -0.58911  -0.58760  -0.58684  -0.57615  -0.57171
 Alpha  occ. eigenvalues --   -0.57007  -0.56667  -0.55988  -0.55707  -0.55196
 Alpha  occ. eigenvalues --   -0.55134  -0.54672  -0.54370  -0.53852  -0.53620
 Alpha  occ. eigenvalues --   -0.53459  -0.53349  -0.52938  -0.52711  -0.52351
 Alpha  occ. eigenvalues --   -0.51941  -0.51718  -0.51382  -0.51138  -0.50640
 Alpha  occ. eigenvalues --   -0.50429  -0.50163  -0.49766  -0.49567  -0.49142
 Alpha  occ. eigenvalues --   -0.49006  -0.48741  -0.48528  -0.48478  -0.47973
 Alpha  occ. eigenvalues --   -0.47928  -0.47699  -0.47487  -0.47223  -0.46908
 Alpha  occ. eigenvalues --   -0.46627  -0.46126  -0.45927  -0.45762  -0.45575
 Alpha  occ. eigenvalues --   -0.45453  -0.45222  -0.45001  -0.44683  -0.44445
 Alpha  occ. eigenvalues --   -0.44308  -0.44240  -0.44006  -0.43611  -0.43181
 Alpha  occ. eigenvalues --   -0.42871  -0.42374  -0.42244  -0.42193  -0.42070
 Alpha  occ. eigenvalues --   -0.41707  -0.41362  -0.41144  -0.40936  -0.40925
 Alpha  occ. eigenvalues --   -0.40649  -0.40441  -0.40368  -0.40053  -0.39855
 Alpha  occ. eigenvalues --   -0.39639  -0.39488  -0.38203  -0.37645  -0.37608
 Alpha  occ. eigenvalues --   -0.37341  -0.36914  -0.36384  -0.36197  -0.35811
 Alpha  occ. eigenvalues --   -0.35190  -0.34403  -0.33399  -0.33337  -0.33090
 Alpha  occ. eigenvalues --   -0.32823  -0.32598  -0.31629  -0.30591  -0.30235
 Alpha  occ. eigenvalues --   -0.29695  -0.29441  -0.28796  -0.23308  -0.20978
 Alpha virt. eigenvalues --   -0.09510  -0.07909  -0.07689  -0.07554  -0.06891
 Alpha virt. eigenvalues --   -0.06712  -0.05087  -0.04594  -0.03913  -0.03698
 Alpha virt. eigenvalues --   -0.03324  -0.03086  -0.02750  -0.02068  -0.00907

 Mulliken charges:
               1
     1  N   -0.744889
     2  H    0.408718
     3  H    0.419814
     4  H    0.420383
     5  C   -0.151486
     6  H    0.215894
     7  C    0.644153
     8  C    0.123220
     9  H    0.188445
    10  O   -0.554589
    11  C   -0.527679
    12  H    0.241396
    13  H    0.157678
    14  H    0.183820
    15  O   -0.634774
    16  H    0.415581
    17  N   -0.620005
    18  H    0.434530
    19  C   -0.105111
    20  H    0.200297
    21  C    0.633305
    22  C   -0.098780
    23  H    0.143346
    24  O   -0.524898
    25  C   -0.257957
    26  H    0.148341
    27  H    0.129631
    28  C   -0.515484
    29  H    0.149453
    30  H    0.200787
    31  H    0.167422
    32  C   -0.470156
    33  H    0.151973
    34  H    0.154006
    35  H    0.163077
    36  N   -0.592121
    37  H    0.345658
    38  C   -0.042347
    39  H    0.211359
    40  C    0.611529
    41  C   -0.494960
    42  H    0.215055
    43  H    0.159963
    44  H    0.150118
    45  O   -0.548293
    46  N   -0.566418
    47  H    0.357713
    48  C   -0.077442
    49  H    0.170257
    50  C    0.654562
    51  C   -0.307753
    52  H    0.178845
    53  H    0.171201
    54  O   -0.550651
    55  C   -0.376337
    56  H    0.178548
    57  H    0.181997
    58  C    0.622690
    59  N   -0.726349
    60  H    0.365552
    61  H    0.347715
    62  O   -0.562977
    63  N   -0.588351
    64  H    0.357307
    65  C   -0.047694
    66  H    0.183348
    67  C    0.584098
    68  C   -0.404380
    69  H    0.158504
    70  H    0.153476
    71  O   -0.511815
    72  C    0.147966
    73  C   -0.166681
    74  H    0.128034
    75  C   -0.204658
    76  H    0.112961
    77  C   -0.337414
    78  H    0.111973
    79  C   -0.308827
    80  H    0.118825
    81  O   -0.639004
    82  C    0.457020
    83  N   -0.572787
    84  H    0.336141
    85  C   -0.074257
    86  H    0.182352
    87  C    0.625726
    88  C   -0.448405
    89  H    0.157163
    90  H    0.175676
    91  H    0.167307
    92  O   -0.548593
    93  N   -0.606418
    94  H    0.358457
    95  C   -0.039416
    96  H    0.198917
    97  C    0.580815
    98  C   -0.273984
    99  H    0.163378
   100  H    0.158293
   101  O   -0.454713
   102  C   -0.281620
   103  H    0.201547
   104  H    0.150558
   105  C   -0.175989
   106  H    0.156507
   107  H    0.188245
   108  N   -0.595475
   109  H    0.388635
   110  N   -0.760122
   111  H    0.369275
   112  H    0.371813
   113  N   -0.779758
   114  H    0.357630
   115  H    0.399125
   116  C    0.788758
   117  O   -0.562886
   118  H    0.426839
 Sum of Mulliken charges =   1.00000

 Dipole moment (field-independent basis, Debye):
    X=              0.0011    Y=             -5.8453    Z=             -8.8916  Tot=             10.6408
 Quadrupole moment (field-independent basis, Debye-Ang):
   XX=           -111.3582   YY=           -227.4950   ZZ=           -258.0943
   XY=            141.7195   XZ=             94.1112   YZ=             88.6672

 Normal termination of Gaussian 16 at Mon Jun 27 03:08:58 2022.
