 Gaussian 16, Revision C.01,
 Gaussian 16:  ES64L-G16RevC.01  3-Jul-2019

 ----------------------------------------------------------------------
 # B3LYP/6-31G* empiricaldispersion=gd3 guess=read geom=check nosymm in
 tegral(ultrafinegrid)
 ----------------------------------------------------------------------

 ------------------------------------------------------
 Candidate Structure: Conf:669 Charge calc in gas phase
 ------------------------------------------------------
 Structure from the checkpoint file:  "conf-669.chk"
 Charge =  1 Multiplicity = 1

                          Input orientation:
 ---------------------------------------------------------------------
 Center     Atomic      Atomic             Coordinates (Angstroms)
 Number     Number       Type             X           Y           Z
 ---------------------------------------------------------------------
      1          7           0       -7.120802   -6.389165   -6.276581
      2          1           0       -7.860581   -6.963086   -5.863498
      3          1           0       -6.814918   -6.793985   -7.178541
      4          1           0       -7.475859   -5.406967   -6.365569
      5          6           0       -5.905546   -6.253952   -5.399403
      6          1           0       -5.816185   -7.148791   -4.778312
      7          6           0       -6.156831   -4.958778   -4.596179
      8          6           0       -4.680093   -6.109765   -6.355819
      9          1           0       -4.725181   -5.106083   -6.795015
     10          8           0       -6.948487   -4.141670   -5.082738
     11          6           0       -3.349475   -6.317768   -5.646610
     12          1           0       -3.175881   -5.575853   -4.860767
     13          1           0       -3.302773   -7.315332   -5.189606
     14          1           0       -2.539204   -6.232657   -6.376211
     15          8           0       -4.874439   -7.006740   -7.452504
     16          1           0       -4.399964   -7.836608   -7.278400
     17          7           0       -5.459199   -4.826066   -3.472580
     18          1           0       -4.728189   -5.498390   -3.243232
     19          6           0       -5.282225   -3.570035   -2.736500
     20          1           0       -5.713909   -2.763263   -3.334196
     21          6           0       -3.747260   -3.420116   -2.631520
     22          6           0       -5.968375   -3.633250   -1.341789
     23          1           0       -5.478998   -4.454103   -0.797430
     24          8           0       -3.031637   -4.431766   -2.679942
     25          6           0       -7.467696   -3.990245   -1.458881
     26          1           0       -7.841123   -4.146974   -0.439009
     27          1           0       -7.567128   -4.958895   -1.966278
     28          6           0       -5.754042   -2.336630   -0.542585
     29          1           0       -6.075801   -1.451400   -1.103133
     30          1           0       -4.709179   -2.185736   -0.261618
     31          1           0       -6.342787   -2.369832    0.379715
     32          6           0       -8.347848   -2.951222   -2.165683
     33          1           0       -9.392934   -3.279379   -2.162241
     34          1           0       -8.053667   -2.810240   -3.210855
     35          1           0       -8.311881   -1.979556   -1.662751
     36          7           0       -3.282462   -2.175796   -2.489067
     37          1           0       -3.904729   -1.380235   -2.345844
     38          6           0       -1.893719   -1.867259   -2.172040
     39          1           0       -1.520452   -2.624460   -1.472081
     40          6           0       -1.940607   -0.491607   -1.469696
     41          6           0       -1.008782   -1.860172   -3.427124
     42          1           0        0.033128   -1.642861   -3.172185
     43          1           0       -1.357088   -1.102348   -4.136138
     44          1           0       -1.050216   -2.843780   -3.903226
     45          8           0       -2.996125    0.144631   -1.414254
     46          7           0       -0.775019   -0.061719   -0.961021
     47          1           0        0.071249   -0.621964   -0.994709
     48          6           0       -0.626178    1.207999   -0.261169
     49          1           0       -1.233384    1.959760   -0.775188
     50          6           0        0.869469    1.550264   -0.328472
     51          6           0       -1.119154    1.081560    1.202422
     52          1           0       -0.604353    0.230381    1.662540
     53          1           0       -2.188481    0.856421    1.151899
     54          8           0        1.713508    0.653976   -0.354465
     55          6           0       -0.909505    2.334230    2.067852
     56          1           0       -1.351854    2.146101    3.053048
     57          1           0        0.152137    2.543578    2.224161
     58          6           0       -1.637621    3.545548    1.482718
     59          7           0       -0.844624    4.640709    1.238677
     60          1           0        0.090934    4.709030    1.645448
     61          1           0       -1.327771    5.495820    0.991765
     62          8           0       -2.825480    3.506286    1.196133
     63          7           0        1.161783    2.873290   -0.342569
     64          1           0        0.404594    3.535480   -0.193104
     65          6           0        2.508388    3.377060   -0.126259
     66          1           0        3.201259    2.611468   -0.482666
     67          6           0        2.761046    3.667993    1.361406
     68          6           0        2.720969    4.702720   -0.913854
     69          1           0        1.831552    5.326300   -0.760438
     70          1           0        2.764222    4.456936   -1.980806
     71          8           0        1.940054    4.297102    2.046709
     72          6           0        3.949486    5.455919   -0.455641
     73          6           0        3.841109    6.424724    0.553450
     74          1           0        2.858883    6.680585    0.941684
     75          6           0        5.230129    5.131847   -0.919150
     76          1           0        5.343750    4.382914   -1.701198
     77          6           0        4.965984    7.038104    1.092339
     78          1           0        4.880096    7.796142    1.865063
     79          6           0        6.370201    5.738072   -0.391316
     80          1           0        7.358460    5.482997   -0.762777
     81          8           0        7.304287    7.320685    1.191273
     82          6           0        6.246058    6.699564    0.626774
     83          7           0        3.963469    3.288541    1.816669
     84          1           0        4.596616    2.756206    1.228568
     85          6           0        4.568623    3.807914    3.033123
     86          1           0        4.469451    4.900487    3.027512
     87          6           0        6.049902    3.407085    2.971714
     88          6           0        3.918537    3.233281    4.303786
     89          1           0        4.386351    3.652616    5.200904
     90          1           0        2.856363    3.486795    4.305343
     91          1           0        4.029491    2.144339    4.324029
     92          8           0        6.424014    2.456831    2.284162
     93          7           0        6.886857    4.115826    3.764613
     94          1           0        6.543947    4.875745    4.340621
     95          6           0        8.228622    3.633401    4.055230
     96          1           0        8.167722    2.559125    4.275309
     97          6           0        8.700555    4.334026    5.319549
     98          6           0        9.228331    3.796698    2.889230
     99          1           0        8.757344    3.334664    2.016118
    100          1           0       10.114218    3.198561    3.135158
    101          8           0        8.075929    5.182319    5.919455
    102          6           0        9.648370    5.236502    2.578309
    103          1           0       10.176106    5.665832    3.442285
    104          1           0        8.774220    5.865904    2.384584
    105          6           0       10.588247    5.249175    1.362834
    106          1           0       10.043115    4.952459    0.463014
    107          1           0       11.391530    4.516205    1.515779
    108          7           0       11.221912    6.529283    1.078505
    109          1           0       11.864618    6.882696    1.774668
    110          7           0        9.540192    7.289240   -0.336850
    111          1           0        9.370208    7.979457   -1.066905
    112          1           0        8.130020    7.188930    0.635243
    113          7           0       11.531432    8.560615    0.044109
    114          1           0       11.216393    9.242942   -0.632416
    115          1           0       12.523980    8.367699   -0.020092
    116          6           0       10.701575    7.458587    0.217896
    117          8           0        9.919843    3.900734    5.697483
    118          1           0       10.154817    4.391041    6.508118
 ---------------------------------------------------------------------

 SCF Done:  E(RB3LYP) =  -2837.81566487     A.U. after    1 cycles

 Alpha  occ. eigenvalues --  -19.30313 -19.26131 -19.25733 -19.21270 -19.20246
 Alpha  occ. eigenvalues --  -19.18748 -19.17885 -19.17535 -19.17182 -19.16935
 Alpha  occ. eigenvalues --  -19.14966 -14.59499 -14.49052 -14.44566 -14.42604
 Alpha  occ. eigenvalues --  -14.41460 -14.41217 -14.40822 -14.40643 -14.40477
 Alpha  occ. eigenvalues --  -14.39025 -14.34794 -10.43202 -10.40306 -10.39541
 Alpha  occ. eigenvalues --  -10.38220 -10.38118 -10.35853 -10.34600 -10.34524
 Alpha  occ. eigenvalues --  -10.33942 -10.33881 -10.33523 -10.32650 -10.31331
 Alpha  occ. eigenvalues --  -10.30716 -10.29363 -10.29089 -10.28570 -10.28499
 Alpha  occ. eigenvalues --  -10.28267 -10.27408 -10.26578 -10.26309 -10.25741
 Alpha  occ. eigenvalues --  -10.25161 -10.24465 -10.24293 -10.24249 -10.23552
 Alpha  occ. eigenvalues --  -10.23539 -10.22638 -10.22615 -10.22437 -10.22358
 Alpha  occ. eigenvalues --  -10.22096 -10.21494 -10.21263  -1.19086  -1.17418
 Alpha  occ. eigenvalues --   -1.16739  -1.13414  -1.12935  -1.10753  -1.09520
 Alpha  occ. eigenvalues --   -1.09132  -1.08348  -1.07775  -1.06784  -1.06484
 Alpha  occ. eigenvalues --   -1.05730  -1.03558  -1.01295  -0.99184  -0.98244
 Alpha  occ. eigenvalues --   -0.97984  -0.97478  -0.94391  -0.93721  -0.93173
 Alpha  occ. eigenvalues --   -0.90039  -0.90022  -0.88529  -0.86308  -0.85398
 Alpha  occ. eigenvalues --   -0.85302  -0.84323  -0.83149  -0.81894  -0.81380
 Alpha  occ. eigenvalues --   -0.79316  -0.79110  -0.77985  -0.77662  -0.77230
 Alpha  occ. eigenvalues --   -0.75752  -0.74005  -0.73906  -0.72736  -0.72221
 Alpha  occ. eigenvalues --   -0.71965  -0.71336  -0.71037  -0.69701  -0.68924
 Alpha  occ. eigenvalues --   -0.67857  -0.66982  -0.66476  -0.66173  -0.65139
 Alpha  occ. eigenvalues --   -0.64942  -0.64760  -0.64443  -0.64288  -0.63885
 Alpha  occ. eigenvalues --   -0.62833  -0.62750  -0.62046  -0.61665  -0.61240
 Alpha  occ. eigenvalues --   -0.60864  -0.59830  -0.59517  -0.58959  -0.58240
 Alpha  occ. eigenvalues --   -0.57981  -0.57418  -0.57297  -0.56989  -0.56522
 Alpha  occ. eigenvalues --   -0.56351  -0.55504  -0.55053  -0.54616  -0.54463
 Alpha  occ. eigenvalues --   -0.53805  -0.53597  -0.53533  -0.52836  -0.52511
 Alpha  occ. eigenvalues --   -0.52370  -0.52188  -0.51826  -0.51716  -0.51474
 Alpha  occ. eigenvalues --   -0.51343  -0.50864  -0.50755  -0.50602  -0.50473
 Alpha  occ. eigenvalues --   -0.50048  -0.49842  -0.49242  -0.49016  -0.48870
 Alpha  occ. eigenvalues --   -0.48692  -0.48506  -0.48172  -0.47722  -0.47638
 Alpha  occ. eigenvalues --   -0.47464  -0.47390  -0.47094  -0.46733  -0.46427
 Alpha  occ. eigenvalues --   -0.46319  -0.45978  -0.45577  -0.45420  -0.45393
 Alpha  occ. eigenvalues --   -0.45114  -0.45000  -0.44563  -0.44533  -0.44254
 Alpha  occ. eigenvalues --   -0.43777  -0.43660  -0.43635  -0.43243  -0.42835
 Alpha  occ. eigenvalues --   -0.42721  -0.42456  -0.42241  -0.41935  -0.41868
 Alpha  occ. eigenvalues --   -0.41275  -0.40887  -0.40708  -0.40617  -0.40422
 Alpha  occ. eigenvalues --   -0.40118  -0.39999  -0.39947  -0.39661  -0.39391
 Alpha  occ. eigenvalues --   -0.39068  -0.38592  -0.38333  -0.38253  -0.37860
 Alpha  occ. eigenvalues --   -0.36613  -0.35233  -0.34960  -0.34650  -0.33734
 Alpha  occ. eigenvalues --   -0.33135  -0.32804  -0.32617  -0.32165  -0.31498
 Alpha  occ. eigenvalues --   -0.31139  -0.31091  -0.30788  -0.30715  -0.30115
 Alpha  occ. eigenvalues --   -0.29820  -0.28547  -0.28382  -0.28182  -0.24202
 Alpha virt. eigenvalues --   -0.12250  -0.10079  -0.07241  -0.05294  -0.05035
 Alpha virt. eigenvalues --   -0.04764  -0.04539  -0.03931  -0.03370  -0.03222
 Alpha virt. eigenvalues --   -0.02748  -0.02402  -0.01928  -0.01524  -0.01264

 Mulliken charges:
               1
     1  N   -0.744273
     2  H    0.415443
     3  H    0.426164
     4  H    0.426457
     5  C   -0.142734
     6  H    0.201575
     7  C    0.645579
     8  C    0.128688
     9  H    0.193429
    10  O   -0.530020
    11  C   -0.521399
    12  H    0.218183
    13  H    0.160712
    14  H    0.203723
    15  O   -0.629983
    16  H    0.423605
    17  N   -0.583060
    18  H    0.364538
    19  C   -0.093373
    20  H    0.194275
    21  C    0.630329
    22  C   -0.074310
    23  H    0.141056
    24  O   -0.560561
    25  C   -0.256394
    26  H    0.155539
    27  H    0.115434
    28  C   -0.480112
    29  H    0.164850
    30  H    0.169612
    31  H    0.169436
    32  C   -0.473890
    33  H    0.154164
    34  H    0.165990
    35  H    0.163488
    36  N   -0.604010
    37  H    0.373570
    38  C   -0.053165
    39  H    0.186126
    40  C    0.627577
    41  C   -0.447613
    42  H    0.168008
    43  H    0.165793
    44  H    0.171500
    45  O   -0.538495
    46  N   -0.625333
    47  H    0.355341
    48  C   -0.052259
    49  H    0.194151
    50  C    0.610330
    51  C   -0.261338
    52  H    0.147475
    53  H    0.191595
    54  O   -0.544093
    55  C   -0.385347
    56  H    0.178582
    57  H    0.172368
    58  C    0.563342
    59  N   -0.799873
    60  H    0.397486
    61  H    0.336245
    62  O   -0.499197
    63  N   -0.616505
    64  H    0.363968
    65  C   -0.060127
    66  H    0.176809
    67  C    0.652188
    68  C   -0.362933
    69  H    0.150345
    70  H    0.162417
    71  O   -0.576952
    72  C    0.143733
    73  C   -0.181735
    74  H    0.131985
    75  C   -0.196230
    76  H    0.121566
    77  C   -0.178376
    78  H    0.136028
    79  C   -0.202489
    80  H    0.147968
    81  O   -0.695841
    82  C    0.345908
    83  N   -0.587877
    84  H    0.363599
    85  C   -0.023185
    86  H    0.182022
    87  C    0.613907
    88  C   -0.452931
    89  H    0.151314
    90  H    0.190472
    91  H    0.163078
    92  O   -0.537715
    93  N   -0.616987
    94  H    0.359274
    95  C   -0.030834
    96  H    0.194101
    97  C    0.580311
    98  C   -0.274625
    99  H    0.187026
   100  H    0.152894
   101  O   -0.464221
   102  C   -0.298137
   103  H    0.128070
   104  H    0.190304
   105  C   -0.129058
   106  H    0.185227
   107  H    0.145864
   108  N   -0.598830
   109  H    0.328939
   110  N   -0.734387
   111  H    0.290022
   112  H    0.472421
   113  N   -0.756361
   114  H    0.335759
   115  H    0.335600
   116  C    0.665040
   117  O   -0.564387
   118  H    0.421636
 Sum of Mulliken charges =   1.00000

 Dipole moment (field-independent basis, Debye):
    X=             -7.4054    Y=            -18.1127    Z=            -18.8984  Tot=             27.2040
 Quadrupole moment (field-independent basis, Debye-Ang):
   XX=             -7.1654   YY=           -107.3864   ZZ=           -190.6973
   XY=            273.8830   XZ=            156.0846   YZ=            148.4589

 Normal termination of Gaussian 16 at Mon Jun 27 03:08:11 2022.
