 Gaussian 16, Revision C.01,
 Gaussian 16:  ES64L-G16RevC.01  3-Jul-2019

 ----------------------------------------------------------------------
 # B3LYP/6-31G* empiricaldispersion=gd3 guess=read geom=check nosymm in
 tegral(ultrafinegrid)
 ----------------------------------------------------------------------

 ------------------------------------------------------
 Candidate Structure: Conf:217 Charge calc in gas phase
 ------------------------------------------------------
 Structure from the checkpoint file:  "conf-217.chk"
 Charge =  1 Multiplicity = 1

                          Input orientation:
 ---------------------------------------------------------------------
 Center     Atomic      Atomic             Coordinates (Angstroms)
 Number     Number       Type             X           Y           Z
 ---------------------------------------------------------------------
      1          7           0       -6.124574   -0.197434   -6.739349
      2          1           0       -7.108496    0.060527   -6.641661
      3          1           0       -5.975512   -0.694787   -7.633062
      4          1           0       -5.537354    0.666523   -6.611706
      5          6           0       -5.632883   -1.103164   -5.639369
      6          1           0       -6.490642   -1.632997   -5.216597
      7          6           0       -4.968183   -0.132008   -4.636310
      8          6           0       -4.645446   -2.103680   -6.283819
      9          1           0       -3.707736   -1.576760   -6.498674
     10          8           0       -4.747137    1.021387   -5.022210
     11          6           0       -4.337122   -3.287048   -5.378827
     12          1           0       -3.729635   -2.961657   -4.531988
     13          1           0       -5.252362   -3.786053   -5.039726
     14          1           0       -3.739282   -4.015243   -5.937347
     15          8           0       -5.324572   -2.504293   -7.496454
     16          1           0       -4.685590   -2.970112   -8.057751
     17          7           0       -4.722755   -0.608857   -3.414697
     18          1           0       -4.862977   -1.596675   -3.223170
     19          6           0       -3.687253    0.001584   -2.576930
     20          1           0       -3.113733    0.657038   -3.227542
     21          6           0       -2.813717   -1.167521   -2.110572
     22          6           0       -4.300105    0.818878   -1.409044
     23          1           0       -5.066534    1.445128   -1.887667
     24          8           0       -3.323675   -2.258922   -1.838454
     25          6           0       -3.271939    1.766276   -0.761660
     26          1           0       -2.430492    1.182894   -0.363186
     27          1           0       -3.755255    2.234243    0.105413
     28          6           0       -4.990343   -0.068995   -0.365612
     29          1           0       -4.265942   -0.679128    0.184152
     30          1           0       -5.707528   -0.753275   -0.830836
     31          1           0       -5.531846    0.550135    0.357664
     32          6           0       -2.757277    2.868024   -1.698911
     33          1           0       -2.210654    3.633004   -1.139280
     34          1           0       -3.587635    3.362424   -2.217033
     35          1           0       -2.077064    2.479489   -2.464939
     36          7           0       -1.494821   -0.908140   -1.957075
     37          1           0       -1.102570   -0.104231   -2.439320
     38          6           0       -0.578174   -1.969272   -1.561917
     39          1           0       -0.975446   -2.399084   -0.631690
     40          6           0        0.754346   -1.308022   -1.192105
     41          6           0       -0.466969   -3.097198   -2.602394
     42          1           0        0.057817   -3.967361   -2.186361
     43          1           0        0.035147   -2.746632   -3.507286
     44          1           0       -1.472349   -3.423616   -2.867957
     45          8           0        0.818406   -0.162360   -0.748298
     46          7           0        1.884407   -2.058218   -1.363069
     47          1           0        1.821339   -2.959216   -1.814596
     48          6           0        3.178414   -1.596716   -0.887278
     49          1           0        3.003468   -1.085448    0.068494
     50          6           0        3.830849   -0.487199   -1.734034
     51          6           0        4.143725   -2.768586   -0.653823
     52          1           0        5.145342   -2.356596   -0.524090
     53          1           0        4.187437   -3.396350   -1.553084
     54          8           0        4.892275    0.011890   -1.312795
     55          6           0        3.790760   -3.616683    0.585887
     56          1           0        3.146601   -3.037726    1.261028
     57          1           0        3.223613   -4.513290    0.314772
     58          6           0        5.031846   -3.968362    1.412450
     59          7           0        5.076596   -5.222591    1.917752
     60          1           0        4.363136   -5.912491    1.736844
     61          1           0        5.855110   -5.479149    2.510271
     62          8           0        5.919692   -3.144837    1.636349
     63          7           0        3.194794   -0.053759   -2.820134
     64          1           0        2.334743   -0.508235   -3.116154
     65          6           0        3.518547    1.187119   -3.514461
     66          1           0        4.605768    1.298809   -3.530006
     67          6           0        2.989487    2.447304   -2.796848
     68          6           0        2.975057    1.123249   -4.969147
     69          1           0        3.645883    0.477003   -5.546486
     70          1           0        3.067501    2.135078   -5.376253
     71          8           0        3.282099    3.549431   -3.272536
     72          6           0        1.560530    0.599884   -5.050992
     73          6           0        1.301355   -0.726046   -5.452396
     74          1           0        2.138175   -1.353437   -5.762528
     75          6           0        0.449963    1.392405   -4.707708
     76          1           0        0.608716    2.436066   -4.437543
     77          6           0        0.015182   -1.247478   -5.490787
     78          1           0       -0.160847   -2.266236   -5.829743
     79          6           0       -0.845874    0.887698   -4.738630
     80          1           0       -1.691213    1.544993   -4.549872
     81          8           0       -2.311972   -0.977058   -5.052025
     82          6           0       -1.132327   -0.477455   -5.100169
     83          7           0        2.239821    2.286610   -1.686597
     84          1           0        1.945157    1.360875   -1.388303
     85          6           0        1.611542    3.423515   -0.997694
     86          1           0        1.238832    4.107513   -1.769430
     87          6           0        2.668492    4.164760   -0.142379
     88          6           0        0.472186    2.925186   -0.117131
     89          1           0       -0.063540    3.775081    0.314084
     90          1           0       -0.222897    2.319368   -0.700398
     91          1           0        0.865104    2.322181    0.704274
     92          8           0        2.796334    3.958066    1.060947
     93          7           0        3.434721    5.045426   -0.843753
     94          1           0        3.383708    4.997032   -1.858897
     95          6           0        4.535227    5.745849   -0.215212
     96          1           0        4.312043    5.746059    0.858930
     97          6           0        4.628117    7.209994   -0.637100
     98          6           0        5.901769    5.058124   -0.427282
     99          1           0        6.648263    5.605915    0.157640
    100          1           0        6.196074    5.153520   -1.481216
    101          8           0        5.618264    7.886968   -0.469279
    102          6           0        5.857277    3.579026   -0.040334
    103          1           0        5.163470    3.055335   -0.708970
    104          1           0        5.453808    3.454246    0.971107
    105          6           0        7.226778    2.899684   -0.141649
    106          1           0        7.894697    3.228263    0.659485
    107          1           0        7.719825    3.145228   -1.088034
    108          7           0        7.073726    1.435480   -0.098114
    109          1           0        6.453295    1.072006   -0.821387
    110          7           0        7.913084    0.969530    2.033219
    111          1           0        7.850320    0.454232    2.898333
    112          1           0        8.705927    1.578874    1.902912
    113          7           0        6.279322   -0.379277    1.075467
    114          1           0        6.460586   -1.225488    1.609120
    115          1           0        5.602005   -0.462622    0.312734
    116          6           0        7.092527    0.672910    1.006312
    117          8           0        3.493493    7.677816   -1.197460
    118          1           0        3.659903    8.617430   -1.404994
 ---------------------------------------------------------------------

 SCF Done:  E(RB3LYP) =  -2837.82701661     A.U. after    1 cycles

 Alpha  occ. eigenvalues --  -19.25412 -19.25290 -19.22696 -19.21769 -19.21707
 Alpha  occ. eigenvalues --  -19.21345 -19.19490 -19.18337 -19.18244 -19.17033
 Alpha  occ. eigenvalues --  -19.10747 -14.54569 -14.48399 -14.46810 -14.46682
 Alpha  occ. eigenvalues --  -14.45846 -14.45660 -14.45631 -14.43864 -14.42566
 Alpha  occ. eigenvalues --  -14.42514 -14.41036 -10.43671 -10.39483 -10.39227
 Alpha  occ. eigenvalues --  -10.38775 -10.38393 -10.37774 -10.35503 -10.35411
 Alpha  occ. eigenvalues --  -10.35166 -10.34074 -10.34012 -10.33193 -10.32039
 Alpha  occ. eigenvalues --  -10.31616 -10.30780 -10.30129 -10.29901 -10.29794
 Alpha  occ. eigenvalues --  -10.29202 -10.28935 -10.26200 -10.25954 -10.25787
 Alpha  occ. eigenvalues --  -10.25157 -10.25035 -10.24965 -10.24952 -10.23478
 Alpha  occ. eigenvalues --  -10.22987 -10.22760 -10.22587 -10.22554 -10.22530
 Alpha  occ. eigenvalues --  -10.22091 -10.20502 -10.20456  -1.16287  -1.14408
 Alpha  occ. eigenvalues --   -1.14229  -1.13588  -1.13334  -1.12247  -1.12123
 Alpha  occ. eigenvalues --   -1.10273  -1.10185  -1.08760  -1.08241  -1.07202
 Alpha  occ. eigenvalues --   -1.03501  -1.02079  -1.01680  -1.00932  -1.00543
 Alpha  occ. eigenvalues --   -0.99992  -0.99713  -0.99117  -0.98718  -0.98068
 Alpha  occ. eigenvalues --   -0.90334  -0.88467  -0.88157  -0.87438  -0.86535
 Alpha  occ. eigenvalues --   -0.85394  -0.84393  -0.83101  -0.81684  -0.81281
 Alpha  occ. eigenvalues --   -0.80398  -0.78608  -0.77349  -0.76963  -0.76441
 Alpha  occ. eigenvalues --   -0.76309  -0.74403  -0.74030  -0.73355  -0.72029
 Alpha  occ. eigenvalues --   -0.70922  -0.69823  -0.69400  -0.69327  -0.69222
 Alpha  occ. eigenvalues --   -0.68984  -0.68681  -0.68547  -0.68424  -0.66587
 Alpha  occ. eigenvalues --   -0.66432  -0.65937  -0.65725  -0.65185  -0.65070
 Alpha  occ. eigenvalues --   -0.64148  -0.63792  -0.63506  -0.63425  -0.62107
 Alpha  occ. eigenvalues --   -0.61759  -0.61461  -0.61038  -0.60559  -0.60079
 Alpha  occ. eigenvalues --   -0.59934  -0.58899  -0.58659  -0.57840  -0.57587
 Alpha  occ. eigenvalues --   -0.56991  -0.56527  -0.55868  -0.55762  -0.55334
 Alpha  occ. eigenvalues --   -0.54587  -0.54428  -0.54183  -0.53902  -0.53715
 Alpha  occ. eigenvalues --   -0.53439  -0.53076  -0.52881  -0.52326  -0.52153
 Alpha  occ. eigenvalues --   -0.51985  -0.51600  -0.51228  -0.50640  -0.50563
 Alpha  occ. eigenvalues --   -0.50371  -0.49866  -0.49798  -0.49428  -0.49015
 Alpha  occ. eigenvalues --   -0.48863  -0.48519  -0.48357  -0.48124  -0.48087
 Alpha  occ. eigenvalues --   -0.48003  -0.47820  -0.47290  -0.47184  -0.47113
 Alpha  occ. eigenvalues --   -0.46981  -0.46590  -0.46520  -0.46308  -0.45852
 Alpha  occ. eigenvalues --   -0.45615  -0.45262  -0.44959  -0.44833  -0.44737
 Alpha  occ. eigenvalues --   -0.44537  -0.44495  -0.44307  -0.44165  -0.44046
 Alpha  occ. eigenvalues --   -0.43264  -0.43179  -0.42882  -0.42354  -0.42222
 Alpha  occ. eigenvalues --   -0.41918  -0.41753  -0.41438  -0.40977  -0.40881
 Alpha  occ. eigenvalues --   -0.40754  -0.40197  -0.39055  -0.38838  -0.38770
 Alpha  occ. eigenvalues --   -0.38635  -0.38144  -0.37689  -0.37441  -0.37309
 Alpha  occ. eigenvalues --   -0.37186  -0.37035  -0.36895  -0.36234  -0.35949
 Alpha  occ. eigenvalues --   -0.35737  -0.35248  -0.34850  -0.33937  -0.33917
 Alpha  occ. eigenvalues --   -0.33834  -0.33628  -0.32429  -0.31811  -0.31339
 Alpha  occ. eigenvalues --   -0.30616  -0.29613  -0.28545  -0.24955  -0.21599
 Alpha virt. eigenvalues --   -0.09222  -0.08402  -0.08086  -0.07206  -0.06847
 Alpha virt. eigenvalues --   -0.05918  -0.05235  -0.04792  -0.04200  -0.03992
 Alpha virt. eigenvalues --   -0.03656  -0.03255  -0.02782  -0.01550  -0.01540

 Mulliken charges:
               1
     1  N   -0.748787
     2  H    0.403254
     3  H    0.418485
     4  H    0.421732
     5  C   -0.139489
     6  H    0.198165
     7  C    0.692925
     8  C    0.122551
     9  H    0.213121
    10  O   -0.546798
    11  C   -0.486510
    12  H    0.216916
    13  H    0.147451
    14  H    0.157778
    15  O   -0.661898
    16  H    0.422351
    17  N   -0.593797
    18  H    0.359330
    19  C   -0.068679
    20  H    0.202971
    21  C    0.665805
    22  C   -0.072575
    23  H    0.140684
    24  O   -0.572943
    25  C   -0.273463
    26  H    0.151019
    27  H    0.143223
    28  C   -0.456331
    29  H    0.157117
    30  H    0.144066
    31  H    0.148867
    32  C   -0.467639
    33  H    0.153702
    34  H    0.152259
    35  H    0.147953
    36  N   -0.609352
    37  H    0.358425
    38  C   -0.017285
    39  H    0.197619
    40  C    0.583819
    41  C   -0.493972
    42  H    0.124063
    43  H    0.180330
    44  H    0.213546
    45  O   -0.515397
    46  N   -0.644024
    47  H    0.350855
    48  C   -0.035655
    49  H    0.201919
    50  C    0.637936
    51  C   -0.317651
    52  H    0.196034
    53  H    0.163537
    54  O   -0.582997
    55  C   -0.360749
    56  H    0.194915
    57  H    0.154859
    58  C    0.607553
    59  N   -0.731750
    60  H    0.354796
    61  H    0.360856
    62  O   -0.537820
    63  N   -0.611832
    64  H    0.369786
    65  C   -0.039862
    66  H    0.179526
    67  C    0.642728
    68  C   -0.371796
    69  H    0.150592
    70  H    0.189661
    71  O   -0.562329
    72  C    0.088779
    73  C   -0.206882
    74  H    0.104596
    75  C   -0.190378
    76  H    0.128011
    77  C   -0.218437
    78  H    0.098163
    79  C   -0.286094
    80  H    0.137650
    81  O   -0.705315
    82  C    0.431816
    83  N   -0.649017
    84  H    0.396920
    85  C   -0.052637
    86  H    0.174531
    87  C    0.622384
    88  C   -0.478144
    89  H    0.163546
    90  H    0.173443
    91  H    0.177802
    92  O   -0.532645
    93  N   -0.605770
    94  H    0.372196
    95  C   -0.066227
    96  H    0.213172
    97  C    0.592504
    98  C   -0.268165
    99  H    0.171650
   100  H    0.152013
   101  O   -0.462165
   102  C   -0.284455
   103  H    0.163264
   104  H    0.176213
   105  C   -0.170376
   106  H    0.158859
   107  H    0.182503
   108  N   -0.607830
   109  H    0.395975
   110  N   -0.749000
   111  H    0.376056
   112  H    0.375582
   113  N   -0.811294
   114  H    0.394202
   115  H    0.413371
   116  C    0.774777
   117  O   -0.557180
   118  H    0.418333
 Sum of Mulliken charges =   1.00000

 Dipole moment (field-independent basis, Debye):
    X=              6.5183    Y=             -9.0408    Z=             -9.1833  Tot=             14.4415
 Quadrupole moment (field-independent basis, Debye-Ang):
   XX=           -109.8798   YY=           -283.4066   ZZ=           -239.0671
   XY=            -18.7116   XZ=            122.5805   YZ=              5.4376

 Normal termination of Gaussian 16 at Mon Jun 27 03:08:21 2022.
