 Gaussian 16, Revision C.01,
 Gaussian 16:  ES64L-G16RevC.01  3-Jul-2019

 ----------------------------------------------------------------------
 # B3LYP/6-31G* empiricaldispersion=gd3 guess=read geom=check nosymm in
 tegral(ultrafinegrid)
 ----------------------------------------------------------------------

 ------------------------------------------------------
 Candidate Structure: Conf:771 Charge calc in gas phase
 ------------------------------------------------------
 Structure from the checkpoint file:  "conf-771.chk"
 Charge =  1 Multiplicity = 1

                          Input orientation:
 ---------------------------------------------------------------------
 Center     Atomic      Atomic             Coordinates (Angstroms)
 Number     Number       Type             X           Y           Z
 ---------------------------------------------------------------------
      1          7           0       -1.218479    4.620149   -5.392642
      2          1           0       -1.875076    5.021332   -6.064932
      3          1           0       -0.224925    4.763309   -5.693920
      4          1           0       -1.416460    5.001277   -4.441104
      5          6           0       -1.337706    3.132649   -5.233773
      6          1           0       -1.782022    2.711419   -6.138282
      7          6           0       -2.179986    2.931303   -3.961056
      8          6           0        0.115851    2.603623   -5.013521
      9          1           0        0.363883    2.770131   -3.958932
     10          8           0       -2.261324    3.877024   -3.169787
     11          6           0        0.257722    1.126220   -5.354003
     12          1           0       -0.356230    0.492884   -4.704697
     13          1           0       -0.003789    0.945011   -6.401852
     14          1           0        1.300843    0.834434   -5.206028
     15          8           0        0.941427    3.423238   -5.840369
     16          1           0        1.844338    3.498708   -5.428658
     17          7           0       -2.702281    1.715034   -3.778962
     18          1           0       -2.494005    0.963531   -4.431754
     19          6           0       -3.158704    1.236592   -2.473380
     20          1           0       -2.796714    1.952068   -1.728570
     21          6           0       -2.467481   -0.128795   -2.275733
     22          6           0       -4.704154    1.140620   -2.364617
     23          1           0       -4.904022    0.726838   -1.364818
     24          8           0       -2.124210   -0.799725   -3.253021
     25          6           0       -5.298580    0.175847   -3.409641
     26          1           0       -4.749305   -0.772793   -3.385746
     27          1           0       -5.136007    0.597535   -4.411809
     28          6           0       -5.317551    2.546098   -2.437664
     29          1           0       -5.174906    2.979238   -3.434693
     30          1           0       -4.856389    3.223566   -1.711508
     31          1           0       -6.391548    2.515626   -2.236126
     32          6           0       -6.791528   -0.107629   -3.209268
     33          1           0       -7.140999   -0.854444   -3.929549
     34          1           0       -7.403621    0.789980   -3.343674
     35          1           0       -6.986573   -0.498840   -2.203366
     36          7           0       -2.302965   -0.479205   -0.986543
     37          1           0       -2.589607    0.158811   -0.247268
     38          6           0       -1.632449   -1.669363   -0.471719
     39          1           0       -2.283487   -2.546429   -0.589879
     40          6           0       -1.433049   -1.374247    1.035904
     41          6           0       -0.284936   -1.936015   -1.167258
     42          1           0        0.169948   -2.863473   -0.806477
     43          1           0        0.410304   -1.110871   -0.981401
     44          1           0       -0.440096   -2.030283   -2.241655
     45          8           0       -1.895957   -0.340928    1.534796
     46          7           0       -0.677007   -2.243122    1.741228
     47          1           0       -0.247018   -3.021718    1.258418
     48          6           0       -0.060360   -1.871026    3.032436
     49          1           0       -0.809074   -1.303721    3.592931
     50          6           0        1.136667   -0.962786    2.660727
     51          6           0        0.360407   -3.120996    3.794812
     52          1           0        1.105023   -3.668416    3.205380
     53          1           0       -0.504828   -3.777050    3.922885
     54          8           0        2.288128   -1.396563    2.592637
     55          6           0        0.953582   -2.801765    5.168049
     56          1           0        1.896575   -2.254538    5.059198
     57          1           0        0.270484   -2.157258    5.740204
     58          6           0        1.159273   -4.087890    5.976679
     59          7           0        2.052954   -3.987990    7.001669
     60          1           0        2.626991   -3.171927    7.149052
     61          1           0        2.228950   -4.809698    7.563073
     62          8           0        0.539704   -5.114235    5.737603
     63          7           0        0.800983    0.300853    2.289962
     64          1           0       -0.185762    0.538168    2.313318
     65          6           0        1.637629    1.061648    1.352339
     66          1           0        2.223473    0.322969    0.791459
     67          6           0        2.652010    1.964734    2.084830
     68          6           0        0.740714    1.859186    0.395249
     69          1           0        0.292178    2.690281    0.948287
     70          1           0       -0.077455    1.198008    0.079868
     71          8           0        2.652272    3.193638    1.958309
     72          6           0        1.461744    2.385621   -0.825865
     73          6           0        1.461295    3.751913   -1.126176
     74          1           0        0.986405    4.445495   -0.438252
     75          6           0        2.119263    1.518562   -1.710175
     76          1           0        2.152282    0.451625   -1.501281
     77          6           0        2.054025    4.241749   -2.289280
     78          1           0        2.032483    5.301945   -2.515293
     79          6           0        2.745729    1.993095   -2.860259
     80          1           0        3.264422    1.322527   -3.538614
     81          8           0        3.210553    3.762205   -4.371361
     82          6           0        2.692852    3.357365   -3.169393
     83          7           0        3.526041    1.278428    2.848340
     84          1           0        3.463129    0.261287    2.850232
     85          6           0        4.542643    1.922327    3.682605
     86          1           0        4.111394    2.866910    4.034051
     87          6           0        5.795500    2.250700    2.836673
     88          6           0        4.898164    1.023307    4.860912
     89          1           0        5.630570    1.518132    5.503012
     90          1           0        4.001673    0.797567    5.447316
     91          1           0        5.351482    0.091759    4.509108
     92          8           0        6.860289    1.668634    2.991911
     93          7           0        5.592118    3.224606    1.900900
     94          1           0        4.675122    3.659957    1.851862
     95          6           0        6.678310    3.704712    1.072928
     96          1           0        7.444983    2.920184    1.110302
     97          6           0        7.367084    4.949819    1.650945
     98          6           0        6.279379    3.941873   -0.391023
     99          1           0        5.889261    3.003641   -0.801368
    100          1           0        7.198955    4.183919   -0.934082
    101          8           0        7.943363    5.781108    0.980760
    102          6           0        5.259924    5.073491   -0.599017
    103          1           0        5.538341    5.926026    0.034587
    104          1           0        4.251794    4.755497   -0.307023
    105          6           0        5.250044    5.541400   -2.055274
    106          1           0        4.884594    4.752160   -2.711228
    107          1           0        6.275777    5.779798   -2.372404
    108          7           0        4.396672    6.723123   -2.212643
    109          1           0        4.484650    7.415416   -1.480182
    110          7           0        3.676107    6.363191   -4.394430
    111          1           0        3.451111    6.855108   -5.255744
    112          1           0        3.414704    4.776011   -4.363684
    113          7           0        3.692348    8.545370   -3.448436
    114          1           0        3.385569    8.922117   -4.335300
    115          1           0        4.355822    9.146473   -2.974539
    116          6           0        3.939386    7.181105   -3.414544
    117          8           0        7.297816    5.005952    2.995814
    118          1           0        7.816908    5.786915    3.266606
 ---------------------------------------------------------------------

 SCF Done:  E(RB3LYP) =  -2837.82681577     A.U. after    1 cycles

 Alpha  occ. eigenvalues --  -19.26155 -19.25537 -19.25188 -19.23894 -19.23064
 Alpha  occ. eigenvalues --  -19.22041 -19.21183 -19.19850 -19.19252 -19.16867
 Alpha  occ. eigenvalues --  -19.16561 -14.57151 -14.48411 -14.46905 -14.46120
 Alpha  occ. eigenvalues --  -14.44825 -14.44571 -14.44122 -14.42726 -14.41166
 Alpha  occ. eigenvalues --  -14.41031 -14.39399 -10.42250 -10.39878 -10.39171
 Alpha  occ. eigenvalues --  -10.38925 -10.38482 -10.37845 -10.37716 -10.36567
 Alpha  occ. eigenvalues --  -10.36007 -10.34535 -10.34273 -10.33881 -10.33579
 Alpha  occ. eigenvalues --  -10.32598 -10.32578 -10.31798 -10.29682 -10.29478
 Alpha  occ. eigenvalues --  -10.29469 -10.28667 -10.28014 -10.27866 -10.27679
 Alpha  occ. eigenvalues --  -10.27478 -10.27375 -10.27031 -10.26707 -10.26625
 Alpha  occ. eigenvalues --  -10.26270 -10.26226 -10.26195 -10.25707 -10.25671
 Alpha  occ. eigenvalues --  -10.25484 -10.24676 -10.23872  -1.17709  -1.16487
 Alpha  occ. eigenvalues --   -1.15143  -1.14537  -1.13719  -1.12768  -1.11781
 Alpha  occ. eigenvalues --   -1.10735  -1.10514  -1.08713  -1.08479  -1.07634
 Alpha  occ. eigenvalues --   -1.07388  -1.05056  -1.03289  -1.02705  -1.01326
 Alpha  occ. eigenvalues --   -0.99322  -0.98249  -0.97890  -0.95779  -0.94346
 Alpha  occ. eigenvalues --   -0.93457  -0.91785  -0.89643  -0.88837  -0.87050
 Alpha  occ. eigenvalues --   -0.86615  -0.86303  -0.83818  -0.83561  -0.82819
 Alpha  occ. eigenvalues --   -0.81645  -0.81318  -0.80728  -0.79384  -0.79140
 Alpha  occ. eigenvalues --   -0.76192  -0.74920  -0.74245  -0.74132  -0.72354
 Alpha  occ. eigenvalues --   -0.71737  -0.71682  -0.71189  -0.70535  -0.69760
 Alpha  occ. eigenvalues --   -0.69736  -0.69476  -0.69233  -0.68638  -0.67878
 Alpha  occ. eigenvalues --   -0.66948  -0.66251  -0.65759  -0.65690  -0.64877
 Alpha  occ. eigenvalues --   -0.64403  -0.64020  -0.63682  -0.63344  -0.62993
 Alpha  occ. eigenvalues --   -0.62352  -0.62042  -0.61235  -0.61112  -0.60193
 Alpha  occ. eigenvalues --   -0.59904  -0.59451  -0.59110  -0.58523  -0.57927
 Alpha  occ. eigenvalues --   -0.57386  -0.57326  -0.56986  -0.56278  -0.55910
 Alpha  occ. eigenvalues --   -0.55504  -0.55348  -0.55056  -0.54861  -0.54591
 Alpha  occ. eigenvalues --   -0.54525  -0.53974  -0.53839  -0.53758  -0.53496
 Alpha  occ. eigenvalues --   -0.53236  -0.52447  -0.52402  -0.52346  -0.51958
 Alpha  occ. eigenvalues --   -0.51598  -0.51415  -0.50913  -0.50610  -0.50504
 Alpha  occ. eigenvalues --   -0.50183  -0.50046  -0.49774  -0.49571  -0.49439
 Alpha  occ. eigenvalues --   -0.48957  -0.48620  -0.48452  -0.47943  -0.47903
 Alpha  occ. eigenvalues --   -0.47628  -0.47344  -0.47265  -0.47163  -0.46993
 Alpha  occ. eigenvalues --   -0.46706  -0.46532  -0.46362  -0.45984  -0.45940
 Alpha  occ. eigenvalues --   -0.45671  -0.45296  -0.45065  -0.44901  -0.44688
 Alpha  occ. eigenvalues --   -0.44251  -0.44146  -0.43969  -0.43755  -0.43714
 Alpha  occ. eigenvalues --   -0.43494  -0.43235  -0.42792  -0.42341  -0.41994
 Alpha  occ. eigenvalues --   -0.41789  -0.41367  -0.41196  -0.41128  -0.41067
 Alpha  occ. eigenvalues --   -0.40980  -0.40605  -0.40448  -0.39610  -0.38874
 Alpha  occ. eigenvalues --   -0.38151  -0.37982  -0.37610  -0.37511  -0.36932
 Alpha  occ. eigenvalues --   -0.36041  -0.35777  -0.35222  -0.35097  -0.34732
 Alpha  occ. eigenvalues --   -0.34160  -0.33843  -0.33407  -0.32128  -0.32122
 Alpha  occ. eigenvalues --   -0.32095  -0.30494  -0.30218  -0.29893  -0.29484
 Alpha virt. eigenvalues --   -0.11057  -0.09899  -0.08925  -0.08392  -0.07920
 Alpha virt. eigenvalues --   -0.07488  -0.06673  -0.05551  -0.05190  -0.04971
 Alpha virt. eigenvalues --   -0.03202  -0.02738  -0.02719  -0.02642  -0.02201

 Mulliken charges:
               1
     1  N   -0.750073
     2  H    0.406511
     3  H    0.423104
     4  H    0.417422
     5  C   -0.127777
     6  H    0.203698
     7  C    0.642074
     8  C    0.120089
     9  H    0.187045
    10  O   -0.534612
    11  C   -0.481835
    12  H    0.178498
    13  H    0.166936
    14  H    0.184494
    15  O   -0.696473
    16  H    0.462786
    17  N   -0.587527
    18  H    0.368950
    19  C   -0.095148
    20  H    0.185180
    21  C    0.651966
    22  C   -0.072980
    23  H    0.141345
    24  O   -0.549188
    25  C   -0.274064
    26  H    0.159831
    27  H    0.129802
    28  C   -0.453335
    29  H    0.141007
    30  H    0.159496
    31  H    0.169899
    32  C   -0.452195
    33  H    0.161313
    34  H    0.155587
    35  H    0.151902
    36  N   -0.638762
    37  H    0.371345
    38  C   -0.023200
    39  H    0.199135
    40  C    0.626622
    41  C   -0.488785
    42  H    0.157200
    43  H    0.165237
    44  H    0.218793
    45  O   -0.552258
    46  N   -0.601086
    47  H    0.350777
    48  C   -0.067545
    49  H    0.188646
    50  C    0.614236
    51  C   -0.273552
    52  H    0.166379
    53  H    0.189891
    54  O   -0.534969
    55  C   -0.389514
    56  H    0.170329
    57  H    0.172022
    58  C    0.611304
    59  N   -0.749994
    60  H    0.339167
    61  H    0.351359
    62  O   -0.500774
    63  N   -0.604903
    64  H    0.373976
    65  C   -0.072997
    66  H    0.180330
    67  C    0.650582
    68  C   -0.391153
    69  H    0.176286
    70  H    0.145366
    71  O   -0.556192
    72  C    0.175130
    73  C   -0.182671
    74  H    0.148385
    75  C   -0.203746
    76  H    0.137672
    77  C   -0.192308
    78  H    0.148859
    79  C   -0.173059
    80  H    0.149954
    81  O   -0.747098
    82  C    0.319041
    83  N   -0.612276
    84  H    0.376876
    85  C   -0.064663
    86  H    0.178169
    87  C    0.632906
    88  C   -0.460873
    89  H    0.179317
    90  H    0.142973
    91  H    0.175405
    92  O   -0.511337
    93  N   -0.630820
    94  H    0.371989
    95  C   -0.062744
    96  H    0.216890
    97  C    0.595773
    98  C   -0.270723
    99  H    0.155778
   100  H    0.167542
   101  O   -0.473868
   102  C   -0.311838
   103  H    0.145251
   104  H    0.173641
   105  C   -0.123460
   106  H    0.182779
   107  H    0.164081
   108  N   -0.608497
   109  H    0.331661
   110  N   -0.753603
   111  H    0.291291
   112  H    0.478150
   113  N   -0.760098
   114  H    0.337527
   115  H    0.342970
   116  C    0.691613
   117  O   -0.551392
   118  H    0.416419
 Sum of Mulliken charges =   1.00000

 Dipole moment (field-independent basis, Debye):
    X=             -1.8552    Y=             19.0516    Z=            -13.6386  Tot=             23.5036
 Quadrupole moment (field-independent basis, Debye-Ang):
   XX=           -316.7895   YY=           -203.2745   ZZ=           -212.7511
   XY=             25.8097   XZ=             32.5825   YZ=            -88.9934

 Normal termination of Gaussian 16 at Mon Jun 27 03:08:31 2022.
