 Gaussian 16, Revision C.01,
 Gaussian 16:  ES64L-G16RevC.01  3-Jul-2019

 ----------------------------------------------------------------------
 # B3LYP/6-31G* empiricaldispersion=gd3 guess=read geom=check nosymm in
 tegral(ultrafinegrid)
 ----------------------------------------------------------------------

 ------------------------------------------------------
 Candidate Structure: Conf:747 Charge calc in gas phase
 ------------------------------------------------------
 Structure from the checkpoint file:  "conf-747.chk"
 Charge =  1 Multiplicity = 1

                          Input orientation:
 ---------------------------------------------------------------------
 Center     Atomic      Atomic             Coordinates (Angstroms)
 Number     Number       Type             X           Y           Z
 ---------------------------------------------------------------------
      1          7           0       -3.576789   -2.387734   -8.680117
      2          1           0       -4.580370   -2.281570   -8.847750
      3          1           0       -3.147301   -2.941711   -9.439352
      4          1           0       -3.156301   -1.427804   -8.562362
      5          6           0       -3.256853   -3.054534   -7.371019
      6          1           0       -4.096054   -3.691219   -7.079787
      7          6           0       -3.014038   -1.870206   -6.402820
      8          6           0       -1.964150   -3.896855   -7.590836
      9          1           0       -1.123620   -3.196039   -7.657727
     10          8           0       -2.768184   -0.767403   -6.914302
     11          6           0       -1.723463   -4.906208   -6.475684
     12          1           0       -1.591904   -4.423166   -5.502946
     13          1           0       -2.565689   -5.606018   -6.394260
     14          1           0       -0.818123   -5.477813   -6.698097
     15          8           0       -2.039444   -4.505832   -8.882695
     16          1           0       -2.425303   -5.393614   -8.796840
     17          7           0       -3.037098   -2.168924   -5.115797
     18          1           0       -3.195342   -3.119881   -4.778348
     19          6           0       -2.680329   -1.266331   -4.016921
     20          1           0       -1.931356   -0.552798   -4.367930
     21          6           0       -2.076177   -2.224567   -2.965039
     22          6           0       -3.955220   -0.511385   -3.522746
     23          1           0       -4.487079   -0.238606   -4.445920
     24          8           0       -2.378930   -3.430831   -3.012921
     25          6           0       -3.631431    0.794421   -2.778908
     26          1           0       -2.961338    0.578286   -1.942537
     27          1           0       -4.566105    1.154097   -2.329176
     28          6           0       -4.863914   -1.423895   -2.686518
     29          1           0       -4.408668   -1.644324   -1.714321
     30          1           0       -5.064430   -2.380112   -3.182306
     31          1           0       -5.823422   -0.930565   -2.501132
     32          6           0       -3.041192    1.899658   -3.659723
     33          1           0       -2.875593    2.806200   -3.068938
     34          1           0       -3.719948    2.149352   -4.484756
     35          1           0       -2.072030    1.613163   -4.076875
     36          7           0       -1.270156   -1.680167   -2.045921
     37          1           0       -0.874003   -0.722762   -2.231655
     38          6           0       -0.684656   -2.534866   -1.010174
     39          1           0       -1.455531   -3.259506   -0.733839
     40          6           0       -0.463769   -1.714141    0.280277
     41          6           0        0.529470   -3.309476   -1.539435
     42          1           0        0.960322   -3.948493   -0.761707
     43          1           0        1.307708   -2.632247   -1.910411
     44          1           0        0.205296   -3.942681   -2.369465
     45          8           0       -1.416058   -1.379927    0.973804
     46          7           0        0.831261   -1.433278    0.601722
     47          1           0        1.566675   -1.591065   -0.072378
     48          6           0        1.234524   -0.763828    1.829063
     49          1           0        0.318935   -0.540892    2.382966
     50          6           0        1.994168    0.510902    1.461491
     51          6           0        2.163947   -1.682590    2.652394
     52          1           0        2.925356   -2.088033    1.974149
     53          1           0        1.583551   -2.526612    3.034213
     54          8           0        2.905162    0.461000    0.633927
     55          6           0        2.867057   -0.981483    3.818267
     56          1           0        3.604133   -0.259708    3.449923
     57          1           0        2.133603   -0.432971    4.427804
     58          6           0        3.542207   -1.996339    4.749675
     59          7           0        4.729057   -1.583621    5.272858
     60          1           0        5.245500   -0.798851    4.881879
     61          1           0        5.220670   -2.241585    5.863181
     62          8           0        3.011876   -3.065500    5.020673
     63          7           0        1.678962    1.644502    2.148265
     64          1           0        0.809739    1.636944    2.665863
     65          6           0        2.215867    2.948370    1.759618
     66          1           0        2.721160    2.784324    0.805648
     67          6           0        3.360582    3.425148    2.662497
     68          6           0        1.080007    3.975443    1.480447
     69          1           0        1.554611    4.945242    1.300656
     70          1           0        0.444701    4.075593    2.370999
     71          8           0        4.048786    4.385328    2.326598
     72          6           0        0.324431    3.460372    0.275903
     73          6           0        0.763565    3.748208   -1.022488
     74          1           0        1.398369    4.617760   -1.191986
     75          6           0       -0.573520    2.388865    0.420994
     76          1           0       -1.021594    2.189332    1.393844
     77          6           0        0.472237    2.893436   -2.091801
     78          1           0        0.803117    3.126465   -3.102668
     79          6           0       -0.835804    1.506736   -0.615656
     80          1           0       -1.462470    0.643828   -0.426303
     81          8           0       -0.159429    0.688568   -2.770722
     82          6           0       -0.195125    1.655291   -1.873526
     83          7           0        3.603498    2.666130    3.766445
     84          1           0        3.072353    1.808795    3.852969
     85          6           0        4.896687    2.709978    4.449501
     86          1           0        5.222625    3.753202    4.435772
     87          6           0        5.875515    1.849517    3.619770
     88          6           0        4.775506    2.207474    5.883529
     89          1           0        5.746555    2.255844    6.384990
     90          1           0        4.064693    2.829093    6.435075
     91          1           0        4.439146    1.166711    5.913334
     92          8           0        6.041100    0.645317    3.835004
     93          7           0        6.475930    2.499579    2.591273
     94          1           0        6.322556    3.498310    2.496527
     95          6           0        7.542728    1.904725    1.807089
     96          1           0        7.760536    0.927874    2.247259
     97          6           0        8.781622    2.792155    1.928039
     98          6           0        7.196272    1.721916    0.311892
     99          1           0        8.090450    1.325734   -0.184546
    100          1           0        7.002738    2.710728   -0.127644
    101          8           0        8.775114    3.933422    2.327009
    102          6           0        5.995508    0.802637    0.058095
    103          1           0        5.084774    1.237729    0.477423
    104          1           0        6.130791   -0.155544    0.575316
    105          6           0        5.836755    0.557510   -1.454729
    106          1           0        6.679476   -0.034338   -1.826861
    107          1           0        5.862688    1.505242   -2.003402
    108          7           0        4.614395   -0.143383   -1.867340
    109          1           0        4.586049   -1.144182   -1.730869
    110          7           0        3.330732    1.787711   -1.915023
    111          1           0        2.397892    2.198411   -2.018125
    112          1           0        3.836922    2.161690   -1.123819
    113          7           0        2.406337   -0.227329   -2.609870
    114          1           0        1.431104    0.178655   -2.732120
    115          1           0        2.600393   -1.101716   -3.077476
    116          6           0        3.434914    0.464081   -2.109311
    117          8           0        9.883753    2.150279    1.487049
    118          1           0       10.629755    2.776203    1.560316
 ---------------------------------------------------------------------

 SCF Done:  E(RB3LYP) =  -2837.81783839     A.U. after    2 cycles

 Alpha  occ. eigenvalues --  -19.29895 -19.27285 -19.24872 -19.21640 -19.21057
 Alpha  occ. eigenvalues --  -19.20104 -19.19706 -19.19021 -19.17993 -19.15571
 Alpha  occ. eigenvalues --  -19.15512 -14.58563 -14.47670 -14.47547 -14.45417
 Alpha  occ. eigenvalues --  -14.45364 -14.45273 -14.43948 -14.43657 -14.43455
 Alpha  occ. eigenvalues --  -14.42138 -14.39432 -10.42823 -10.41892 -10.39623
 Alpha  occ. eigenvalues --  -10.39442 -10.39111 -10.37690 -10.36857 -10.36350
 Alpha  occ. eigenvalues --  -10.36229 -10.35696 -10.33505 -10.32621 -10.31818
 Alpha  occ. eigenvalues --  -10.31508 -10.31137 -10.30993 -10.30835 -10.30691
 Alpha  occ. eigenvalues --  -10.30297 -10.28745 -10.27916 -10.27382 -10.26526
 Alpha  occ. eigenvalues --  -10.26521 -10.26179 -10.25855 -10.25789 -10.24840
 Alpha  occ. eigenvalues --  -10.24548 -10.24277 -10.23984 -10.23795 -10.23415
 Alpha  occ. eigenvalues --  -10.23095 -10.22477 -10.21792  -1.18211  -1.18172
 Alpha  occ. eigenvalues --   -1.16612  -1.13026  -1.12327  -1.11868  -1.11365
 Alpha  occ. eigenvalues --   -1.11360  -1.10758  -1.10051  -1.09337  -1.07399
 Alpha  occ. eigenvalues --   -1.04305  -1.03361  -1.02054  -1.00950  -1.00704
 Alpha  occ. eigenvalues --   -0.99870  -0.99679  -0.99074  -0.98945  -0.94414
 Alpha  occ. eigenvalues --   -0.92408  -0.90184  -0.89043  -0.88378  -0.87281
 Alpha  occ. eigenvalues --   -0.85498  -0.84619  -0.84320  -0.83979  -0.82928
 Alpha  occ. eigenvalues --   -0.80446  -0.79642  -0.79250  -0.77835  -0.77515
 Alpha  occ. eigenvalues --   -0.77339  -0.76636  -0.73412  -0.73240  -0.73095
 Alpha  occ. eigenvalues --   -0.72970  -0.71573  -0.71482  -0.70874  -0.70243
 Alpha  occ. eigenvalues --   -0.69645  -0.68801  -0.68409  -0.67922  -0.67724
 Alpha  occ. eigenvalues --   -0.66516  -0.66304  -0.65885  -0.65814  -0.65482
 Alpha  occ. eigenvalues --   -0.64731  -0.64428  -0.64034  -0.63326  -0.62975
 Alpha  occ. eigenvalues --   -0.62374  -0.61895  -0.61429  -0.60284  -0.59761
 Alpha  occ. eigenvalues --   -0.58862  -0.58577  -0.58276  -0.57937  -0.57615
 Alpha  occ. eigenvalues --   -0.57480  -0.57123  -0.56968  -0.56902  -0.56002
 Alpha  occ. eigenvalues --   -0.55955  -0.55170  -0.55084  -0.54996  -0.54650
 Alpha  occ. eigenvalues --   -0.54355  -0.54045  -0.53501  -0.53070  -0.52900
 Alpha  occ. eigenvalues --   -0.52755  -0.52426  -0.52296  -0.51718  -0.51550
 Alpha  occ. eigenvalues --   -0.51163  -0.50775  -0.50419  -0.50190  -0.50062
 Alpha  occ. eigenvalues --   -0.49822  -0.49627  -0.49558  -0.49275  -0.48840
 Alpha  occ. eigenvalues --   -0.48668  -0.48431  -0.48278  -0.48086  -0.47963
 Alpha  occ. eigenvalues --   -0.47269  -0.47156  -0.47127  -0.46724  -0.46158
 Alpha  occ. eigenvalues --   -0.46039  -0.45839  -0.45745  -0.45598  -0.45518
 Alpha  occ. eigenvalues --   -0.45265  -0.45083  -0.44724  -0.44586  -0.44435
 Alpha  occ. eigenvalues --   -0.44158  -0.43868  -0.43532  -0.43353  -0.43282
 Alpha  occ. eigenvalues --   -0.43182  -0.42716  -0.42468  -0.42275  -0.42095
 Alpha  occ. eigenvalues --   -0.41944  -0.41571  -0.40570  -0.40085  -0.39850
 Alpha  occ. eigenvalues --   -0.39795  -0.39368  -0.39140  -0.38823  -0.38149
 Alpha  occ. eigenvalues --   -0.37942  -0.36829  -0.36251  -0.36229  -0.35736
 Alpha  occ. eigenvalues --   -0.35639  -0.35133  -0.35083  -0.33962  -0.33656
 Alpha  occ. eigenvalues --   -0.33110  -0.32649  -0.32164  -0.31787  -0.31192
 Alpha  occ. eigenvalues --   -0.31052  -0.30195  -0.29847  -0.29437  -0.24772
 Alpha virt. eigenvalues --   -0.10874  -0.09444  -0.08619  -0.07256  -0.07092
 Alpha virt. eigenvalues --   -0.06609  -0.06117  -0.05569  -0.05194  -0.04999
 Alpha virt. eigenvalues --   -0.04601  -0.04100  -0.03734  -0.03570  -0.02211

 Mulliken charges:
               1
     1  N   -0.747276
     2  H    0.413150
     3  H    0.422003
     4  H    0.425320
     5  C   -0.141294
     6  H    0.200283
     7  C    0.649101
     8  C    0.127661
     9  H    0.188667
    10  O   -0.540116
    11  C   -0.509840
    12  H    0.206200
    13  H    0.164236
    14  H    0.199140
    15  O   -0.628074
    16  H    0.420364
    17  N   -0.599254
    18  H    0.370746
    19  C   -0.093745
    20  H    0.210562
    21  C    0.627844
    22  C   -0.065324
    23  H    0.132457
    24  O   -0.582853
    25  C   -0.267559
    26  H    0.160156
    27  H    0.141318
    28  C   -0.468210
    29  H    0.176074
    30  H    0.133144
    31  H    0.157737
    32  C   -0.464509
    33  H    0.158767
    34  H    0.131725
    35  H    0.173455
    36  N   -0.648396
    37  H    0.421189
    38  C   -0.036706
    39  H    0.203908
    40  C    0.603208
    41  C   -0.479797
    42  H    0.170560
    43  H    0.114434
    44  H    0.177698
    45  O   -0.514394
    46  N   -0.598763
    47  H    0.336360
    48  C   -0.062131
    49  H    0.182571
    50  C    0.641573
    51  C   -0.252638
    52  H    0.139553
    53  H    0.199697
    54  O   -0.558914
    55  C   -0.408535
    56  H    0.160262
    57  H    0.161431
    58  C    0.593480
    59  N   -0.787236
    60  H    0.397173
    61  H    0.338020
    62  O   -0.506119
    63  N   -0.631547
    64  H    0.344575
    65  C   -0.034128
    66  H    0.177823
    67  C    0.613484
    68  C   -0.378243
    69  H    0.185711
    70  H    0.152003
    71  O   -0.535948
    72  C    0.156229
    73  C   -0.189976
    74  H    0.131831
    75  C   -0.208389
    76  H    0.118114
    77  C   -0.280947
    78  H    0.136307
    79  C   -0.217574
    80  H    0.166318
    81  O   -0.735832
    82  C    0.426643
    83  N   -0.603409
    84  H    0.355181
    85  C   -0.062373
    86  H    0.190611
    87  C    0.628420
    88  C   -0.468180
    89  H    0.173769
    90  H    0.171149
    91  H    0.167877
    92  O   -0.543493
    93  N   -0.586122
    94  H    0.370313
    95  C   -0.059697
    96  H    0.208171
    97  C    0.585597
    98  C   -0.281756
    99  H    0.171239
   100  H    0.153373
   101  O   -0.448825
   102  C   -0.281066
   103  H    0.184276
   104  H    0.159185
   105  C   -0.169763
   106  H    0.177127
   107  H    0.183397
   108  N   -0.595184
   109  H    0.345412
   110  N   -0.761561
   111  H    0.384527
   112  H    0.371872
   113  N   -0.820123
   114  H    0.436099
   115  H    0.343225
   116  C    0.792998
   117  O   -0.563309
   118  H    0.425043
 Sum of Mulliken charges =   1.00000

 Dipole moment (field-independent basis, Debye):
    X=              2.8879    Y=             -9.0043    Z=            -26.9773  Tot=             28.5866
 Quadrupole moment (field-independent basis, Debye-Ang):
   XX=           -202.7759   YY=           -312.9067   ZZ=           -106.4848
   XY=             43.3083   XZ=             97.4276   YZ=            119.3468

 Normal termination of Gaussian 16 at Mon Jun 27 03:09:10 2022.
