 Gaussian 16, Revision C.01,
 Gaussian 16:  ES64L-G16RevC.01  3-Jul-2019

 ----------------------------------------------------------------------
 # B3LYP/6-31G* empiricaldispersion=gd3bj guess=read geom=check nosymm
 integral(ultrafinegrid)
 ----------------------------------------------------------------------

 ------------------------------------------------------
 Candidate Structure: Conf:797 Charge calc in gas phase
 ------------------------------------------------------
 Structure from the checkpoint file:  "conf-797.chk"
 Charge =  1 Multiplicity = 1

                          Input orientation:
 ---------------------------------------------------------------------
 Center     Atomic      Atomic             Coordinates (Angstroms)
 Number     Number       Type             X           Y           Z
 ---------------------------------------------------------------------
      1          7           0       -1.367213   -0.053188    4.459622
      2          1           0       -1.935093   -0.827286    4.121075
      3          1           0        0.213774   -0.311104    3.990600
      4          1           0       -1.546597    0.074071    5.453106
      5          6           0       -1.646468    1.187635    3.723045
      6          1           0       -2.602239    1.644550    4.019488
      7          6           0       -1.729405    0.827768    2.243691
      8          6           0       -0.508889    2.197351    4.030243
      9          1           0       -0.883237    3.211869    3.846746
     10          1           0       -0.336877    2.140310    5.111579
     11          8           0       -1.409369   -0.296323    1.838877
     12          6           0        0.823156    2.074275    3.261698
     13          1           0        1.550738    2.728555    3.755508
     14          1           0        0.720313    2.501041    2.260211
     15          6           0        1.563656    0.752405    3.040577
     16          8           0        2.585238    0.778358    2.364792
     17          8           0        1.114350   -0.388169    3.529832
     18          7           0       -2.126452    1.765691    1.344271
     19          1           0       -2.210707    2.744738    1.585432
     20          6           0       -1.966489    1.371663   -0.049930
     21          1           0       -2.629716    0.525762   -0.242414
     22          6           0       -0.516281    0.904844   -0.196024
     23          6           0       -2.198702    2.465252   -1.110091
     24          1           0       -1.656434    3.380831   -0.841235
     25          1           0       -3.268993    2.689739   -1.175217
     26          8           0        0.439072    1.534037    0.137551
     27          6           0       -1.631264    1.894598   -2.384256
     28          6           0       -0.437620    2.264661   -2.965182
     29          1           0        0.206864    3.091510   -2.709128
     30          6           0       -2.026451    0.655095   -3.018165
     31          6           0       -1.013048    0.332962   -3.967090
     32          6           0       -3.086246   -0.252147   -2.823802
     33          1           0       -3.896748   -0.020710   -2.137535
     34          7           0       -0.085208    1.357687   -3.936663
     35          1           0        0.819673    1.324396   -4.382236
     36          6           0       -2.071498   -1.744370   -4.465088
     37          1           0       -2.108744   -2.680532   -5.012807
     38          6           0       -1.023889   -0.860667   -4.696866
     39          1           0       -0.239471   -1.091604   -5.410854
     40          6           0       -3.095144   -1.441433   -3.541890
     41          1           0       -3.908696   -2.146454   -3.402785
     42          7           0       -0.268836   -0.490277   -0.772220
     43          1           0       -0.069729   -0.386226   -1.788407
     44          6           0        0.969244   -1.097310   -0.174067
     45          1           0        0.958189   -0.901101    0.896479
     46          6           0        2.112553   -0.399869   -0.908737
     47          6           0        1.028304   -2.636992   -0.383115
     48          1           0        0.177118   -3.060418    0.164493
     49          8           0        1.968057   -0.127978   -2.107942
     50          6           0        0.970252   -3.085946   -1.842086
     51          1           0        0.042964   -2.774748   -2.339596
     52          1           0        1.018543   -4.177390   -1.872995
     53          1           0        1.806245   -2.678125   -2.417812
     54          8           0        2.168582   -3.111129    0.298565
     55          1           0        2.973377   -2.798114   -0.152426
     56          7           0        3.218007   -0.224502   -0.179286
     57          1           0        3.118157   -0.227754    0.840615
     58          6           0        4.417344    0.389347   -0.726569
     59          1           0        4.289841    0.388519   -1.815909
     60          6           0        5.638247   -0.480440   -0.435804
     61          6           0        4.596424    1.832448   -0.231062
     62          1           0        5.572840    2.190733   -0.571213
     63          1           0        4.614427    1.827439    0.865128
     64          8           0        6.764158   -0.063669   -0.320575
     65          6           0        3.462683    2.732718   -0.729525
     66          1           0        3.470990    2.760888   -1.828879
     67          1           0        2.501446    2.312439   -0.427639
     68          6           0        3.538335    4.163829   -0.189924
     69          1           0        3.504691    4.147326    0.902413
     70          1           0        4.482022    4.643488   -0.470960
     71          7           0        2.446909    5.013870   -0.686750
     72          1           0        2.479088    5.149649   -1.690470
     73          7           0        1.050624    4.711382    1.168839
     74          1           0        0.121268    4.972761    1.478725
     75          1           0        1.759083    5.201441    1.705045
     76          7           0        0.055636    5.047960   -0.885198
     77          1           0        0.247017    5.155802   -1.882295
     78          6           0        1.148723    4.924146   -0.209575
     79          8           0        5.320216   -1.798772   -0.367755
     80          1           0        6.157936   -2.275877   -0.211089
     81          1           0       -1.100976   -1.073264   -0.648361
 ---------------------------------------------------------------------

 SCF Done:  E(RB3LYP) =  -2054.09759103     A.U. after    1 cycles

 Alpha  occ. eigenvalues --  -19.30357 -19.28821 -19.26356 -19.26106 -19.24404
 Alpha  occ. eigenvalues --  -19.23463 -19.22855 -19.21666 -14.57285 -14.50352
 Alpha  occ. eigenvalues --  -14.48420 -14.46502 -14.46231 -14.44053 -14.43666
 Alpha  occ. eigenvalues --  -14.37957 -10.46289 -10.42831 -10.41004 -10.40796
 Alpha  occ. eigenvalues --  -10.40349 -10.37639 -10.37499 -10.36280 -10.36068
 Alpha  occ. eigenvalues --  -10.35773 -10.33343 -10.32651 -10.32497 -10.31747
 Alpha  occ. eigenvalues --  -10.31030 -10.30896 -10.29564 -10.29359 -10.29321
 Alpha  occ. eigenvalues --  -10.29242 -10.29192 -10.28584 -10.28449 -10.27711
 Alpha  occ. eigenvalues --  -10.27452 -10.26870  -1.22896  -1.19470  -1.18417
 Alpha  occ. eigenvalues --   -1.17712  -1.15702  -1.12354  -1.10865  -1.10565
 Alpha  occ. eigenvalues --   -1.09224  -1.08564  -1.06817  -1.06509  -1.03871
 Alpha  occ. eigenvalues --   -1.02946  -0.97893  -0.94654  -0.93559  -0.93373
 Alpha  occ. eigenvalues --   -0.90265  -0.90218  -0.88213  -0.87375  -0.84141
 Alpha  occ. eigenvalues --   -0.83993  -0.83229  -0.82230  -0.81514  -0.78841
 Alpha  occ. eigenvalues --   -0.76459  -0.76150  -0.74374  -0.72945  -0.72524
 Alpha  occ. eigenvalues --   -0.71884  -0.70843  -0.70592  -0.69866  -0.69650
 Alpha  occ. eigenvalues --   -0.69541  -0.68891  -0.68499  -0.67025  -0.66218
 Alpha  occ. eigenvalues --   -0.65143  -0.64169  -0.63996  -0.63683  -0.62565
 Alpha  occ. eigenvalues --   -0.61469  -0.61256  -0.59828  -0.59666  -0.59173
 Alpha  occ. eigenvalues --   -0.59095  -0.58610  -0.58027  -0.57687  -0.57602
 Alpha  occ. eigenvalues --   -0.57150  -0.56852  -0.56675  -0.55923  -0.55807
 Alpha  occ. eigenvalues --   -0.55256  -0.54564  -0.54195  -0.54005  -0.53419
 Alpha  occ. eigenvalues --   -0.53364  -0.53051  -0.52924  -0.52638  -0.52119
 Alpha  occ. eigenvalues --   -0.52076  -0.51591  -0.51191  -0.50818  -0.50435
 Alpha  occ. eigenvalues --   -0.50220  -0.49847  -0.49742  -0.49280  -0.48620
 Alpha  occ. eigenvalues --   -0.48197  -0.48085  -0.47756  -0.47439  -0.46795
 Alpha  occ. eigenvalues --   -0.46322  -0.46264  -0.45554  -0.45214  -0.44488
 Alpha  occ. eigenvalues --   -0.44065  -0.43599  -0.43482  -0.43092  -0.42772
 Alpha  occ. eigenvalues --   -0.42224  -0.40744  -0.40397  -0.40101  -0.39096
 Alpha  occ. eigenvalues --   -0.38404  -0.38218  -0.38145  -0.37602  -0.37223
 Alpha  occ. eigenvalues --   -0.36178  -0.35716  -0.35216  -0.34807  -0.32979
 Alpha  occ. eigenvalues --   -0.31456  -0.31045
 Alpha virt. eigenvalues --   -0.16807  -0.12105  -0.11739  -0.09607  -0.08360
 Alpha virt. eigenvalues --   -0.08101  -0.07652  -0.06679  -0.05864  -0.04911
 Alpha virt. eigenvalues --   -0.04540  -0.03368  -0.02978  -0.02617  -0.01714

 Mulliken charges:
               1
     1  N   -0.769866
     2  H    0.353204
     3  H    0.475853
     4  H    0.345683
     5  C   -0.090828
     6  H    0.179143
     7  C    0.647031
     8  C   -0.287839
     9  H    0.153512
    10  H    0.177352
    11  O   -0.547587
    12  C   -0.418750
    13  H    0.193194
    14  H    0.242765
    15  C    0.609313
    16  O   -0.511354
    17  O   -0.592054
    18  N   -0.606618
    19  H    0.358675
    20  C    0.002807
    21  H    0.178776
    22  C    0.592095
    23  C   -0.398135
    24  H    0.231615
    25  H    0.182676
    26  O   -0.379981
    27  C   -0.016399
    28  C    0.040332
    29  H    0.161300
    30  C    0.059741
    31  C    0.274729
    32  C   -0.238433
    33  H    0.143000
    34  N   -0.642870
    35  H    0.353586
    36  C   -0.155315
    37  H    0.157877
    38  C   -0.161324
    39  H    0.157655
    40  C   -0.143895
    41  H    0.152655
    42  N   -0.705941
    43  H    0.450856
    44  C   -0.118331
    45  H    0.244273
    46  C    0.639467
    47  C    0.120589
    48  H    0.164218
    49  O   -0.571214
    50  C   -0.491308
    51  H    0.144035
    52  H    0.191333
    53  H    0.178130
    54  O   -0.611632
    55  H    0.416587
    56  N   -0.598027
    57  H    0.397958
    58  C   -0.088796
    59  H    0.208752
    60  C    0.603709
    61  C   -0.271316
    62  H    0.178697
    63  H    0.176039
    64  O   -0.439475
    65  C   -0.295679
    66  H    0.124897
    67  H    0.196240
    68  C   -0.154853
    69  H    0.162382
    70  H    0.167761
    71  N   -0.580618
    72  H    0.317759
    73  N   -0.741158
    74  H    0.329288
    75  H    0.336905
    76  N   -0.664566
    77  H    0.275191
    78  C    0.585756
    79  O   -0.576452
    80  H    0.428693
    81  H    0.406526
 Sum of Mulliken charges =   1.00000

 Dipole moment (field-independent basis, Debye):
    X=             -2.6614    Y=              4.9508    Z=              1.5564  Tot=              5.8323
 Quadrupole moment (field-independent basis, Debye-Ang):
   XX=           -217.5018   YY=           -207.1345   ZZ=           -181.6164
   XY=              5.6945   XZ=            -25.9278   YZ=             20.8864

 Normal termination of Gaussian 16 at Fri Jul 15 03:34:58 2022.
