 Gaussian 16, Revision C.01,
 Gaussian 16:  ES64L-G16RevC.01  3-Jul-2019

 ----------------------------------------------------------------------
 # B3LYP/6-31G* empiricaldispersion=gd3bj guess=read geom=check nosymm
 integral(ultrafinegrid)
 ----------------------------------------------------------------------

 ------------------------------------------------------
 Candidate Structure: Conf:538 Charge calc in gas phase
 ------------------------------------------------------
 Structure from the checkpoint file:  "conf-538.chk"
 Charge =  1 Multiplicity = 1

                          Input orientation:
 ---------------------------------------------------------------------
 Center     Atomic      Atomic             Coordinates (Angstroms)
 Number     Number       Type             X           Y           Z
 ---------------------------------------------------------------------
      1          7           0       -3.874843   -0.063158    4.505962
      2          1           0       -4.797594   -0.504671    4.556378
      3          1           0       -3.210510   -0.723423    4.020931
      4          1           0       -3.552009    0.140693    5.455891
      5          6           0       -3.843615    1.155975    3.601997
      6          1           0       -4.860866    1.543580    3.513500
      7          6           0       -3.299473    0.591209    2.273388
      8          6           0       -2.879632    2.217884    4.161329
      9          1           0       -2.796085    3.005890    3.408854
     10          1           0       -3.315121    2.681679    5.051882
     11          8           0       -2.659528   -0.469858    2.318316
     12          6           0       -1.473097    1.671029    4.452581
     13          1           0       -1.177814    0.934008    3.708476
     14          1           0       -1.427578    1.179550    5.435392
     15          6           0       -0.453967    2.816518    4.493138
     16          8           0       -0.754705    3.906000    4.919945
     17          8           0        0.777833    2.508207    4.083252
     18          7           0       -3.479721    1.329492    1.174549
     19          1           0       -3.914429    2.238172    1.289998
     20          6           0       -2.511655    1.251059    0.066780
     21          1           0       -2.537313    0.238703   -0.343178
     22          6           0       -1.124894    1.561624    0.654898
     23          6           0       -2.852817    2.283173   -1.016292
     24          1           0       -1.912510    2.573767   -1.506801
     25          1           0       -3.191240    3.205957   -0.517753
     26          8           0       -1.003551    2.384214    1.559611
     27          6           0       -3.829343    1.810902   -2.048456
     28          6           0       -4.752173    0.794524   -1.972851
     29          1           0       -4.991906    0.131843   -1.152796
     30          6           0       -3.933592    2.362713   -3.378198
     31          6           0       -4.938632    1.626524   -4.062248
     32          6           0       -3.264288    3.401227   -4.050242
     33          1           0       -2.494196    3.976147   -3.544275
     34          7           0       -5.422252    0.682636   -3.177914
     35          1           0       -6.130737   -0.002952   -3.387832
     36          6           0       -4.598562    2.919027   -6.033410
     37          1           0       -4.841010    3.153229   -7.065500
     38          6           0       -5.281265    1.893050   -5.391772
     39          1           0       -6.050200    1.322219   -5.904124
     40          6           0       -3.600893    3.665628   -5.371088
     41          1           0       -3.095803    4.465541   -5.904325
     42          7           0       -0.096419    0.858722    0.127961
     43          1           0       -0.222065    0.309192   -0.718410
     44          6           0        1.288157    1.221571    0.391269
     45          1           0        1.318164    2.269318    0.702854
     46          6           0        2.063117    0.956154   -0.904842
     47          6           0        1.882184    0.326032    1.521817
     48          1           0        2.074274   -0.666433    1.092403
     49          8           0        1.723893    0.028406   -1.635731
     50          6           0        3.151346    0.899498    2.129445
     51          1           0        3.947729    0.982628    1.385466
     52          1           0        3.502960    0.247921    2.933862
     53          1           0        2.963118    1.893504    2.549983
     54          8           0        0.930311    0.172162    2.586189
     55          1           0        0.792257    1.646683    3.599038
     56          7           0        3.135211    1.749883   -1.124292
     57          1           0        3.414164    2.410910   -0.406961
     58          6           0        4.183086    1.436095   -2.089305
     59          1           0        4.172816    0.356138   -2.272825
     60          6           0        5.503705    1.799271   -1.421563
     61          6           0        4.004014    2.179394   -3.432832
     62          1           0        4.968359    2.225923   -3.947411
     63          1           0        3.726997    3.212371   -3.186769
     64          8           0        5.594186    2.381226   -0.359943
     65          6           0        2.948592    1.522863   -4.343650
     66          1           0        3.446116    0.825958   -5.028989
     67          1           0        2.248941    0.927071   -3.750743
     68          6           0        2.137208    2.537859   -5.157495
     69          1           0        2.788515    3.220538   -5.713593
     70          1           0        1.527885    2.013734   -5.897863
     71          7           0        1.258080    3.371714   -4.322968
     72          1           0        1.752114    4.102779   -3.826044
     73          7           0       -0.419692    1.766852   -4.167393
     74          1           0       -1.245861    1.485750   -3.653562
     75          1           0       -0.642648    1.954322   -5.138241
     76          7           0       -0.012902    3.098371   -2.313475
     77          1           0        0.666233    3.761381   -1.938464
     78          6           0        0.278540    2.779838   -3.532654
     79          8           0        6.557988    1.412754   -2.154982
     80          1           0        7.362939    1.691070   -1.677012
     81          1           0        0.108030   -0.155326    2.180937
 ---------------------------------------------------------------------

 SCF Done:  E(RB3LYP) =  -2054.09966527     A.U. after    3 cycles

 Alpha  occ. eigenvalues --  -19.28870 -19.28211 -19.25976 -19.24933 -19.23508
 Alpha  occ. eigenvalues --  -19.22089 -19.21159 -19.20009 -14.61264 -14.50537
 Alpha  occ. eigenvalues --  -14.46198 -14.45484 -14.45436 -14.42315 -14.41266
 Alpha  occ. eigenvalues --  -14.36597 -10.44538 -10.41499 -10.41403 -10.39178
 Alpha  occ. eigenvalues --  -10.39170 -10.38406 -10.35768 -10.34700 -10.33912
 Alpha  occ. eigenvalues --  -10.33171 -10.32940 -10.32716 -10.30892 -10.29784
 Alpha  occ. eigenvalues --  -10.29410 -10.29017 -10.27988 -10.27442 -10.26302
 Alpha  occ. eigenvalues --  -10.26043 -10.25670 -10.25487 -10.25369 -10.25252
 Alpha  occ. eigenvalues --  -10.25150 -10.24721  -1.20490  -1.20015  -1.16276
 Alpha  occ. eigenvalues --   -1.15262  -1.14464  -1.13175  -1.12714  -1.11091
 Alpha  occ. eigenvalues --   -1.08225  -1.07149  -1.05231  -1.05155  -1.02598
 Alpha  occ. eigenvalues --   -1.02176  -0.95971  -0.94687  -0.91918  -0.90926
 Alpha  occ. eigenvalues --   -0.90206  -0.88806  -0.86829  -0.86487  -0.84498
 Alpha  occ. eigenvalues --   -0.82476  -0.80497  -0.80257  -0.78848  -0.77712
 Alpha  occ. eigenvalues --   -0.75640  -0.75194  -0.74996  -0.73795  -0.72808
 Alpha  occ. eigenvalues --   -0.71572  -0.69921  -0.69339  -0.69120  -0.68523
 Alpha  occ. eigenvalues --   -0.67564  -0.67543  -0.67240  -0.66302  -0.66068
 Alpha  occ. eigenvalues --   -0.63820  -0.63727  -0.63481  -0.62249  -0.61986
 Alpha  occ. eigenvalues --   -0.61353  -0.60795  -0.60119  -0.59604  -0.59580
 Alpha  occ. eigenvalues --   -0.58324  -0.57404  -0.56898  -0.55815  -0.55618
 Alpha  occ. eigenvalues --   -0.55514  -0.55007  -0.54929  -0.54500  -0.54206
 Alpha  occ. eigenvalues --   -0.54139  -0.53604  -0.53006  -0.52410  -0.52128
 Alpha  occ. eigenvalues --   -0.51970  -0.51298  -0.51114  -0.50983  -0.50643
 Alpha  occ. eigenvalues --   -0.50329  -0.49850  -0.49657  -0.49369  -0.49078
 Alpha  occ. eigenvalues --   -0.48992  -0.48395  -0.48354  -0.47443  -0.47329
 Alpha  occ. eigenvalues --   -0.47125  -0.46946  -0.46833  -0.46410  -0.45744
 Alpha  occ. eigenvalues --   -0.44978  -0.44701  -0.43906  -0.43525  -0.42766
 Alpha  occ. eigenvalues --   -0.42330  -0.42281  -0.42060  -0.41774  -0.40994
 Alpha  occ. eigenvalues --   -0.40827  -0.40377  -0.40220  -0.39054  -0.37609
 Alpha  occ. eigenvalues --   -0.37183  -0.36635  -0.35847  -0.35124  -0.34893
 Alpha  occ. eigenvalues --   -0.34358  -0.34009  -0.33930  -0.32787  -0.30303
 Alpha  occ. eigenvalues --   -0.29335  -0.27513
 Alpha virt. eigenvalues --   -0.14052  -0.12027  -0.08863  -0.08391  -0.08025
 Alpha virt. eigenvalues --   -0.07668  -0.07128  -0.05718  -0.04860  -0.04393
 Alpha virt. eigenvalues --   -0.03385  -0.02918  -0.02473  -0.01682  -0.01094

 Mulliken charges:
               1
     1  N   -0.747113
     2  H    0.419524
     3  H    0.431894
     4  H    0.420279
     5  C   -0.137934
     6  H    0.213706
     7  C    0.659952
     8  C   -0.288020
     9  H    0.225776
    10  H    0.196581
    11  O   -0.544514
    12  C   -0.423563
    13  H    0.171828
    14  H    0.164407
    15  C    0.644902
    16  O   -0.452715
    17  O   -0.606180
    18  N   -0.573637
    19  H    0.357547
    20  C   -0.064937
    21  H    0.185080
    22  C    0.627207
    23  C   -0.434840
    24  H    0.260213
    25  H    0.154840
    26  O   -0.544730
    27  C    0.074214
    28  C   -0.004518
    29  H    0.141462
    30  C    0.049103
    31  C    0.319903
    32  C   -0.223084
    33  H    0.152502
    34  N   -0.695596
    35  H    0.335755
    36  C   -0.149425
    37  H    0.141431
    38  C   -0.160863
    39  H    0.137507
    40  C   -0.150393
    41  H    0.136166
    42  N   -0.626101
    43  H    0.367315
    44  C   -0.054262
    45  H    0.188699
    46  C    0.631237
    47  C    0.128212
    48  H    0.157893
    49  O   -0.531403
    50  C   -0.494383
    51  H    0.172261
    52  H    0.181503
    53  H    0.182751
    54  O   -0.652894
    55  H    0.467564
    56  N   -0.609349
    57  H    0.358966
    58  C   -0.056316
    59  H    0.209330
    60  C    0.584113
    61  C   -0.268296
    62  H    0.178557
    63  H    0.129176
    64  O   -0.464366
    65  C   -0.296074
    66  H    0.152086
    67  H    0.212173
    68  C   -0.160869
    69  H    0.160329
    70  H    0.163757
    71  N   -0.577332
    72  H    0.318458
    73  N   -0.727388
    74  H    0.343295
    75  H    0.339181
    76  N   -0.687037
    77  H    0.270726
    78  C    0.589314
    79  O   -0.552569
    80  H    0.430537
    81  H    0.421492
 Sum of Mulliken charges =   1.00000

 Dipole moment (field-independent basis, Debye):
    X=            -11.6583    Y=              0.6008    Z=              4.4334  Tot=             12.4873
 Quadrupole moment (field-independent basis, Debye-Ang):
   XX=           -111.4611   YY=           -251.2576   ZZ=           -154.0433
   XY=             14.2047   XZ=            -67.6943   YZ=            -35.8821

 Normal termination of Gaussian 16 at Fri Jul 15 03:35:15 2022.
