 Gaussian 16, Revision C.01,
 Gaussian 16:  ES64L-G16RevC.01  3-Jul-2019

 ----------------------------------------------------------------------
 # B3LYP/6-31G* empiricaldispersion=gd3bj guess=read geom=check nosymm
 integral(ultrafinegrid)
 ----------------------------------------------------------------------

 ------------------------------------------------------
 Candidate Structure: Conf:474 Charge calc in gas phase
 ------------------------------------------------------
 Structure from the checkpoint file:  "conf-474.chk"
 Charge =  1 Multiplicity = 1

                          Input orientation:
 ---------------------------------------------------------------------
 Center     Atomic      Atomic             Coordinates (Angstroms)
 Number     Number       Type             X           Y           Z
 ---------------------------------------------------------------------
      1          7           0       -1.459955    1.496272    4.174834
      2          1           0       -1.457895    2.101010    4.993967
      3          1           0       -1.722111    0.560852    4.480875
      4          1           0        0.004607    1.337669    3.209212
      5          6           0       -2.407565    1.993484    3.168845
      6          1           0       -3.411876    2.164948    3.584130
      7          6           0       -2.538295    0.918187    2.089878
      8          6           0       -1.911097    3.342162    2.552380
      9          1           0       -2.225589    3.399645    1.504365
     10          1           0       -2.416542    4.163028    3.070915
     11          8           0       -1.740702   -0.007946    1.987418
     12          6           0       -0.394091    3.630710    2.634349
     13          1           0       -0.081658    3.681507    3.682968
     14          1           0       -0.217479    4.611626    2.188937
     15          6           0        0.518340    2.649116    1.907786
     16          8           0        0.653867    1.441419    2.444643
     17          8           0        1.105223    2.946652    0.878813
     18          7           0       -3.578957    1.045957    1.205599
     19          1           0       -4.098260    1.914938    1.172982
     20          6           0       -3.455123    0.285010   -0.024107
     21          1           0       -3.211586   -0.738580    0.257178
     22          6           0       -2.277870    0.863350   -0.818458
     23          6           0       -4.700015    0.292613   -0.929963
     24          1           0       -5.046899    1.322916   -1.069512
     25          1           0       -5.501062   -0.267652   -0.434916
     26          8           0       -2.053953    2.031736   -0.956652
     27          6           0       -4.296203   -0.296713   -2.253083
     28          6           0       -4.213668    0.368617   -3.456532
     29          1           0       -4.539741    1.366677   -3.714016
     30          6           0       -3.694063   -1.595577   -2.457276
     31          6           0       -3.251124   -1.639319   -3.808910
     32          6           0       -3.422596   -2.696205   -1.618525
     33          1           0       -3.784375   -2.721628   -0.593927
     34          7           0       -3.599332   -0.434197   -4.390570
     35          1           0       -3.438529   -0.183526   -5.354759
     36          6           0       -2.279251   -3.789040   -3.475010
     37          1           0       -1.724331   -4.644640   -3.844955
     38          6           0       -2.548987   -2.729667   -4.331302
     39          1           0       -2.213799   -2.742403   -5.363785
     40          6           0       -2.714079   -3.775583   -2.134015
     41          1           0       -2.500034   -4.628716   -1.498320
     42          7           0       -1.278814   -0.107395   -1.365785
     43          1           0       -1.112162    0.091024   -2.391978
     44          6           0        0.095639    0.158981   -0.797924
     45          1           0        0.010543    0.648031    0.170322
     46          6           0        0.752618    1.014564   -1.881744
     47          6           0        0.875718   -1.178585   -0.663863
     48          1           0        1.881473   -0.889526   -0.331532
     49          8           0        0.320175    0.930312   -3.038573
     50          6           0        0.251244   -2.112642    0.363998
     51          1           0        0.118605   -1.610486    1.324773
     52          1           0        0.900479   -2.982695    0.489254
     53          1           0       -0.721769   -2.488270    0.024101
     54          8           0        0.912054   -1.837077   -1.910427
     55          1           0        1.619720   -1.428460   -2.446236
     56          7           0        1.862359    1.659979   -1.518595
     57          1           0        1.968533    1.922029   -0.537290
     58          6           0        2.813682    2.121945   -2.512254
     59          1           0        2.353017    2.859413   -3.178812
     60          6           0        3.222583    0.917124   -3.368352
     61          6           0        4.021140    2.748694   -1.786649
     62          1           0        4.504307    1.969751   -1.182180
     63          1           0        3.614998    3.489211   -1.084649
     64          8           0        3.118752   -0.247989   -3.037062
     65          6           0        5.047141    3.412954   -2.705769
     66          1           0        5.490387    2.675207   -3.379386
     67          1           0        4.553477    4.165349   -3.335248
     68          6           0        6.180068    4.073748   -1.908444
     69          1           0        5.791511    4.884121   -1.281112
     70          1           0        6.623588    3.339328   -1.229133
     71          7           0        7.236808    4.639628   -2.747213
     72          1           0        6.960436    5.500191   -3.205902
     73          7           0        8.282715    2.568368   -3.042247
     74          1           0        8.926618    2.074749   -3.651794
     75          1           0        8.654920    2.637084   -2.099735
     76          7           0        8.353674    4.074659   -4.801191
     77          1           0        7.947243    4.949456   -5.138601
     78          6           0        7.968630    3.810364   -3.608422
     79          8           0        3.743031    1.304859   -4.538121
     80          1           0        4.026833    0.502108   -5.017007
     81          1           0       -1.573340   -1.087870   -1.273367
 ---------------------------------------------------------------------

 SCF Done:  E(RB3LYP) =  -2054.09114602     A.U. after    2 cycles

 Alpha  occ. eigenvalues --  -19.30224 -19.29344 -19.27181 -19.25272 -19.24019
 Alpha  occ. eigenvalues --  -19.23923 -19.23296 -19.23157 -14.55535 -14.49417
 Alpha  occ. eigenvalues --  -14.48616 -14.46312 -14.46241 -14.40418 -14.39035
 Alpha  occ. eigenvalues --  -14.33432 -10.45802 -10.42023 -10.41913 -10.41484
 Alpha  occ. eigenvalues --  -10.40117 -10.37184 -10.35992 -10.35699 -10.34781
 Alpha  occ. eigenvalues --  -10.33690 -10.32997 -10.32809 -10.32341 -10.32230
 Alpha  occ. eigenvalues --  -10.31946 -10.30621 -10.29594 -10.29223 -10.29018
 Alpha  occ. eigenvalues --  -10.28830 -10.28753 -10.28440 -10.28189 -10.28086
 Alpha  occ. eigenvalues --  -10.26858 -10.25818  -1.22177  -1.20559  -1.18934
 Alpha  occ. eigenvalues --   -1.17419  -1.16156  -1.11631  -1.11415  -1.10478
 Alpha  occ. eigenvalues --   -1.09397  -1.08537  -1.06042  -1.03762  -1.02813
 Alpha  occ. eigenvalues --   -1.02634  -0.94532  -0.94002  -0.93225  -0.90409
 Alpha  occ. eigenvalues --   -0.90238  -0.89220  -0.87984  -0.87360  -0.83888
 Alpha  occ. eigenvalues --   -0.83440  -0.83119  -0.82247  -0.80971  -0.78932
 Alpha  occ. eigenvalues --   -0.75808  -0.75397  -0.73133  -0.72559  -0.72002
 Alpha  occ. eigenvalues --   -0.71375  -0.70792  -0.69700  -0.69502  -0.69318
 Alpha  occ. eigenvalues --   -0.68385  -0.67487  -0.66728  -0.66118  -0.65007
 Alpha  occ. eigenvalues --   -0.64759  -0.63912  -0.63528  -0.62686  -0.61852
 Alpha  occ. eigenvalues --   -0.61061  -0.61028  -0.59984  -0.59511  -0.59079
 Alpha  occ. eigenvalues --   -0.58705  -0.58565  -0.58081  -0.57467  -0.57293
 Alpha  occ. eigenvalues --   -0.56681  -0.56443  -0.56123  -0.55581  -0.55161
 Alpha  occ. eigenvalues --   -0.54740  -0.54053  -0.53700  -0.53569  -0.53183
 Alpha  occ. eigenvalues --   -0.53158  -0.52796  -0.52643  -0.52259  -0.51756
 Alpha  occ. eigenvalues --   -0.51040  -0.50980  -0.50558  -0.50055  -0.49933
 Alpha  occ. eigenvalues --   -0.49567  -0.49425  -0.48747  -0.48479  -0.48353
 Alpha  occ. eigenvalues --   -0.47848  -0.47694  -0.47192  -0.46980  -0.46329
 Alpha  occ. eigenvalues --   -0.46121  -0.45660  -0.45401  -0.45056  -0.43835
 Alpha  occ. eigenvalues --   -0.43472  -0.43410  -0.42831  -0.42481  -0.41988
 Alpha  occ. eigenvalues --   -0.41531  -0.40831  -0.40629  -0.39521  -0.38941
 Alpha  occ. eigenvalues --   -0.38661  -0.38157  -0.37898  -0.37890  -0.36994
 Alpha  occ. eigenvalues --   -0.36576  -0.36089  -0.32695  -0.31683  -0.31056
 Alpha  occ. eigenvalues --   -0.30702  -0.27776
 Alpha virt. eigenvalues --   -0.17007  -0.11935  -0.11571  -0.09770  -0.08890
 Alpha virt. eigenvalues --   -0.08745  -0.07888  -0.05268  -0.04540  -0.03842
 Alpha virt. eigenvalues --   -0.03029  -0.02069  -0.01359  -0.00952  -0.00345

 Mulliken charges:
               1
     1  N   -0.773073
     2  H    0.341841
     3  H    0.351075
     4  H    0.472926
     5  C   -0.067685
     6  H    0.174176
     7  C    0.610632
     8  C   -0.316992
     9  H    0.182559
    10  H    0.181375
    11  O   -0.512508
    12  C   -0.365645
    13  H    0.175404
    14  H    0.198107
    15  C    0.602715
    16  O   -0.586412
    17  O   -0.494423
    18  N   -0.590854
    19  H    0.347868
    20  C   -0.042401
    21  H    0.199210
    22  C    0.583550
    23  C   -0.354318
    24  H    0.169104
    25  H    0.194566
    26  O   -0.394513
    27  C    0.005933
    28  C    0.022299
    29  H    0.181579
    30  C    0.051828
    31  C    0.309741
    32  C   -0.272911
    33  H    0.146418
    34  N   -0.675248
    35  H    0.352268
    36  C   -0.140581
    37  H    0.159629
    38  C   -0.147552
    39  H    0.156059
    40  C   -0.122585
    41  H    0.154942
    42  N   -0.710795
    43  H    0.434912
    44  C   -0.117453
    45  H    0.236664
    46  C    0.661645
    47  C    0.096447
    48  H    0.171779
    49  O   -0.550652
    50  C   -0.470584
    51  H    0.190160
    52  H    0.186399
    53  H    0.141649
    54  O   -0.649462
    55  H    0.449993
    56  N   -0.636877
    57  H    0.389242
    58  C   -0.000413
    59  H    0.198965
    60  C    0.616302
    61  C   -0.323140
    62  H    0.164759
    63  H    0.172687
    64  O   -0.492459
    65  C   -0.271447
    66  H    0.187808
    67  H    0.139408
    68  C   -0.141367
    69  H    0.149993
    70  H    0.153913
    71  N   -0.576825
    72  H    0.312688
    73  N   -0.741363
    74  H    0.341048
    75  H    0.324940
    76  N   -0.622907
    77  H    0.266399
    78  C    0.538497
    79  O   -0.542345
    80  H    0.430226
    81  H    0.423460
 Sum of Mulliken charges =   1.00000

 Dipole moment (field-independent basis, Debye):
    X=             -8.7751    Y=              5.8999    Z=              0.8993  Tot=             10.6123
 Quadrupole moment (field-independent basis, Debye-Ang):
   XX=           -194.2938   YY=           -206.9700   ZZ=           -179.8776
   XY=             -7.1343   XZ=              6.2876   YZ=             21.5194

 Normal termination of Gaussian 16 at Fri Jul 15 03:34:58 2022.
