 Gaussian 16, Revision C.01,
 Gaussian 16:  ES64L-G16RevC.01  3-Jul-2019

 ----------------------------------------------------------------------
 # B3LYP/6-31G* empiricaldispersion=gd3bj guess=read geom=check nosymm
 integral(ultrafinegrid)
 ----------------------------------------------------------------------

 ------------------------------------------------------
 Candidate Structure: Conf:102 Charge calc in gas phase
 ------------------------------------------------------
 Structure from the checkpoint file:  "conf-102.chk"
 Charge =  1 Multiplicity = 1

                          Input orientation:
 ---------------------------------------------------------------------
 Center     Atomic      Atomic             Coordinates (Angstroms)
 Number     Number       Type             X           Y           Z
 ---------------------------------------------------------------------
      1          7           0       -3.115489   -0.213350    3.814050
      2          1           0       -3.811818   -0.091792    4.552070
      3          1           0       -2.839160   -1.203577    3.700959
      4          1           0       -2.228966    0.306236    4.021902
      5          6           0       -3.577299    0.276442    2.465126
      6          1           0       -4.627854   -0.015417    2.372477
      7          6           0       -2.741067   -0.553649    1.464465
      8          6           0       -3.469120    1.818444    2.365308
      9          1           0       -4.249131    2.153252    1.672493
     10          1           0       -3.756246    2.228398    3.341608
     11          8           0       -2.023345   -1.469103    1.897511
     12          6           0       -2.157929    2.462932    1.875091
     13          1           0       -2.240724    3.545593    2.018526
     14          1           0       -2.054616    2.333948    0.793880
     15          6           0       -0.811455    2.035525    2.424894
     16          8           0        0.231920    2.453616    1.990651
     17          8           0       -0.853514    1.083126    3.401364
     18          7           0       -2.875360   -0.217247    0.184674
     19          1           0       -3.480643    0.557340   -0.078660
     20          6           0       -2.012263   -0.745006   -0.883276
     21          1           0       -1.923273   -1.821197   -0.715595
     22          6           0       -0.661216   -0.037866   -0.658388
     23          6           0       -2.599783   -0.453758   -2.302439
     24          1           0       -2.618741   -1.399571   -2.851114
     25          1           0       -1.903907    0.206441   -2.829449
     26          8           0       -0.509330    1.141885   -0.973297
     27          6           0       -3.969561    0.152551   -2.297581
     28          6           0       -5.162989   -0.468356   -2.578951
     29          1           0       -5.350802   -1.476432   -2.922227
     30          6           0       -4.297015    1.499734   -1.885052
     31          6           0       -5.715365    1.618275   -1.924920
     32          6           0       -3.523538    2.602971   -1.471453
     33          1           0       -2.439084    2.540051   -1.477158
     34          7           0       -6.210502    0.403898   -2.357016
     35          1           0       -7.178222    0.211389   -2.567882
     36          6           0       -5.586425    3.861122   -1.127762
     37          1           0       -6.066761    4.790000   -0.836318
     38          6           0       -6.372262    2.794425   -1.551054
     39          1           0       -7.454356    2.876255   -1.592039
     40          6           0       -4.179016    3.768833   -1.090505
     41          1           0       -3.598377    4.634210   -0.784961
     42          7           0        0.258903   -0.750266    0.031086
     43          1           0        0.138332   -1.752063    0.112063
     44          6           0        1.497900   -0.148199    0.537087
     45          1           0        1.272689    0.904543    0.716820
     46          6           0        2.571870   -0.283628   -0.557653
     47          6           0        1.899874   -0.809856    1.859916
     48          1           0        2.188825   -1.849955    1.667739
     49          8           0        3.383548   -1.202408   -0.565564
     50          6           0        3.041955   -0.070551    2.530681
     51          1           0        3.932260   -0.116781    1.899048
     52          1           0        3.273598   -0.535210    3.492676
     53          1           0        2.772794    0.977967    2.697570
     54          8           0        0.780207   -0.813279    2.781817
     55          1           0       -0.002266    0.534279    3.341940
     56          7           0        2.439598    0.662722   -1.517889
     57          1           0        1.669509    1.318591   -1.432014
     58          6           0        3.098241    0.586335   -2.810315
     59          1           0        3.930102   -0.114761   -2.714653
     60          6           0        3.680550    1.924264   -3.242922
     61          6           0        2.105418    0.097396   -3.889445
     62          1           0        2.519795    0.314779   -4.878009
     63          1           0        1.186108    0.689006   -3.797532
     64          8           0        4.535489    2.040306   -4.087594
     65          6           0        1.794000   -1.399760   -3.761371
     66          1           0        2.636720   -1.979237   -4.160670
     67          1           0        1.709750   -1.685496   -2.705383
     68          6           0        0.492171   -1.809254   -4.467196
     69          1           0        0.388115   -2.900702   -4.443302
     70          1           0       -0.358598   -1.388693   -3.927051
     71          7           0        0.379980   -1.363955   -5.857365
     72          1           0        1.162123   -1.649852   -6.435975
     73          7           0       -1.175286    0.332977   -5.410200
     74          1           0       -1.514531    1.214904   -5.782715
     75          1           0       -1.921813   -0.357240   -5.401813
     76          7           0        0.381553    0.704073   -7.085312
     77          1           0        1.254468    0.353450   -7.484771
     78          6           0       -0.072798   -0.082621   -6.183540
     79          8           0        3.081941    2.973522   -2.632600
     80          1           0        3.482544    3.778507   -3.012846
     81          1           0        0.020830   -1.257268    2.359133
 ---------------------------------------------------------------------

 SCF Done:  E(RB3LYP) =  -2054.10423708     A.U. after    3 cycles

 Alpha  occ. eigenvalues --  -19.31194 -19.28134 -19.27335 -19.26584 -19.25436
 Alpha  occ. eigenvalues --  -19.23940 -19.20407 -19.19771 -14.59546 -14.51234
 Alpha  occ. eigenvalues --  -14.48673 -14.48316 -14.43838 -14.41420 -14.40642
 Alpha  occ. eigenvalues --  -14.34663 -10.45132 -10.44095 -10.41831 -10.40964
 Alpha  occ. eigenvalues --  -10.38706 -10.37146 -10.36579 -10.35352 -10.34385
 Alpha  occ. eigenvalues --  -10.34078 -10.32780 -10.32780 -10.32461 -10.32232
 Alpha  occ. eigenvalues --  -10.30963 -10.30458 -10.29392 -10.28927 -10.28892
 Alpha  occ. eigenvalues --  -10.28794 -10.28405 -10.28340 -10.28054 -10.26196
 Alpha  occ. eigenvalues --  -10.26051 -10.26006  -1.21928  -1.20232  -1.17321
 Alpha  occ. eigenvalues --   -1.16029  -1.14521  -1.14093  -1.12689  -1.11667
 Alpha  occ. eigenvalues --   -1.08357  -1.08273  -1.07879  -1.04454  -1.03750
 Alpha  occ. eigenvalues --   -1.00879  -0.95502  -0.95176  -0.93998  -0.91794
 Alpha  occ. eigenvalues --   -0.90468  -0.89296  -0.88222  -0.86725  -0.86338
 Alpha  occ. eigenvalues --   -0.83555  -0.82587  -0.82026  -0.80235  -0.80040
 Alpha  occ. eigenvalues --   -0.77125  -0.75445  -0.74715  -0.74442  -0.73352
 Alpha  occ. eigenvalues --   -0.72264  -0.71732  -0.71284  -0.69830  -0.69092
 Alpha  occ. eigenvalues --   -0.68321  -0.67868  -0.67150  -0.66823  -0.66400
 Alpha  occ. eigenvalues --   -0.65627  -0.64482  -0.64092  -0.63572  -0.62452
 Alpha  occ. eigenvalues --   -0.61669  -0.61272  -0.60842  -0.60645  -0.59923
 Alpha  occ. eigenvalues --   -0.59550  -0.59283  -0.58482  -0.57670  -0.57227
 Alpha  occ. eigenvalues --   -0.56644  -0.56000  -0.55266  -0.54875  -0.54641
 Alpha  occ. eigenvalues --   -0.54391  -0.54261  -0.53910  -0.53467  -0.53156
 Alpha  occ. eigenvalues --   -0.52681  -0.52505  -0.52290  -0.52223  -0.51572
 Alpha  occ. eigenvalues --   -0.51252  -0.51074  -0.50979  -0.50510  -0.50226
 Alpha  occ. eigenvalues --   -0.49988  -0.49675  -0.49120  -0.48651  -0.48141
 Alpha  occ. eigenvalues --   -0.47841  -0.47709  -0.47166  -0.46566  -0.46381
 Alpha  occ. eigenvalues --   -0.46010  -0.45314  -0.45029  -0.44341  -0.43926
 Alpha  occ. eigenvalues --   -0.43555  -0.43453  -0.43380  -0.43259  -0.42430
 Alpha  occ. eigenvalues --   -0.41991  -0.41789  -0.40979  -0.39839  -0.38766
 Alpha  occ. eigenvalues --   -0.38356  -0.38288  -0.37780  -0.37141  -0.35578
 Alpha  occ. eigenvalues --   -0.33192  -0.32911  -0.32599  -0.32109  -0.32017
 Alpha  occ. eigenvalues --   -0.30673  -0.28875
 Alpha virt. eigenvalues --   -0.14575  -0.11903  -0.10948  -0.10545  -0.09964
 Alpha virt. eigenvalues --   -0.07979  -0.06658  -0.05784  -0.05509  -0.04770
 Alpha virt. eigenvalues --   -0.04012  -0.03675  -0.03035  -0.01957  -0.01397

 Mulliken charges:
               1
     1  N   -0.750123
     2  H    0.406730
     3  H    0.418459
     4  H    0.445022
     5  C   -0.126399
     6  H    0.227613
     7  C    0.659830
     8  C   -0.320467
     9  H    0.210906
    10  H    0.180066
    11  O   -0.566767
    12  C   -0.394780
    13  H    0.218732
    14  H    0.229046
    15  C    0.618028
    16  O   -0.425911
    17  O   -0.671801
    18  N   -0.604769
    19  H    0.380521
    20  C   -0.033867
    21  H    0.178316
    22  C    0.615926
    23  C   -0.414942
    24  H    0.165747
    25  H    0.233304
    26  O   -0.520838
    27  C    0.045603
    28  C    0.011295
    29  H    0.171622
    30  C   -0.001456
    31  C    0.324557
    32  C   -0.252437
    33  H    0.194331
    34  N   -0.683455
    35  H    0.346616
    36  C   -0.154479
    37  H    0.151686
    38  C   -0.162516
    39  H    0.149726
    40  C   -0.152296
    41  H    0.146345
    42  N   -0.617335
    43  H    0.347805
    44  C   -0.111954
    45  H    0.226926
    46  C    0.645286
    47  C    0.109391
    48  H    0.169297
    49  O   -0.528832
    50  C   -0.479601
    51  H    0.196687
    52  H    0.175584
    53  H    0.170616
    54  O   -0.687919
    55  H    0.466156
    56  N   -0.598427
    57  H    0.372189
    58  C   -0.075307
    59  H    0.212869
    60  C    0.594187
    61  C   -0.280537
    62  H    0.176936
    63  H    0.168869
    64  O   -0.448084
    65  C   -0.274701
    66  H    0.155885
    67  H    0.139027
    68  C   -0.164927
    69  H    0.151317
    70  H    0.155005
    71  N   -0.573432
    72  H    0.317464
    73  N   -0.746617
    74  H    0.342573
    75  H    0.320162
    76  N   -0.619674
    77  H    0.273597
    78  C    0.541635
    79  O   -0.571075
    80  H    0.422292
    81  H    0.433940
 Sum of Mulliken charges =   1.00000

 Dipole moment (field-independent basis, Debye):
    X=            -20.1782    Y=             -1.2660    Z=              8.6381  Tot=             21.9859
 Quadrupole moment (field-independent basis, Debye-Ang):
   XX=           -151.5071   YY=           -224.6658   ZZ=           -199.8245
   XY=             -5.5075   XZ=            -19.6489   YZ=             17.8430

 Normal termination of Gaussian 16 at Fri Jul 15 03:35:22 2022.
