 Gaussian 16, Revision C.01,
 Gaussian 16:  ES64L-G16RevC.01  3-Jul-2019

 ----------------------------------------------------------------------
 # B3LYP/6-31G* empiricaldispersion=gd3bj guess=read geom=check nosymm
 integral(ultrafinegrid)
 ----------------------------------------------------------------------

 ------------------------------------------------------
 Candidate Structure: Conf:549 Charge calc in gas phase
 ------------------------------------------------------
 Structure from the checkpoint file:  "conf-549.chk"
 Charge =  1 Multiplicity = 1

                          Input orientation:
 ---------------------------------------------------------------------
 Center     Atomic      Atomic             Coordinates (Angstroms)
 Number     Number       Type             X           Y           Z
 ---------------------------------------------------------------------
      1          7           0       -3.204002   -0.931795    3.933338
      2          1           0       -3.130461   -1.817089    3.435397
      3          1           0       -2.338801   -0.801355    4.455200
      4          1           0       -5.012791   -0.811893    4.642004
      5          6           0       -3.439083    0.182970    3.021112
      6          1           0       -4.399294    0.003416    2.527376
      7          6           0       -2.367775    0.335334    1.946200
      8          6           0       -3.530331    1.517798    3.796573
      9          1           0       -2.526464    1.813760    4.122629
     10          1           0       -3.888447    2.284107    3.103254
     11          8           0       -1.157245    0.206699    2.368691
     12          6           0       -4.457373    1.458575    5.028347
     13          1           0       -4.581395    2.470787    5.418067
     14          1           0       -3.996794    0.848403    5.811979
     15          6           0       -5.848459    0.914321    4.706103
     16          8           0       -6.823054    1.614378    4.569396
     17          8           0       -5.916333   -0.425013    4.547306
     18          7           0       -2.786637    0.570395    0.726740
     19          1           0       -3.805887    0.621100    0.637704
     20          6           0       -2.109748    0.800509   -0.560966
     21          1           0       -1.957614   -0.179478   -1.026843
     22          6           0       -0.785842    1.519374   -0.325261
     23          6           0       -3.050360    1.655199   -1.463264
     24          1           0       -2.629931    1.630976   -2.473601
     25          1           0       -2.992757    2.689354   -1.109153
     26          8           0       -0.760325    2.584228    0.296289
     27          6           0       -4.462701    1.158446   -1.437703
     28          6           0       -5.040258    0.200165   -2.241081
     29          1           0       -4.647790   -0.295046   -3.118573
     30          6           0       -5.435993    1.477400   -0.414051
     31          6           0       -6.571328    0.653524   -0.644923
     32          6           0       -5.442536    2.360600    0.686749
     33          1           0       -4.605700    3.033737    0.858206
     34          7           0       -6.301411   -0.096730   -1.773632
     35          1           0       -6.945506   -0.737028   -2.213493
     36          6           0       -7.637656    1.505722    1.308977
     37          1           0       -8.458611    1.511118    2.017166
     38          6           0       -7.679542    0.658343    0.209583
     39          1           0       -8.533122    0.011352    0.031522
     40          6           0       -6.538038    2.360540    1.537988
     41          1           0       -6.556972    3.010636    2.404955
     42          7           0        0.298609    0.888058   -0.807501
     43          1           0        0.245501   -0.009902   -1.280781
     44          6           0        1.655077    1.333100   -0.536306
     45          1           0        1.695338    2.424730   -0.595937
     46          6           0        2.542071    0.660226   -1.590896
     47          6           0        2.076924    0.873942    0.881700
     48          1           0        2.061223   -0.219761    0.899134
     49          8           0        2.286903   -0.493635   -1.937048
     50          6           0        3.429793    1.404617    1.319659
     51          1           0        4.217907    0.983980    0.688727
     52          1           0        3.616382    1.104648    2.354610
     53          1           0        3.473699    2.498471    1.253631
     54          8           0        1.048881    1.263194    1.831930
     55          1           0        0.810100    2.195745    1.661646
     56          7           0        3.576479    1.386585   -2.040992
     57          1           0        3.662727    2.377384   -1.788989
     58          6           0        4.548202    0.823852   -2.964022
     59          1           0        4.039931    0.465258   -3.864617
     60          6           0        5.280656   -0.397645   -2.410541
     61          6           0        5.566714    1.911406   -3.353270
     62          1           0        5.001173    2.728073   -3.817762
     63          1           0        6.214779    1.498457   -4.130685
     64          8           0        5.842227   -1.198834   -3.116007
     65          6           0        6.396164    2.438461   -2.158103
     66          1           0        5.919313    2.143971   -1.218312
     67          1           0        7.374735    1.947917   -2.155087
     68          6           0        6.580618    3.979465   -2.131549
     69          1           0        7.635826    4.250662   -2.210465
     70          1           0        6.097331    4.435951   -3.003394
     71          7           0        6.085665    4.634265   -0.917327
     72          1           0        6.749064    4.672515   -0.154655
     73          7           0        3.834335    4.343543   -1.535788
     74          1           0        2.923754    4.647921   -1.200254
     75          1           0        4.059728    4.839399   -2.394713
     76          7           0        4.311729    4.680234    0.695220
     77          1           0        5.060592    4.755166    1.384988
     78          6           0        4.772468    4.569900   -0.497274
     79          8           0        5.304266   -0.452068   -1.056413
     80          1           0        5.813961   -1.253559   -0.829701
     81          1           0       -0.300395    0.591132    1.913361
 ---------------------------------------------------------------------

 SCF Done:  E(RB3LYP) =  -2054.09200704     A.U. after    1 cycles

 Alpha  occ. eigenvalues --  -19.33214 -19.29301 -19.28495 -19.25265 -19.24419
 Alpha  occ. eigenvalues --  -19.22183 -19.22177 -19.20081 -14.53264 -14.48992
 Alpha  occ. eigenvalues --  -14.47852 -14.46041 -14.45743 -14.45192 -14.44729
 Alpha  occ. eigenvalues --  -14.38098 -10.46584 -10.41865 -10.40485 -10.39288
 Alpha  occ. eigenvalues --  -10.38706 -10.37890 -10.37715 -10.36359 -10.36105
 Alpha  occ. eigenvalues --  -10.34997 -10.33209 -10.32183 -10.32012 -10.31582
 Alpha  occ. eigenvalues --  -10.31382 -10.31065 -10.28993 -10.28974 -10.28764
 Alpha  occ. eigenvalues --  -10.28304 -10.28043 -10.27939 -10.27680 -10.26768
 Alpha  occ. eigenvalues --  -10.26664 -10.26657  -1.23542  -1.19154  -1.17221
 Alpha  occ. eigenvalues --   -1.16209  -1.15357  -1.14141  -1.10464  -1.10075
 Alpha  occ. eigenvalues --   -1.08177  -1.07673  -1.07535  -1.05345  -1.03079
 Alpha  occ. eigenvalues --   -1.02972  -0.98688  -0.94144  -0.94054  -0.92918
 Alpha  occ. eigenvalues --   -0.90517  -0.89844  -0.88774  -0.87589  -0.84096
 Alpha  occ. eigenvalues --   -0.83523  -0.82741  -0.82254  -0.80832  -0.78257
 Alpha  occ. eigenvalues --   -0.77838  -0.76605  -0.74011  -0.73225  -0.72907
 Alpha  occ. eigenvalues --   -0.72258  -0.71649  -0.71324  -0.69882  -0.69478
 Alpha  occ. eigenvalues --   -0.68382  -0.67664  -0.67478  -0.67017  -0.65393
 Alpha  occ. eigenvalues --   -0.64819  -0.64480  -0.63481  -0.63124  -0.62833
 Alpha  occ. eigenvalues --   -0.62224  -0.61015  -0.60169  -0.59774  -0.58444
 Alpha  occ. eigenvalues --   -0.58045  -0.57797  -0.57660  -0.57193  -0.56689
 Alpha  occ. eigenvalues --   -0.56308  -0.55910  -0.55674  -0.55478  -0.54990
 Alpha  occ. eigenvalues --   -0.54801  -0.54361  -0.54134  -0.53903  -0.53742
 Alpha  occ. eigenvalues --   -0.52896  -0.52477  -0.52347  -0.52287  -0.51733
 Alpha  occ. eigenvalues --   -0.51056  -0.50920  -0.50766  -0.50478  -0.50170
 Alpha  occ. eigenvalues --   -0.49909  -0.49564  -0.49325  -0.48883  -0.48736
 Alpha  occ. eigenvalues --   -0.48231  -0.47798  -0.47301  -0.47133  -0.46881
 Alpha  occ. eigenvalues --   -0.46295  -0.45921  -0.45291  -0.45030  -0.44294
 Alpha  occ. eigenvalues --   -0.44190  -0.43815  -0.43567  -0.43037  -0.42749
 Alpha  occ. eigenvalues --   -0.42213  -0.41937  -0.40125  -0.39029  -0.38659
 Alpha  occ. eigenvalues --   -0.37969  -0.37832  -0.37513  -0.37077  -0.37024
 Alpha  occ. eigenvalues --   -0.35961  -0.35872  -0.34617  -0.33694  -0.31831
 Alpha  occ. eigenvalues --   -0.31585  -0.30004
 Alpha virt. eigenvalues --   -0.15679  -0.11941  -0.10524  -0.08728  -0.07494
 Alpha virt. eigenvalues --   -0.06863  -0.06525  -0.04808  -0.04524  -0.04249
 Alpha virt. eigenvalues --   -0.03726  -0.02937  -0.01868  -0.01215  -0.01102

 Mulliken charges:
               1
     1  N   -0.741940
     2  H    0.337884
     3  H    0.344098
     4  H    0.444971
     5  C   -0.097944
     6  H    0.205133
     7  C    0.646517
     8  C   -0.294996
     9  H    0.173624
    10  H    0.184384
    11  O   -0.600721
    12  C   -0.370631
    13  H    0.197117
    14  H    0.173239
    15  C    0.593677
    16  O   -0.446283
    17  O   -0.584513
    18  N   -0.591473
    19  H    0.401853
    20  C   -0.023629
    21  H    0.183724
    22  C    0.585813
    23  C   -0.381809
    24  H    0.182419
    25  H    0.203203
    26  O   -0.548151
    27  C    0.025255
    28  C    0.017883
    29  H    0.172251
    30  C    0.006183
    31  C    0.329282
    32  C   -0.246057
    33  H    0.141815
    34  N   -0.679551
    35  H    0.348867
    36  C   -0.143009
    37  H    0.173480
    38  C   -0.156346
    39  H    0.152084
    40  C   -0.134481
    41  H    0.166590
    42  N   -0.600406
    43  H    0.364096
    44  C   -0.098030
    45  H    0.179174
    46  C    0.635045
    47  C    0.142816
    48  H    0.171459
    49  O   -0.542669
    50  C   -0.517420
    51  H    0.192538
    52  H    0.173629
    53  H    0.197957
    54  O   -0.665807
    55  H    0.440011
    56  N   -0.661249
    57  H    0.426198
    58  C   -0.027536
    59  H    0.201568
    60  C    0.613417
    61  C   -0.314705
    62  H    0.151272
    63  H    0.193932
    64  O   -0.450822
    65  C   -0.305398
    66  H    0.175032
    67  H    0.171985
    68  C   -0.161627
    69  H    0.181258
    70  H    0.155845
    71  N   -0.576900
    72  H    0.331834
    73  N   -0.791768
    74  H    0.354260
    75  H    0.342340
    76  N   -0.640675
    77  H    0.284752
    78  C    0.574442
    79  O   -0.571395
    80  H    0.422314
    81  H    0.499415
 Sum of Mulliken charges =   1.00000

 Dipole moment (field-independent basis, Debye):
    X=              2.1654    Y=              5.4194    Z=             -1.3007  Tot=              5.9792
 Quadrupole moment (field-independent basis, Debye-Ang):
   XX=           -147.7214   YY=           -221.0441   ZZ=           -214.3061
   XY=             54.9426   XZ=             12.6325   YZ=            -21.0756

 Normal termination of Gaussian 16 at Fri Jul 15 03:42:48 2022.
