 Gaussian 16, Revision C.01,
 Gaussian 16:  ES64L-G16RevC.01  3-Jul-2019

 ----------------------------------------------------------------------
 # B3LYP/6-31G* empiricaldispersion=gd3bj guess=read geom=check nosymm
 integral(ultrafinegrid)
 ----------------------------------------------------------------------

 ------------------------------------------------------
 Candidate Structure: Conf:727 Charge calc in gas phase
 ------------------------------------------------------
 Structure from the checkpoint file:  "conf-727.chk"
 Charge =  1 Multiplicity = 1

                          Input orientation:
 ---------------------------------------------------------------------
 Center     Atomic      Atomic             Coordinates (Angstroms)
 Number     Number       Type             X           Y           Z
 ---------------------------------------------------------------------
      1          7           0       -5.683890    0.671278    2.903383
      2          1           0       -6.367336    1.178567    2.299659
      3          1           0       -5.570149   -0.290356    2.520386
      4          1           0       -6.043653    0.639443    3.860687
      5          6           0       -4.306268    1.281904    2.804102
      6          1           0       -4.430715    2.362925    2.717164
      7          6           0       -3.770604    0.621485    1.509652
      8          6           0       -3.462856    0.883807    4.032542
      9          1           0       -4.092387    0.919431    4.930731
     10          1           0       -3.132584   -0.151622    3.903543
     11          8           0       -4.042698   -0.569710    1.343302
     12          6           0       -2.249752    1.807372    4.286252
     13          1           0       -1.627144    1.348804    5.059633
     14          1           0       -2.582791    2.787014    4.635995
     15          6           0       -1.441166    2.030051    3.026036
     16          8           0       -1.503364    3.052113    2.366880
     17          8           0       -0.757730    0.942091    2.655065
     18          7           0       -3.078397    1.397808    0.676622
     19          1           0       -2.875261    2.358325    0.936909
     20          6           0       -2.521294    0.923294   -0.590581
     21          1           0       -2.396093   -0.158108   -0.496267
     22          6           0       -1.172822    1.648768   -0.732960
     23          6           0       -3.481701    1.246018   -1.759532
     24          1           0       -3.055274    0.827453   -2.677748
     25          1           0       -3.503918    2.332452   -1.889092
     26          8           0       -1.125248    2.794926   -1.137678
     27          6           0       -4.848257    0.686018   -1.500090
     28          6           0       -5.305902   -0.553785   -1.874217
     29          1           0       -4.839107   -1.295973   -2.506814
     30          6           0       -5.867464    1.251020   -0.649800
     31          6           0       -6.906108    0.277053   -0.529809
     32          6           0       -6.001931    2.467233    0.040817
     33          1           0       -5.248643    3.243100   -0.059592
     34          7           0       -6.534154   -0.803215   -1.295292
     35          1           0       -7.095519   -1.625164   -1.460418
     36          6           0       -8.126554    1.685584    0.966259
     37          1           0       -9.000670    1.883001    1.579518
     38          6           0       -8.031869    0.478455    0.274316
     39          1           0       -8.813335   -0.271856    0.350999
     40          6           0       -7.122098    2.676724    0.844463
     41          1           0       -7.246671    3.625639    1.358213
     42          7           0       -0.075908    0.954111   -0.240794
     43          1           0       -0.124753   -0.063016   -0.345586
     44          6           0        1.261381    1.426896   -0.610868
     45          1           0        1.149303    2.381152   -1.129341
     46          6           0        1.880664    0.367388   -1.524330
     47          6           0        2.173047    1.673474    0.626877
     48          1           0        1.665814    2.433181    1.233495
     49          8           0        1.454958   -0.787374   -1.531475
     50          6           0        2.430578    0.423387    1.465596
     51          1           0        1.508505   -0.012087    1.859803
     52          1           0        3.066956    0.684730    2.316297
     53          1           0        2.935008   -0.348437    0.875128
     54          8           0        3.390373    2.266064    0.188438
     55          1           0        4.031800    1.550199    0.030052
     56          7           0        2.935018    0.796280   -2.257973
     57          1           0        3.287313    1.723284   -2.047521
     58          6           0        3.816551   -0.135657   -2.939331
     59          1           0        3.200830   -0.947174   -3.333099
     60          6           0        4.818970   -0.785958   -1.989260
     61          6           0        4.542465    0.571074   -4.100571
     62          1           0        5.237114    1.320615   -3.692735
     63          1           0        3.768817    1.110751   -4.656811
     64          8           0        5.406535   -1.815501   -2.202352
     65          6           0        5.271788   -0.386699   -5.046277
     66          1           0        6.043442   -0.949760   -4.510891
     67          1           0        4.554401   -1.117392   -5.434463
     68          6           0        5.922517    0.337556   -6.235072
     69          1           0        6.752718    0.966040   -5.894463
     70          1           0        6.358478   -0.408016   -6.907875
     71          7           0        5.026166    1.217435   -6.994987
     72          1           0        4.960884    2.152936   -6.614679
     73          7           0        3.828443   -0.543784   -7.950532
     74          1           0        2.959629   -0.770629   -8.421192
     75          1           0        4.636855   -0.748920   -8.527995
     76          7           0        2.679102    1.408405   -7.469601
     77          1           0        2.771284    2.299331   -6.976968
     78          6           0        3.789529    0.762126   -7.462288
     79          8           0        5.042753   -0.044564   -0.857444
     80          1           0        5.728672   -0.525673   -0.355348
     81          1           0       -0.398818    1.086711    1.741130
 ---------------------------------------------------------------------

 SCF Done:  E(RB3LYP) =  -2054.10423141     A.U. after    1 cycles

 Alpha  occ. eigenvalues --  -19.29893 -19.29063 -19.25738 -19.24954 -19.23368
 Alpha  occ. eigenvalues --  -19.22822 -19.22562 -19.21083 -14.59092 -14.49524
 Alpha  occ. eigenvalues --  -14.48596 -14.46815 -14.44953 -14.40047 -14.38825
 Alpha  occ. eigenvalues --  -14.33281 -10.43315 -10.42987 -10.40517 -10.40273
 Alpha  occ. eigenvalues --  -10.40014 -10.37782 -10.34981 -10.34613 -10.33164
 Alpha  occ. eigenvalues --  -10.33080 -10.32724 -10.32360 -10.32339 -10.32195
 Alpha  occ. eigenvalues --  -10.31880 -10.30506 -10.30187 -10.30181 -10.29916
 Alpha  occ. eigenvalues --  -10.29623 -10.29617 -10.28620 -10.28025 -10.27036
 Alpha  occ. eigenvalues --  -10.26286 -10.24508  -1.21321  -1.19268  -1.18510
 Alpha  occ. eigenvalues --   -1.15336  -1.13341  -1.13013  -1.12351  -1.10578
 Alpha  occ. eigenvalues --   -1.10202  -1.08594  -1.06438  -1.02894  -1.02427
 Alpha  occ. eigenvalues --   -1.01895  -0.95470  -0.94759  -0.93631  -0.91523
 Alpha  occ. eigenvalues --   -0.89157  -0.88735  -0.87835  -0.86109  -0.85464
 Alpha  occ. eigenvalues --   -0.84757  -0.82971  -0.81467  -0.79685  -0.79103
 Alpha  occ. eigenvalues --   -0.76669  -0.74559  -0.73609  -0.73290  -0.72528
 Alpha  occ. eigenvalues --   -0.72095  -0.71313  -0.70314  -0.70234  -0.70077
 Alpha  occ. eigenvalues --   -0.68460  -0.67871  -0.67374  -0.66274  -0.65723
 Alpha  occ. eigenvalues --   -0.64589  -0.63952  -0.63470  -0.62602  -0.61019
 Alpha  occ. eigenvalues --   -0.60139  -0.59822  -0.59495  -0.59199  -0.58911
 Alpha  occ. eigenvalues --   -0.58559  -0.58240  -0.57540  -0.57166  -0.56801
 Alpha  occ. eigenvalues --   -0.56471  -0.56334  -0.55967  -0.55498  -0.54720
 Alpha  occ. eigenvalues --   -0.54555  -0.54295  -0.53710  -0.53519  -0.52958
 Alpha  occ. eigenvalues --   -0.52861  -0.52633  -0.52059  -0.51751  -0.51406
 Alpha  occ. eigenvalues --   -0.51231  -0.50433  -0.50289  -0.49892  -0.49543
 Alpha  occ. eigenvalues --   -0.49318  -0.49229  -0.48887  -0.48328  -0.48295
 Alpha  occ. eigenvalues --   -0.48148  -0.47970  -0.47600  -0.47414  -0.45862
 Alpha  occ. eigenvalues --   -0.45744  -0.45112  -0.44963  -0.44378  -0.44311
 Alpha  occ. eigenvalues --   -0.43894  -0.42774  -0.42340  -0.41429  -0.41207
 Alpha  occ. eigenvalues --   -0.40720  -0.40408  -0.39985  -0.39410  -0.39038
 Alpha  occ. eigenvalues --   -0.38587  -0.38298  -0.37611  -0.36568  -0.35650
 Alpha  occ. eigenvalues --   -0.34189  -0.33850  -0.33629  -0.31510  -0.30984
 Alpha  occ. eigenvalues --   -0.30385  -0.27379
 Alpha virt. eigenvalues --   -0.12946  -0.12668  -0.11164  -0.10040  -0.09485
 Alpha virt. eigenvalues --   -0.08420  -0.07869  -0.06938  -0.04646  -0.04194
 Alpha virt. eigenvalues --   -0.03227  -0.02132  -0.01705  -0.01485  -0.00686

 Mulliken charges:
               1
     1  N   -0.764213
     2  H    0.423793
     3  H    0.421136
     4  H    0.400140
     5  C   -0.105437
     6  H    0.209122
     7  C    0.653741
     8  C   -0.307279
     9  H    0.168590
    10  H    0.212491
    11  O   -0.541829
    12  C   -0.334516
    13  H    0.206038
    14  H    0.194316
    15  C    0.566456
    16  O   -0.475869
    17  O   -0.586754
    18  N   -0.609519
    19  H    0.386412
    20  C   -0.044759
    21  H    0.190551
    22  C    0.595203
    23  C   -0.358366
    24  H    0.179184
    25  H    0.190915
    26  O   -0.466588
    27  C    0.067222
    28  C    0.034407
    29  H    0.181315
    30  C    0.068432
    31  C    0.326093
    32  C   -0.226027
    33  H    0.152634
    34  N   -0.682185
    35  H    0.348638
    36  C   -0.202298
    37  H    0.158741
    38  C   -0.169723
    39  H    0.158073
    40  C   -0.205156
    41  H    0.155431
    42  N   -0.669156
    43  H    0.364878
    44  C   -0.079741
    45  H    0.210159
    46  C    0.611285
    47  C    0.130694
    48  H    0.159181
    49  O   -0.536824
    50  C   -0.508565
    51  H    0.154669
    52  H    0.177083
    53  H    0.170577
    54  O   -0.651406
    55  H    0.427963
    56  N   -0.604274
    57  H    0.349237
    58  C   -0.042541
    59  H    0.218954
    60  C    0.608759
    61  C   -0.303753
    62  H    0.140267
    63  H    0.173444
    64  O   -0.432527
    65  C   -0.279282
    66  H    0.165835
    67  H    0.179015
    68  C   -0.149115
    69  H    0.151652
    70  H    0.159643
    71  N   -0.579262
    72  H    0.311445
    73  N   -0.733604
    74  H    0.340778
    75  H    0.329398
    76  N   -0.635554
    77  H    0.260336
    78  C    0.547318
    79  O   -0.598324
    80  H    0.426957
    81  H    0.465848
 Sum of Mulliken charges =   1.00000

 Dipole moment (field-independent basis, Debye):
    X=            -15.6600    Y=              2.0643    Z=              7.9725  Tot=             17.6935
 Quadrupole moment (field-independent basis, Debye-Ang):
   XX=            -56.7545   YY=           -248.8041   ZZ=           -181.7230
   XY=              2.6395   XZ=            -74.0483   YZ=             17.9718

 Normal termination of Gaussian 16 at Fri Jul 15 03:34:37 2022.
