 Gaussian 16, Revision C.01,
 Gaussian 16:  ES64L-G16RevC.01  3-Jul-2019

 ----------------------------------------------------------------------
 # B3LYP/6-31G* empiricaldispersion=gd3bj guess=read geom=check nosymm
 integral(ultrafinegrid)
 ----------------------------------------------------------------------

 ------------------------------------------------------
 Candidate Structure: Conf:602 Charge calc in gas phase
 ------------------------------------------------------
 Structure from the checkpoint file:  "conf-602.chk"
 Charge =  1 Multiplicity = 1

                          Input orientation:
 ---------------------------------------------------------------------
 Center     Atomic      Atomic             Coordinates (Angstroms)
 Number     Number       Type             X           Y           Z
 ---------------------------------------------------------------------
      1          7           0       -3.793114   -1.260060    4.184674
      2          1           0       -4.475472   -1.884901    3.760791
      3          1           0       -2.909962   -1.762812    4.262260
      4          1           0       -3.917841   -0.759413    5.932232
      5          6           0       -3.625247   -0.026550    3.431097
      6          1           0       -4.618730    0.387293    3.228459
      7          6           0       -2.907242   -0.199445    2.102058
      8          6           0       -2.826825    1.022880    4.244243
      9          1           0       -1.882167    0.572267    4.570902
     10          1           0       -2.555126    1.839090    3.567647
     11          8           0       -1.904745   -1.012784    2.125757
     12          6           0       -3.611074    1.603619    5.441583
     13          1           0       -4.684043    1.625297    5.207423
     14          1           0       -3.299621    2.636748    5.604671
     15          6           0       -3.408036    0.898463    6.789384
     16          8           0       -3.060049    1.504923    7.772699
     17          8           0       -3.648270   -0.423367    6.823036
     18          7           0       -3.329257    0.512617    1.086194
     19          1           0       -4.172411    1.062041    1.269351
     20          6           0       -2.701724    0.817809   -0.205177
     21          1           0       -2.945481    0.014508   -0.908736
     22          6           0       -1.190284    0.954261    0.012190
     23          6           0       -3.278514    2.172020   -0.731826
     24          1           0       -3.012577    2.243814   -1.790538
     25          1           0       -2.749862    2.977066   -0.210266
     26          8           0       -0.758090    1.494123    1.021179
     27          6           0       -4.753533    2.307320   -0.519687
     28          6           0       -5.773939    1.952672   -1.373202
     29          1           0       -5.729132    1.586081   -2.389439
     30          6           0       -5.379787    2.751912    0.707997
     31          6           0       -6.785464    2.624940    0.528131
     32          6           0       -4.887658    3.238289    1.937165
     33          1           0       -3.821281    3.388619    2.087331
     34          7           0       -6.986820    2.142182   -0.750065
     35          1           0       -7.887458    2.006734   -1.185204
     36          6           0       -7.182076    3.412230    2.742178
     37          1           0       -7.863703    3.677065    3.543952
     38          6           0       -7.697163    2.952943    1.535947
     39          1           0       -8.767689    2.854969    1.384120
     40          6           0       -5.793001    3.557937    2.941306
     41          1           0       -5.430091    3.947344    3.887214
     42          7           0       -0.408937    0.444921   -0.978540
     43          1           0       -0.858511   -0.185475   -1.631651
     44          6           0        0.985295    0.133918   -0.681218
     45          1           0        1.390974    1.001574   -0.152789
     46          6           0        1.805239   -0.037609   -1.974695
     47          6           0        1.124689   -1.115959    0.238638
     48          1           0        1.784267   -1.820969   -0.271600
     49          8           0        2.756234   -0.809779   -2.016387
     50          6           0        1.657144   -0.786790    1.622929
     51          1           0        2.661205   -0.358959    1.532230
     52          1           0        1.739011   -1.690152    2.237197
     53          1           0        1.017280   -0.058693    2.128983
     54          8           0       -0.201142   -1.744589    0.322807
     55          1           0       -0.060908   -2.671153    0.578980
     56          7           0        1.409417    0.738360   -3.005724
     57          1           0        0.670247    1.423697   -2.894226
     58          6           0        2.151644    0.799067   -4.258026
     59          1           0        3.223811    0.849271   -4.039383
     60          6           0        1.712163    2.088018   -4.935143
     61          6           0        1.882010   -0.447251   -5.135063
     62          1           0        0.837308   -0.420358   -5.473157
     63          1           0        1.983877   -1.309047   -4.466935
     64          8           0        0.714902    2.707025   -4.620828
     65          6           0        2.835392   -0.619979   -6.319263
     66          1           0        2.748733    0.214083   -7.022480
     67          1           0        3.871805   -0.610996   -5.956898
     68          6           0        2.574907   -1.940371   -7.056792
     69          1           0        2.666679   -2.779680   -6.360420
     70          1           0        1.545367   -1.947216   -7.439247
     71          7           0        3.497467   -2.158172   -8.167114
     72          1           0        3.124046   -1.974419   -9.087751
     73          7           0        4.955275   -3.445116   -6.873188
     74          1           0        5.723566   -4.103922   -6.944341
     75          1           0        5.225478   -2.623851   -6.340658
     76          7           0        4.940237   -3.792692   -9.165070
     77          1           0        4.404072   -3.596000  -10.012539
     78          6           0        4.473576   -3.154483   -8.155921
     79          8           0        2.534646    2.453067   -5.927458
     80          1           0        2.170334    3.268225   -6.324107
     81          1           0       -1.285302   -1.147936    1.321271
 ---------------------------------------------------------------------

 SCF Done:  E(RB3LYP) =  -2054.06028005     A.U. after    2 cycles

 Alpha  occ. eigenvalues --  -19.35784 -19.31898 -19.29925 -19.26272 -19.24476
 Alpha  occ. eigenvalues --  -19.24047 -19.22351 -19.18816 -14.54749 -14.50418
 Alpha  occ. eigenvalues --  -14.49639 -14.47294 -14.46606 -14.40262 -14.38632
 Alpha  occ. eigenvalues --  -14.32670 -10.48263 -10.43310 -10.42442 -10.39847
 Alpha  occ. eigenvalues --  -10.39398 -10.37967 -10.37814 -10.37058 -10.35918
 Alpha  occ. eigenvalues --  -10.33994 -10.33841 -10.33440 -10.33328 -10.32466
 Alpha  occ. eigenvalues --  -10.31753 -10.30560 -10.30298 -10.30038 -10.29763
 Alpha  occ. eigenvalues --  -10.29148 -10.29134 -10.29078 -10.28855 -10.28570
 Alpha  occ. eigenvalues --  -10.28080 -10.25942  -1.26043  -1.21063  -1.18742
 Alpha  occ. eigenvalues --   -1.17657  -1.15178  -1.14488  -1.12191  -1.12097
 Alpha  occ. eigenvalues --   -1.09518  -1.07110  -1.07037  -1.04476  -1.03172
 Alpha  occ. eigenvalues --   -1.02217  -0.95737  -0.94858  -0.93637  -0.91341
 Alpha  occ. eigenvalues --   -0.90876  -0.89316  -0.89016  -0.88325  -0.85264
 Alpha  occ. eigenvalues --   -0.84713  -0.84180  -0.82999  -0.81737  -0.79885
 Alpha  occ. eigenvalues --   -0.79300  -0.75704  -0.75217  -0.74404  -0.73961
 Alpha  occ. eigenvalues --   -0.73468  -0.72433  -0.71622  -0.70373  -0.69076
 Alpha  occ. eigenvalues --   -0.68946  -0.67683  -0.67055  -0.66944  -0.66197
 Alpha  occ. eigenvalues --   -0.66026  -0.65090  -0.65073  -0.64463  -0.62789
 Alpha  occ. eigenvalues --   -0.61321  -0.60583  -0.60038  -0.59761  -0.59526
 Alpha  occ. eigenvalues --   -0.59401  -0.59193  -0.58623  -0.58147  -0.57716
 Alpha  occ. eigenvalues --   -0.56863  -0.56584  -0.56483  -0.56087  -0.55495
 Alpha  occ. eigenvalues --   -0.55380  -0.54615  -0.54327  -0.54224  -0.53746
 Alpha  occ. eigenvalues --   -0.53616  -0.53298  -0.53029  -0.52928  -0.52330
 Alpha  occ. eigenvalues --   -0.52072  -0.51645  -0.51102  -0.50980  -0.50400
 Alpha  occ. eigenvalues --   -0.49885  -0.49687  -0.49580  -0.49307  -0.48949
 Alpha  occ. eigenvalues --   -0.48701  -0.48608  -0.47771  -0.47201  -0.46834
 Alpha  occ. eigenvalues --   -0.46431  -0.45739  -0.45591  -0.45501  -0.45059
 Alpha  occ. eigenvalues --   -0.44753  -0.44359  -0.43813  -0.43763  -0.42896
 Alpha  occ. eigenvalues --   -0.42286  -0.41551  -0.40773  -0.40374  -0.39690
 Alpha  occ. eigenvalues --   -0.39331  -0.38926  -0.38236  -0.36735  -0.36303
 Alpha  occ. eigenvalues --   -0.35927  -0.33700  -0.32472  -0.31942  -0.31264
 Alpha  occ. eigenvalues --   -0.30242  -0.26955
 Alpha virt. eigenvalues --   -0.17334  -0.13742  -0.12486  -0.09687  -0.09104
 Alpha virt. eigenvalues --   -0.08847  -0.07680  -0.05960  -0.05437  -0.04559
 Alpha virt. eigenvalues --   -0.04423  -0.02753  -0.02399  -0.01838  -0.01741

 Mulliken charges:
               1
     1  N   -0.748813
     2  H    0.341964
     3  H    0.351603
     4  H    0.451213
     5  C   -0.082015
     6  H    0.192685
     7  C    0.646162
     8  C   -0.295452
     9  H    0.186747
    10  H    0.183762
    11  O   -0.597246
    12  C   -0.389570
    13  H    0.171966
    14  H    0.196926
    15  C    0.583272
    16  O   -0.432207
    17  O   -0.590010
    18  N   -0.586065
    19  H    0.398717
    20  C   -0.029903
    21  H    0.181439
    22  C    0.575094
    23  C   -0.392329
    24  H    0.190625
    25  H    0.205253
    26  O   -0.498318
    27  C    0.035334
    28  C    0.020903
    29  H    0.176939
    30  C    0.016581
    31  C    0.329024
    32  C   -0.245811
    33  H    0.152071
    34  N   -0.680524
    35  H    0.352478
    36  C   -0.151911
    37  H    0.162539
    38  C   -0.152958
    39  H    0.157976
    40  C   -0.140705
    41  H    0.157873
    42  N   -0.603524
    43  H    0.346640
    44  C   -0.077631
    45  H    0.229712
    46  C    0.599680
    47  C    0.098032
    48  H    0.212700
    49  O   -0.512075
    50  C   -0.487744
    51  H    0.190696
    52  H    0.161003
    53  H    0.184969
    54  O   -0.679237
    55  H    0.436759
    56  N   -0.626772
    57  H    0.359433
    58  C   -0.019099
    59  H    0.202707
    60  C    0.583141
    61  C   -0.281364
    62  H    0.139583
    63  H    0.178420
    64  O   -0.473297
    65  C   -0.258435
    66  H    0.159617
    67  H    0.144466
    68  C   -0.146843
    69  H    0.180342
    70  H    0.138838
    71  N   -0.595210
    72  H    0.316493
    73  N   -0.742270
    74  H    0.342370
    75  H    0.319189
    76  N   -0.629071
    77  H    0.264006
    78  C    0.557375
    79  O   -0.546529
    80  H    0.429232
    81  H    0.498385
 Sum of Mulliken charges =   1.00000

 Dipole moment (field-independent basis, Debye):
    X=            -16.2440    Y=              1.8010    Z=             -6.4189  Tot=             17.5588
 Quadrupole moment (field-independent basis, Debye-Ang):
   XX=           -144.7083   YY=           -236.4993   ZZ=           -264.8527
   XY=              1.7669   XZ=             18.1588   YZ=            -39.9264

 Normal termination of Gaussian 16 at Fri Jul 15 03:34:49 2022.
