 Gaussian 16, Revision C.01,
 Gaussian 16:  ES64L-G16RevC.01  3-Jul-2019

 ----------------------------------------------------------------------
 # B3LYP/6-31G* empiricaldispersion=gd3bj guess=read geom=check nosymm
 integral(ultrafinegrid)
 ----------------------------------------------------------------------

 ------------------------------------------------------
 Candidate Structure: Conf:883 Charge calc in gas phase
 ------------------------------------------------------
 Structure from the checkpoint file:  "conf-883.chk"
 Charge =  1 Multiplicity = 1

                          Input orientation:
 ---------------------------------------------------------------------
 Center     Atomic      Atomic             Coordinates (Angstroms)
 Number     Number       Type             X           Y           Z
 ---------------------------------------------------------------------
      1          7           0       -4.149148   -0.627071    3.826624
      2          1           0       -5.159041   -0.500005    3.939584
      3          1           0       -3.981639   -1.423391    3.150031
      4          1           0       -3.736030   -0.820205    4.742664
      5          6           0       -3.479151    0.532734    3.109035
      6          1           0       -4.083764    1.430051    3.250452
      7          6           0       -3.441040    0.048089    1.645088
      8          6           0       -2.056663    0.747780    3.654687
      9          1           0       -1.676716    1.658520    3.193565
     10          1           0       -2.120670    0.975722    4.725050
     11          8           0       -3.489547   -1.183621    1.469082
     12          6           0       -1.060559   -0.400452    3.398734
     13          1           0       -1.277043   -0.924847    2.467205
     14          1           0       -1.098592   -1.154210    4.197502
     15          6           0        0.370283    0.145557    3.359378
     16          8           0        0.667842    1.192644    3.882162
     17          8           0        1.290375   -0.626091    2.759290
     18          7           0       -3.261582    0.957455    0.689514
     19          1           0       -3.071914    1.951141    0.948778
     20          6           0       -2.584908    0.536381   -0.540136
     21          1           0       -2.945829   -0.462084   -0.796136
     22          6           0       -1.083399    0.423918   -0.172482
     23          6           0       -2.920664    1.518401   -1.681629
     24          1           0       -2.691554    2.529629   -1.337712
     25          1           0       -4.008448    1.474222   -1.819969
     26          8           0       -0.641625    0.966037    0.842931
     27          6           0       -2.181292    1.265058   -2.962161
     28          6           0       -1.985672    0.074088   -3.629440
     29          1           0       -2.365842   -0.916816   -3.416297
     30          6           0       -1.504248    2.276954   -3.731081
     31          6           0       -0.881351    1.626319   -4.830237
     32          6           0       -1.400328    3.673727   -3.617195
     33          1           0       -1.908619    4.191413   -2.810583
     34          7           0       -1.216960    0.292846   -4.756113
     35          1           0       -0.802903   -0.436240   -5.316762
     36          6           0       -0.007645    3.699661   -5.614920
     37          1           0        0.571914    4.272151   -6.332511
     38          6           0       -0.110508    2.323326   -5.767273
     39          1           0        0.375171    1.810460   -6.591750
     40          6           0       -0.660173    4.372599   -4.558888
     41          1           0       -0.581690    5.453915   -4.492492
     42          7           0       -0.310570   -0.384141   -0.937018
     43          1           0       -0.578201   -0.516433   -1.911627
     44          6           0        1.130248   -0.446199   -0.675062
     45          1           0        1.309735    0.130078    0.232607
     46          6           0        1.788789    0.227556   -1.881093
     47          6           0        1.545691   -1.897336   -0.387630
     48          1           0        1.371889   -2.510510   -1.281956
     49          8           0        1.394401   -0.014024   -3.020376
     50          6           0        2.993329   -2.003530    0.056300
     51          1           0        3.662133   -1.649834   -0.734649
     52          1           0        3.243386   -3.043430    0.280884
     53          1           0        3.163949   -1.403346    0.956326
     54          8           0        0.715552   -2.392807    0.684906
     55          1           0        0.913398   -1.344425    2.196361
     56          7           0        2.711208    1.168149   -1.578958
     57          1           0        3.052387    1.276298   -0.631926
     58          6           0        3.076274    2.208011   -2.526049
     59          1           0        3.115209    1.771357   -3.526032
     60          6           0        4.440712    2.738559   -2.131839
     61          6           0        2.012019    3.335987   -2.506616
     62          1           0        1.042693    2.849659   -2.643165
     63          1           0        2.160734    3.982675   -3.375734
     64          8           0        4.958374    2.546156   -1.052948
     65          6           0        2.032356    4.172580   -1.214398
     66          1           0        2.341259    3.560013   -0.356209
     67          1           0        2.792513    4.956788   -1.299692
     68          6           0        0.695123    4.836172   -0.866837
     69          1           0        0.858324    5.656704   -0.156051
     70          1           0        0.260979    5.265961   -1.777223
     71          7           0       -0.230116    3.846989   -0.301602
     72          1           0        0.215229    3.057149    0.150301
     73          7           0       -2.066210    5.278700   -0.237006
     74          1           0       -2.997992    5.452117    0.110690
     75          1           0       -1.865515    5.591431   -1.174608
     76          7           0       -2.019414    3.476288    1.216708
     77          1           0       -1.327736    2.816073    1.567348
     78          6           0       -1.446251    4.165844    0.268500
     79          8           0        4.974140    3.504315   -3.099400
     80          1           0        5.824336    3.845153   -2.760272
     81          1           0       -0.200184   -2.359978    0.358813
 ---------------------------------------------------------------------

 SCF Done:  E(RB3LYP) =  -2054.11794816     A.U. after    1 cycles

 Alpha  occ. eigenvalues --  -19.28393 -19.26775 -19.26387 -19.26047 -19.23681
 Alpha  occ. eigenvalues --  -19.22843 -19.21138 -19.20890 -14.60096 -14.48094
 Alpha  occ. eigenvalues --  -14.47089 -14.46227 -14.45509 -14.43692 -14.43650
 Alpha  occ. eigenvalues --  -14.36984 -10.43128 -10.40798 -10.40615 -10.40295
 Alpha  occ. eigenvalues --  -10.39995 -10.38403 -10.37535 -10.35068 -10.34257
 Alpha  occ. eigenvalues --  -10.32620 -10.32576 -10.32520 -10.31026 -10.30796
 Alpha  occ. eigenvalues --  -10.30763 -10.30005 -10.29731 -10.27663 -10.27569
 Alpha  occ. eigenvalues --  -10.27185 -10.26837 -10.26756 -10.26672 -10.26371
 Alpha  occ. eigenvalues --  -10.26323 -10.26136  -1.19421  -1.19166  -1.17097
 Alpha  occ. eigenvalues --   -1.16003  -1.13847  -1.13392  -1.12920  -1.10535
 Alpha  occ. eigenvalues --   -1.09008  -1.06740  -1.06255  -1.05481  -1.03381
 Alpha  occ. eigenvalues --   -1.02268  -0.97598  -0.93874  -0.93228  -0.92063
 Alpha  occ. eigenvalues --   -0.90667  -0.89052  -0.87385  -0.86536  -0.84623
 Alpha  occ. eigenvalues --   -0.83315  -0.81688  -0.80773  -0.79917  -0.77664
 Alpha  occ. eigenvalues --   -0.76084  -0.75603  -0.73832  -0.72612  -0.72085
 Alpha  occ. eigenvalues --   -0.71311  -0.70595  -0.70260  -0.69827  -0.69436
 Alpha  occ. eigenvalues --   -0.69284  -0.68279  -0.67396  -0.66652  -0.66057
 Alpha  occ. eigenvalues --   -0.65101  -0.64316  -0.62993  -0.62824  -0.62395
 Alpha  occ. eigenvalues --   -0.62083  -0.60824  -0.60255  -0.59672  -0.59426
 Alpha  occ. eigenvalues --   -0.58613  -0.57549  -0.57283  -0.56931  -0.56727
 Alpha  occ. eigenvalues --   -0.56479  -0.55534  -0.55344  -0.55176  -0.55008
 Alpha  occ. eigenvalues --   -0.54362  -0.54097  -0.53477  -0.53352  -0.52603
 Alpha  occ. eigenvalues --   -0.52478  -0.52094  -0.51512  -0.51360  -0.51075
 Alpha  occ. eigenvalues --   -0.50645  -0.50470  -0.50072  -0.50041  -0.49399
 Alpha  occ. eigenvalues --   -0.49061  -0.48953  -0.48572  -0.48439  -0.48219
 Alpha  occ. eigenvalues --   -0.47748  -0.47286  -0.47107  -0.46892  -0.46621
 Alpha  occ. eigenvalues --   -0.45909  -0.45234  -0.44220  -0.44116  -0.43647
 Alpha  occ. eigenvalues --   -0.43431  -0.43052  -0.42609  -0.41745  -0.41171
 Alpha  occ. eigenvalues --   -0.40943  -0.40521  -0.40053  -0.39103  -0.38417
 Alpha  occ. eigenvalues --   -0.37952  -0.37783  -0.36617  -0.36036  -0.35587
 Alpha  occ. eigenvalues --   -0.34996  -0.34904  -0.34295  -0.34043  -0.31127
 Alpha  occ. eigenvalues --   -0.30406  -0.28782
 Alpha virt. eigenvalues --   -0.12872  -0.11259  -0.10507  -0.09801  -0.08124
 Alpha virt. eigenvalues --   -0.07587  -0.07045  -0.05727  -0.05589  -0.04337
 Alpha virt. eigenvalues --   -0.03609  -0.03245  -0.02645  -0.02434  -0.01624

 Mulliken charges:
               1
     1  N   -0.748607
     2  H    0.417021
     3  H    0.429985
     4  H    0.414144
     5  C   -0.127136
     6  H    0.223984
     7  C    0.647123
     8  C   -0.301924
     9  H    0.243672
    10  H    0.183536
    11  O   -0.556759
    12  C   -0.416107
    13  H    0.173791
    14  H    0.171985
    15  C    0.638897
    16  O   -0.448637
    17  O   -0.605509
    18  N   -0.595392
    19  H    0.398168
    20  C   -0.098660
    21  H    0.196537
    22  C    0.625897
    23  C   -0.364899
    24  H    0.185405
    25  H    0.181542
    26  O   -0.551185
    27  C    0.059425
    28  C   -0.047982
    29  H    0.162821
    30  C    0.067329
    31  C    0.333900
    32  C   -0.192204
    33  H    0.103614
    34  N   -0.668489
    35  H    0.345388
    36  C   -0.156114
    37  H    0.145297
    38  C   -0.153509
    39  H    0.145867
    40  C   -0.147747
    41  H    0.130287
    42  N   -0.638046
    43  H    0.378844
    44  C   -0.097100
    45  H    0.200434
    46  C    0.632609
    47  C    0.121281
    48  H    0.153913
    49  O   -0.537886
    50  C   -0.479591
    51  H    0.171657
    52  H    0.184644
    53  H    0.182006
    54  O   -0.638371
    55  H    0.447670
    56  N   -0.603209
    57  H    0.360631
    58  C   -0.064757
    59  H    0.210915
    60  C    0.598574
    61  C   -0.275936
    62  H    0.195043
    63  H    0.172873
    64  O   -0.464456
    65  C   -0.321104
    66  H    0.147507
    67  H    0.168443
    68  C   -0.120424
    69  H    0.170384
    70  H    0.150178
    71  N   -0.620600
    72  H    0.342045
    73  N   -0.748861
    74  H    0.351474
    75  H    0.349210
    76  N   -0.779593
    77  H    0.331841
    78  C    0.643946
    79  O   -0.560706
    80  H    0.426904
    81  H    0.412860
 Sum of Mulliken charges =   1.00000

 Dipole moment (field-independent basis, Debye):
    X=            -11.7709    Y=              2.4263    Z=              2.2734  Tot=             12.2315
 Quadrupole moment (field-independent basis, Debye-Ang):
   XX=           -167.5537   YY=           -201.8848   ZZ=           -176.7621
   XY=             12.1217   XZ=            -67.6863   YZ=            -27.0909

 Normal termination of Gaussian 16 at Fri Jul 15 03:34:46 2022.
