 Gaussian 16, Revision C.01,
 Gaussian 16:  ES64L-G16RevC.01  3-Jul-2019

 ----------------------------------------------------------------------
 # B3LYP/6-31G* empiricaldispersion=gd3bj guess=read geom=check nosymm
 integral(ultrafinegrid)
 ----------------------------------------------------------------------

 ------------------------------------------------------
 Candidate Structure: Conf:981 Charge calc in gas phase
 ------------------------------------------------------
 Structure from the checkpoint file:  "conf-981.chk"
 Charge =  1 Multiplicity = 1

                          Input orientation:
 ---------------------------------------------------------------------
 Center     Atomic      Atomic             Coordinates (Angstroms)
 Number     Number       Type             X           Y           Z
 ---------------------------------------------------------------------
      1          7           0       -2.901159    1.770713    4.889563
      2          1           0       -3.642260    1.210432    5.305910
      3          1           0       -2.020404    1.328096    5.155321
      4          1           0       -2.576224    3.453812    5.438025
      5          6           0       -3.009281    1.798992    3.435973
      6          1           0       -4.065648    1.930694    3.173744
      7          6           0       -2.500625    0.508772    2.788144
      8          6           0       -2.211343    2.986289    2.837982
      9          1           0       -1.164200    2.897890    3.153745
     10          1           0       -2.205093    2.897891    1.747193
     11          8           0       -1.759931   -0.277540    3.418056
     12          6           0       -2.778353    4.373901    3.209047
     13          1           0       -3.863270    4.302869    3.369339
     14          1           0       -2.618919    5.059748    2.375346
     15          6           0       -2.143930    5.047127    4.432270
     16          8           0       -1.669635    6.156247    4.370325
     17          8           0       -2.149535    4.340751    5.572975
     18          7           0       -2.826926    0.338806    1.498848
     19          1           0       -3.343675    1.085038    1.038103
     20          6           0       -2.479088   -0.749191    0.583116
     21          1           0       -2.868498   -1.692278    0.992815
     22          6           0       -0.964726   -0.978516    0.515623
     23          6           0       -3.195290   -0.462041   -0.781341
     24          1           0       -4.164942   -0.966384   -0.741491
     25          1           0       -2.653162   -0.955493   -1.594512
     26          8           0       -0.282817   -1.054011    1.607269
     27          6           0       -3.430348    0.997758   -1.051309
     28          6           0       -4.679755    1.560583   -1.221093
     29          1           0       -5.645899    1.078058   -1.280350
     30          6           0       -2.481758    2.094065   -1.043921
     31          6           0       -3.237698    3.289940   -1.199336
     32          6           0       -1.087582    2.199654   -0.878217
     33          1           0       -0.464755    1.316955   -0.810354
     34          7           0       -4.566825    2.924317   -1.323125
     35          1           0       -5.333823    3.560350   -1.483397
     36          6           0       -1.275877    4.626032   -0.994213
     37          1           0       -0.771787    5.586873   -0.982496
     38          6           0       -2.652071    4.560402   -1.175605
     39          1           0       -3.250198    5.459237   -1.292410
     40          6           0       -0.500263    3.455535   -0.850523
     41          1           0        0.576353    3.564472   -0.784619
     42          7           0       -0.349337   -1.190720   -0.615578
     43          1           0       -0.790667   -0.991655   -1.523690
     44          6           0        1.098582   -1.331158   -0.789676
     45          1           0        1.606691   -0.773232    0.001984
     46          6           0        1.343503   -0.709509   -2.185245
     47          6           0        1.579160   -2.811691   -0.785909
     48          1           0        2.670560   -2.763803   -0.872209
     49          8           0        0.381108   -0.493610   -2.926140
     50          6           0        1.213329   -3.576277    0.480145
     51          1           0        1.591614   -3.080014    1.377749
     52          1           0        1.638480   -4.582016    0.426474
     53          1           0        0.124924   -3.672872    0.581042
     54          8           0        1.143024   -3.468959   -1.961058
     55          1           0        0.252844   -3.823658   -1.809425
     56          7           0        2.622950   -0.477334   -2.488675
     57          1           0        3.366634   -0.655117   -1.820113
     58          6           0        3.086532   -0.023726   -3.797526
     59          1           0        2.612659   -0.630258   -4.576083
     60          6           0        4.584373   -0.303554   -3.797975
     61          6           0        2.743181    1.465498   -4.032647
     62          1           0        3.107178    2.041182   -3.174933
     63          1           0        1.651710    1.537008   -4.016476
     64          8           0        5.230986   -0.487207   -2.786704
     65          6           0        3.289828    2.051549   -5.341796
     66          1           0        4.372627    2.206499   -5.262116
     67          1           0        3.147191    1.342325   -6.167335
     68          6           0        2.610946    3.374596   -5.731361
     69          1           0        3.087158    3.775646   -6.632468
     70          1           0        1.565206    3.185679   -5.980087
     71          7           0        2.651669    4.410187   -4.697028
     72          1           0        3.588298    4.682994   -4.423345
     73          7           0        0.458544    4.050325   -3.990942
     74          1           0       -0.195351    4.217719   -3.235285
     75          1           0        0.132406    4.441027   -4.868110
     76          7           0        1.998777    4.793183   -2.422633
     77          1           0        3.000644    4.936137   -2.282061
     78          6           0        1.748775    4.445125   -3.637664
     79          8           0        5.104133   -0.319551   -5.031804
     80          1           0        6.063429   -0.482703   -4.942148
     81          1           0       -0.875884   -0.854370    2.461834
 ---------------------------------------------------------------------

 SCF Done:  E(RB3LYP) =  -2054.08020373     A.U. after    1 cycles

 Alpha  occ. eigenvalues --  -19.33953 -19.30028 -19.28604 -19.26004 -19.24593
 Alpha  occ. eigenvalues --  -19.24102 -19.22713 -19.17664 -14.53716 -14.51659
 Alpha  occ. eigenvalues --  -14.49305 -14.47681 -14.45105 -14.42114 -14.40826
 Alpha  occ. eigenvalues --  -14.35540 -10.48040 -10.44249 -10.42553 -10.41188
 Alpha  occ. eigenvalues --  -10.40826 -10.36999 -10.36639 -10.36613 -10.35793
 Alpha  occ. eigenvalues --  -10.35101 -10.34370 -10.34264 -10.33962 -10.32742
 Alpha  occ. eigenvalues --  -10.30589 -10.30300 -10.29738 -10.29710 -10.29213
 Alpha  occ. eigenvalues --  -10.29074 -10.28923 -10.27986 -10.27932 -10.27710
 Alpha  occ. eigenvalues --  -10.27374 -10.26875  -1.25397  -1.21201  -1.19690
 Alpha  occ. eigenvalues --   -1.16485  -1.13926  -1.13794  -1.12312  -1.10688
 Alpha  occ. eigenvalues --   -1.09389  -1.08620  -1.05851  -1.04595  -1.04494
 Alpha  occ. eigenvalues --   -1.02236  -0.95680  -0.95226  -0.94103  -0.91877
 Alpha  occ. eigenvalues --   -0.91219  -0.89950  -0.88862  -0.88081  -0.85079
 Alpha  occ. eigenvalues --   -0.84022  -0.83693  -0.83147  -0.81576  -0.80234
 Alpha  occ. eigenvalues --   -0.78430  -0.76305  -0.75577  -0.74124  -0.73468
 Alpha  occ. eigenvalues --   -0.72762  -0.71983  -0.70440  -0.70259  -0.69410
 Alpha  occ. eigenvalues --   -0.68504  -0.67838  -0.67309  -0.67008  -0.65973
 Alpha  occ. eigenvalues --   -0.65366  -0.65207  -0.64472  -0.63811  -0.62440
 Alpha  occ. eigenvalues --   -0.62071  -0.61650  -0.61141  -0.59691  -0.59528
 Alpha  occ. eigenvalues --   -0.58614  -0.58263  -0.57867  -0.57631  -0.57128
 Alpha  occ. eigenvalues --   -0.56990  -0.56594  -0.56343  -0.56225  -0.55886
 Alpha  occ. eigenvalues --   -0.55424  -0.55046  -0.54619  -0.54351  -0.54024
 Alpha  occ. eigenvalues --   -0.53677  -0.53261  -0.52813  -0.52486  -0.51963
 Alpha  occ. eigenvalues --   -0.51908  -0.51719  -0.51569  -0.50789  -0.50730
 Alpha  occ. eigenvalues --   -0.50674  -0.50476  -0.49394  -0.49016  -0.48824
 Alpha  occ. eigenvalues --   -0.48596  -0.48359  -0.47309  -0.46388  -0.46164
 Alpha  occ. eigenvalues --   -0.46098  -0.45457  -0.45305  -0.44584  -0.44491
 Alpha  occ. eigenvalues --   -0.44024  -0.43579  -0.43363  -0.42979  -0.42885
 Alpha  occ. eigenvalues --   -0.42530  -0.42003  -0.41705  -0.41426  -0.39119
 Alpha  occ. eigenvalues --   -0.38493  -0.38426  -0.37921  -0.37418  -0.36910
 Alpha  occ. eigenvalues --   -0.35535  -0.33848  -0.32859  -0.32391  -0.31617
 Alpha  occ. eigenvalues --   -0.31324  -0.29496
 Alpha virt. eigenvalues --   -0.17143  -0.13804  -0.11897  -0.10035  -0.08808
 Alpha virt. eigenvalues --   -0.07882  -0.06225  -0.05012  -0.04681  -0.03478
 Alpha virt. eigenvalues --   -0.03143  -0.02807  -0.02438  -0.02232  -0.01917

 Mulliken charges:
               1
     1  N   -0.747496
     2  H    0.341271
     3  H    0.351850
     4  H    0.453963
     5  C   -0.073015
     6  H    0.173840
     7  C    0.627243
     8  C   -0.307042
     9  H    0.177391
    10  H    0.176248
    11  O   -0.578324
    12  C   -0.381000
    13  H    0.163058
    14  H    0.190572
    15  C    0.583502
    16  O   -0.441629
    17  O   -0.592713
    18  N   -0.604926
    19  H    0.381978
    20  C   -0.051898
    21  H    0.224927
    22  C    0.641922
    23  C   -0.416171
    24  H    0.191990
    25  H    0.188963
    26  O   -0.569928
    27  C   -0.022662
    28  C    0.024528
    29  H    0.179482
    30  C    0.079305
    31  C    0.311345
    32  C   -0.202898
    33  H    0.108189
    34  N   -0.671927
    35  H    0.351528
    36  C   -0.187148
    37  H    0.180440
    38  C   -0.160198
    39  H    0.155532
    40  C   -0.150100
    41  H    0.186166
    42  N   -0.593011
    43  H    0.410119
    44  C   -0.107668
    45  H    0.202898
    46  C    0.683567
    47  C    0.135681
    48  H    0.172957
    49  O   -0.543721
    50  C   -0.475675
    51  H    0.177906
    52  H    0.196695
    53  H    0.133112
    54  O   -0.603067
    55  H    0.399914
    56  N   -0.631489
    57  H    0.365977
    58  C   -0.029773
    59  H    0.205663
    60  C    0.586145
    61  C   -0.283732
    62  H    0.155308
    63  H    0.205804
    64  O   -0.467130
    65  C   -0.271528
    66  H    0.143441
    67  H    0.156229
    68  C   -0.155461
    69  H    0.164269
    70  H    0.165915
    71  N   -0.579199
    72  H    0.315581
    73  N   -0.756264
    74  H    0.354584
    75  H    0.328772
    76  N   -0.659352
    77  H    0.268527
    78  C    0.569845
    79  O   -0.550472
    80  H    0.431163
    81  H    0.491318
 Sum of Mulliken charges =   1.00000

 Dipole moment (field-independent basis, Debye):
    X=             -6.9587    Y=             -3.2625    Z=             -7.2494  Tot=             10.5651
 Quadrupole moment (field-independent basis, Debye-Ang):
   XX=           -144.4481   YY=           -250.0536   ZZ=           -215.1967
   XY=             -9.5227   XZ=            -34.6718   YZ=            -50.6414

 Normal termination of Gaussian 16 at Fri Jul 15 03:34:40 2022.
