 Gaussian 16, Revision C.01,
 Gaussian 16:  ES64L-G16RevC.01  3-Jul-2019

 ----------------------------------------------------------------------
 # B3LYP/6-31G* empiricaldispersion=gd3bj guess=read geom=check nosymm
 integral(ultrafinegrid)
 ----------------------------------------------------------------------

 ------------------------------------------------------
 Candidate Structure: Conf:736 Charge calc in gas phase
 ------------------------------------------------------
 Structure from the checkpoint file:  "conf-736.chk"
 Charge =  1 Multiplicity = 1

                          Input orientation:
 ---------------------------------------------------------------------
 Center     Atomic      Atomic             Coordinates (Angstroms)
 Number     Number       Type             X           Y           Z
 ---------------------------------------------------------------------
      1          7           0       -3.271620    0.512054    5.320374
      2          1           0       -3.599298   -0.451203    5.286899
      3          1           0       -2.332121    0.504880    5.713239
      4          1           0       -4.824631    1.635310    5.955996
      5          6           0       -3.292599    1.140236    4.008948
      6          1           0       -4.335006    1.155183    3.672002
      7          6           0       -2.462583    0.434862    2.951714
      8          6           0       -2.773425    2.601242    4.088252
      9          1           0       -1.689054    2.588394    4.248311
     10          1           0       -2.946744    3.085232    3.121665
     11          8           0       -1.381895   -0.125185    3.390817
     12          6           0       -3.451162    3.417967    5.206032
     13          1           0       -3.155362    4.463391    5.098776
     14          1           0       -3.117243    3.065743    6.186502
     15          6           0       -4.973935    3.347803    5.100002
     16          8           0       -5.533790    2.232437    5.627238
     17          8           0       -5.639353    4.179893    4.537348
     18          7           0       -2.891027    0.444087    1.709391
     19          1           0       -3.762209    0.942426    1.551189
     20          6           0       -2.195970   -0.057803    0.516657
     21          1           0       -2.223722   -1.151728    0.551029
     22          6           0       -0.737902    0.418729    0.604013
     23          6           0       -2.889761    0.410733   -0.784193
     24          1           0       -2.882903    1.507198   -0.809097
     25          1           0       -3.936383    0.083295   -0.756343
     26          8           0       -0.445712    1.461226    1.185472
     27          6           0       -2.187758   -0.150554   -1.986610
     28          6           0       -2.467900   -1.341105   -2.626045
     29          1           0       -3.272148   -2.044236   -2.456073
     30          6           0       -1.023749    0.406974   -2.637432
     31          6           0       -0.646636   -0.503866   -3.659226
     32          6           0       -0.244242    1.560289   -2.430385
     33          1           0       -0.499039    2.273097   -1.650902
     34          7           0       -1.547897   -1.553670   -3.627789
     35          1           0       -1.529423   -2.339458   -4.261828
     36          6           0        1.225097    0.845416   -4.240020
     37          1           0        2.107644    1.034586   -4.842062
     38          6           0        0.472360   -0.297338   -4.474190
     39          1           0        0.743468   -1.012195   -5.244471
     40          6           0        0.870831    1.764214   -3.229091
     41          1           0        1.488453    2.642800   -3.074693
     42          7           0        0.139049   -0.469414    0.104747
     43          1           0       -0.198827   -1.118738   -0.596449
     44          6           0        1.576854   -0.275739    0.238950
     45          1           0        1.797267    0.793907    0.207833
     46          6           0        2.290122   -0.889368   -0.973618
     47          6           0        2.013028   -0.855671    1.604763
     48          1           0        1.817771   -1.933242    1.617163
     49          8           0        3.140172   -0.280603   -1.595528
     50          6           0        3.467989   -0.568705    1.931800
     51          1           0        4.146822   -1.067555    1.230512
     52          1           0        3.697084   -0.923196    2.940641
     53          1           0        3.670117    0.508285    1.884860
     54          8           0        1.134856   -0.340597    2.641689
     55          1           0        1.285296    0.620822    2.687337
     56          7           0        1.829587   -2.128291   -1.325787
     57          1           0        1.256258   -2.671124   -0.696233
     58          6           0        2.172509   -2.727693   -2.610093
     59          1           0        2.322236   -1.904000   -3.309531
     60          6           0        0.991555   -3.532078   -3.119526
     61          6           0        3.472445   -3.556369   -2.554751
     62          1           0        4.241372   -2.857917   -2.215496
     63          1           0        3.736982   -3.851917   -3.576701
     64          8           0        0.706314   -3.698170   -4.282458
     65          6           0        3.411441   -4.790232   -1.644096
     66          1           0        2.786102   -4.579542   -0.765074
     67          1           0        2.928661   -5.626072   -2.166862
     68          6           0        4.789162   -5.242625   -1.129996
     69          1           0        4.698014   -6.231937   -0.668294
     70          1           0        5.499413   -5.354960   -1.955125
     71          7           0        5.367197   -4.340589   -0.146380
     72          1           0        4.796832   -4.208341    0.679872
     73          7           0        6.282228   -2.362491    0.629299
     74          1           0        6.945728   -1.632910    0.385148
     75          1           0        6.591758   -2.847082    1.468415
     76          7           0        6.677880   -2.909965   -1.589626
     77          1           0        6.430664   -3.554070   -2.339839
     78          6           0        6.133427   -3.227015   -0.474675
     79          8           0        0.273449   -4.090995   -2.105847
     80          1           0       -0.416272   -4.642316   -2.521559
     81          1           0       -0.569775   -0.318305    2.812922
 ---------------------------------------------------------------------

 SCF Done:  E(RB3LYP) =  -2054.06556692     A.U. after    3 cycles

 Alpha  occ. eigenvalues --  -19.36482 -19.31377 -19.29703 -19.26310 -19.25720
 Alpha  occ. eigenvalues --  -19.25201 -19.22260 -19.20892 -14.56277 -14.49481
 Alpha  occ. eigenvalues --  -14.48134 -14.47354 -14.47263 -14.42674 -14.41162
 Alpha  occ. eigenvalues --  -14.35286 -10.49191 -10.43234 -10.42788 -10.39898
 Alpha  occ. eigenvalues --  -10.39559 -10.39160 -10.38469 -10.37050 -10.35034
 Alpha  occ. eigenvalues --  -10.35020 -10.33942 -10.33531 -10.32935 -10.32838
 Alpha  occ. eigenvalues --  -10.31448 -10.30470 -10.30108 -10.29552 -10.28295
 Alpha  occ. eigenvalues --  -10.27914 -10.27894 -10.27840 -10.27721 -10.27690
 Alpha  occ. eigenvalues --  -10.27137 -10.26873  -1.26628  -1.21945  -1.18203
 Alpha  occ. eigenvalues --   -1.17138  -1.16008  -1.14480  -1.12928  -1.12869
 Alpha  occ. eigenvalues --   -1.09148  -1.08089  -1.06711  -1.04770  -1.04767
 Alpha  occ. eigenvalues --   -1.03592  -0.96188  -0.95645  -0.93080  -0.91476
 Alpha  occ. eigenvalues --   -0.91007  -0.90838  -0.88975  -0.88527  -0.85531
 Alpha  occ. eigenvalues --   -0.84177  -0.83019  -0.82737  -0.81385  -0.80477
 Alpha  occ. eigenvalues --   -0.79150  -0.77259  -0.76029  -0.74520  -0.74273
 Alpha  occ. eigenvalues --   -0.73148  -0.72059  -0.71642  -0.70782  -0.68990
 Alpha  occ. eigenvalues --   -0.68693  -0.68308  -0.67968  -0.66569  -0.66207
 Alpha  occ. eigenvalues --   -0.65246  -0.65127  -0.64218  -0.63477  -0.63165
 Alpha  occ. eigenvalues --   -0.62405  -0.61671  -0.61431  -0.60400  -0.59957
 Alpha  occ. eigenvalues --   -0.59572  -0.58991  -0.58516  -0.58294  -0.57861
 Alpha  occ. eigenvalues --   -0.57768  -0.56993  -0.56897  -0.55944  -0.55627
 Alpha  occ. eigenvalues --   -0.55191  -0.54911  -0.54539  -0.54328  -0.53968
 Alpha  occ. eigenvalues --   -0.53541  -0.53013  -0.52375  -0.52348  -0.52141
 Alpha  occ. eigenvalues --   -0.51780  -0.51515  -0.51465  -0.51387  -0.50582
 Alpha  occ. eigenvalues --   -0.50400  -0.50223  -0.49919  -0.49539  -0.49163
 Alpha  occ. eigenvalues --   -0.48706  -0.48398  -0.48142  -0.47938  -0.47703
 Alpha  occ. eigenvalues --   -0.47456  -0.46368  -0.45966  -0.45584  -0.44702
 Alpha  occ. eigenvalues --   -0.44507  -0.44400  -0.43470  -0.43191  -0.42869
 Alpha  occ. eigenvalues --   -0.42810  -0.42570  -0.42184  -0.40125  -0.39795
 Alpha  occ. eigenvalues --   -0.39557  -0.39112  -0.38762  -0.37247  -0.36199
 Alpha  occ. eigenvalues --   -0.35146  -0.34492  -0.33437  -0.32895  -0.31698
 Alpha  occ. eigenvalues --   -0.30395  -0.29645
 Alpha virt. eigenvalues --   -0.18258  -0.12955  -0.11089  -0.10648  -0.08798
 Alpha virt. eigenvalues --   -0.08523  -0.07080  -0.06697  -0.05822  -0.05154
 Alpha virt. eigenvalues --   -0.04733  -0.03982  -0.03256  -0.02684  -0.01563

 Mulliken charges:
               1
     1  N   -0.732211
     2  H    0.340962
     3  H    0.344296
     4  H    0.440589
     5  C   -0.105304
     6  H    0.199792
     7  C    0.664933
     8  C   -0.288855
     9  H    0.178035
    10  H    0.185570
    11  O   -0.586970
    12  C   -0.364064
    13  H    0.204855
    14  H    0.174393
    15  C    0.574526
    16  O   -0.580604
    17  O   -0.427198
    18  N   -0.571159
    19  H    0.388021
    20  C   -0.032308
    21  H    0.190393
    22  C    0.580631
    23  C   -0.395239
    24  H    0.195686
    25  H    0.178798
    26  O   -0.541019
    27  C    0.011617
    28  C   -0.000924
    29  H    0.165129
    30  C    0.079250
    31  C    0.297765
    32  C   -0.222651
    33  H    0.139653
    34  N   -0.679228
    35  H    0.351489
    36  C   -0.137274
    37  H    0.157384
    38  C   -0.181977
    39  H    0.166045
    40  C   -0.128742
    41  H    0.150284
    42  N   -0.601902
    43  H    0.361872
    44  C   -0.086375
    45  H    0.207674
    46  C    0.637883
    47  C    0.136487
    48  H    0.143687
    49  O   -0.484628
    50  C   -0.494028
    51  H    0.223698
    52  H    0.173760
    53  H    0.162400
    54  O   -0.649633
    55  H    0.423747
    56  N   -0.636895
    57  H    0.342787
    58  C   -0.053927
    59  H    0.219944
    60  C    0.611206
    61  C   -0.294162
    62  H    0.210178
    63  H    0.170317
    64  O   -0.471203
    65  C   -0.267206
    66  H    0.115982
    67  H    0.150909
    68  C   -0.160837
    69  H    0.164509
    70  H    0.169275
    71  N   -0.578642
    72  H    0.310478
    73  N   -0.759849
    74  H    0.346878
    75  H    0.323682
    76  N   -0.624313
    77  H    0.278450
    78  C    0.568993
    79  O   -0.590555
    80  H    0.420206
    81  H    0.494785
 Sum of Mulliken charges =   1.00000

 Dipole moment (field-independent basis, Debye):
    X=             -3.3177    Y=             -9.7057    Z=              6.7026  Tot=             12.2528
 Quadrupole moment (field-independent basis, Debye-Ang):
   XX=           -240.5026   YY=           -210.3203   ZZ=           -196.8484
   XY=              9.4273   XZ=             15.3142   YZ=              6.6567

 Normal termination of Gaussian 16 at Fri Jul 15 03:35:17 2022.
