 Gaussian 16, Revision C.01,
 Gaussian 16:  ES64L-G16RevC.01  3-Jul-2019

 ----------------------------------------------------------------------
 # B3LYP/6-31G* empiricaldispersion=gd3bj guess=read geom=check nosymm
 integral(ultrafinegrid)
 ----------------------------------------------------------------------

 ------------------------------------------------------
 Candidate Structure: Conf:879 Charge calc in gas phase
 ------------------------------------------------------
 Structure from the checkpoint file:  "conf-879.chk"
 Charge =  1 Multiplicity = 1

                          Input orientation:
 ---------------------------------------------------------------------
 Center     Atomic      Atomic             Coordinates (Angstroms)
 Number     Number       Type             X           Y           Z
 ---------------------------------------------------------------------
      1          7           0       -4.683882    1.817656    2.768693
      2          1           0       -5.466647    1.837309    2.092031
      3          1           0       -4.609944    0.834725    3.105305
      4          1           0       -4.897594    2.450975    3.543471
      5          6           0       -3.331281    2.098232    2.136577
      6          1           0       -3.472275    2.867599    1.374107
      7          6           0       -3.000856    0.723082    1.525809
      8          6           0       -2.350575    2.542468    3.230228
      9          1           0       -2.843547    3.314845    3.837559
     10          1           0       -2.134583    1.683935    3.873369
     11          8           0       -3.292617   -0.273113    2.194498
     12          6           0       -1.044896    3.120804    2.678752
     13          1           0       -0.466979    3.539475    3.511075
     14          1           0       -1.239102    3.957580    1.998259
     15          6           0       -0.138742    2.115447    1.952278
     16          8           0        0.762593    2.603957    1.226777
     17          8           0       -0.396744    0.882592    2.135934
     18          7           0       -2.556641    0.716573    0.266439
     19          1           0       -2.223367    1.581544   -0.231003
     20          6           0       -2.437793   -0.541700   -0.445907
     21          1           0       -2.531776   -1.331782    0.305393
     22          6           0       -1.032258   -0.560416   -1.027054
     23          6           0       -3.528471   -0.698427   -1.557873
     24          1           0       -3.806490   -1.756543   -1.615704
     25          1           0       -3.080685   -0.431470   -2.518172
     26          8           0       -0.746499   -0.445370   -2.177443
     27          6           0       -4.717195    0.178590   -1.303989
     28          6           0       -5.025996    1.317625   -2.004002
     29          1           0       -4.587746    1.700936   -2.914465
     30          6           0       -5.641921    0.123778   -0.194111
     31          6           0       -6.455454    1.292980   -0.266828
     32          6           0       -5.866881   -0.792956    0.846844
     33          1           0       -5.268420   -1.693450    0.926247
     34          7           0       -6.055793    2.001141   -1.380624
     35          1           0       -6.543759    2.793951   -1.769840
     36          6           0       -7.623763    0.656569    1.719949
     37          1           0       -8.392501    0.838871    2.464862
     38          6           0       -7.433514    1.584283    0.694997
     39          1           0       -8.047861    2.477471    0.624929
     40          6           0       -6.854212   -0.524501    1.788403
     41          1           0       -7.041638   -1.235784    2.586628
     42          7           0        0.075883   -0.653539    0.026258
     43          1           0        0.260075   -1.653295    0.184103
     44          6           0        1.342496    0.021091   -0.399228
     45          1           0        1.027832    1.034714   -0.625874
     46          6           0        1.915014   -0.656107   -1.631827
     47          6           0        2.395066    0.123297    0.746563
     48          1           0        1.849810    0.202507    1.692125
     49          8           0        1.644855   -1.813860   -1.926878
     50          6           0        3.369708   -1.042888    0.808964
     51          1           0        2.841692   -1.997578    0.915474
     52          1           0        4.026552   -0.913033    1.672805
     53          1           0        3.987323   -1.091221   -0.091873
     54          8           0        3.114616    1.323207    0.496133
     55          1           0        2.496213    2.023919    0.801220
     56          7           0        2.726966    0.180419   -2.318808
     57          1           0        3.056080    1.002046   -1.822184
     58          6           0        3.237486   -0.109134   -3.635861
     59          1           0        2.658791   -0.966256   -4.000075
     60          6           0        4.701018   -0.551010   -3.662543
     61          6           0        3.024380    1.094557   -4.570450
     62          1           0        3.409053    0.809539   -5.552331
     63          1           0        3.664346    1.920844   -4.230696
     64          8           0        5.365356   -0.595152   -4.671578
     65          6           0        1.554485    1.570292   -4.677172
     66          1           0        1.332002    1.731671   -5.738055
     67          1           0        0.870918    0.787265   -4.330152
     68          6           0        1.214225    2.891019   -3.940004
     69          1           0        2.109499    3.515596   -3.863902
     70          1           0        0.505811    3.475446   -4.541030
     71          7           0        0.670967    2.759251   -2.586894
     72          1           0        1.263291    3.035220   -1.816860
     73          7           0       -1.511513    2.293187   -3.289612
     74          1           0       -2.474473    2.528781   -3.103517
     75          1           0       -1.215427    2.406716   -4.246543
     76          7           0       -1.139756    2.718292   -1.056702
     77          1           0       -0.414421    2.973401   -0.384101
     78          6           0       -0.656246    2.623060   -2.263025
     79          8           0        5.167446   -0.900124   -2.444979
     80          1           0        6.090587   -1.190427   -2.576393
     81          1           0       -0.195890   -0.137225    0.953255
 ---------------------------------------------------------------------

 SCF Done:  E(RB3LYP) =  -2054.09524212     A.U. after    2 cycles

 Alpha  occ. eigenvalues --  -19.29233 -19.27248 -19.24209 -19.21833 -19.21197
 Alpha  occ. eigenvalues --  -19.20496 -19.20293 -19.19331 -14.58132 -14.53744
 Alpha  occ. eigenvalues --  -14.48974 -14.46996 -14.45499 -14.44953 -14.44477
 Alpha  occ. eigenvalues --  -14.38206 -10.44419 -10.41404 -10.39421 -10.39106
 Alpha  occ. eigenvalues --  -10.38483 -10.37831 -10.37726 -10.36004 -10.33423
 Alpha  occ. eigenvalues --  -10.33117 -10.32896 -10.32602 -10.32355 -10.32047
 Alpha  occ. eigenvalues --  -10.31545 -10.30449 -10.30224 -10.29874 -10.29563
 Alpha  occ. eigenvalues --  -10.29511 -10.29276 -10.28933 -10.28693 -10.27686
 Alpha  occ. eigenvalues --  -10.27516 -10.24905  -1.20858  -1.18037  -1.17072
 Alpha  occ. eigenvalues --   -1.13156  -1.12655  -1.12157  -1.09708  -1.08976
 Alpha  occ. eigenvalues --   -1.08911  -1.08184  -1.07926  -1.04818  -1.04142
 Alpha  occ. eigenvalues --   -1.01941  -0.98980  -0.95144  -0.94339  -0.92642
 Alpha  occ. eigenvalues --   -0.91189  -0.89113  -0.88063  -0.86064  -0.84632
 Alpha  occ. eigenvalues --   -0.83741  -0.83095  -0.82760  -0.79997  -0.78275
 Alpha  occ. eigenvalues --   -0.76514  -0.75729  -0.73290  -0.72112  -0.71847
 Alpha  occ. eigenvalues --   -0.71695  -0.70586  -0.70251  -0.70118  -0.69751
 Alpha  occ. eigenvalues --   -0.69379  -0.67945  -0.67689  -0.67401  -0.67188
 Alpha  occ. eigenvalues --   -0.65989  -0.65079  -0.64127  -0.62144  -0.61948
 Alpha  occ. eigenvalues --   -0.61561  -0.60172  -0.59710  -0.59566  -0.59039
 Alpha  occ. eigenvalues --   -0.58676  -0.58595  -0.57782  -0.57457  -0.57235
 Alpha  occ. eigenvalues --   -0.57098  -0.56161  -0.55993  -0.55344  -0.55068
 Alpha  occ. eigenvalues --   -0.54646  -0.54348  -0.54208  -0.53878  -0.53743
 Alpha  occ. eigenvalues --   -0.53359  -0.52433  -0.52269  -0.52117  -0.51482
 Alpha  occ. eigenvalues --   -0.51291  -0.51170  -0.50125  -0.49996  -0.49728
 Alpha  occ. eigenvalues --   -0.49540  -0.49289  -0.49120  -0.48539  -0.47945
 Alpha  occ. eigenvalues --   -0.47699  -0.47291  -0.46656  -0.46388  -0.46034
 Alpha  occ. eigenvalues --   -0.45763  -0.45562  -0.44926  -0.44231  -0.44056
 Alpha  occ. eigenvalues --   -0.44028  -0.43859  -0.43389  -0.42748  -0.41767
 Alpha  occ. eigenvalues --   -0.40476  -0.39187  -0.39027  -0.38614  -0.38099
 Alpha  occ. eigenvalues --   -0.37211  -0.36927  -0.36200  -0.35860  -0.35267
 Alpha  occ. eigenvalues --   -0.34617  -0.33844  -0.33708  -0.33413  -0.32829
 Alpha  occ. eigenvalues --   -0.31896  -0.31359
 Alpha virt. eigenvalues --   -0.15537  -0.12613  -0.10648  -0.09008  -0.07701
 Alpha virt. eigenvalues --   -0.06796  -0.06472  -0.06255  -0.05561  -0.04498
 Alpha virt. eigenvalues --   -0.04121  -0.03419  -0.03108  -0.02431  -0.02178

 Mulliken charges:
               1
     1  N   -0.763361
     2  H    0.422296
     3  H    0.424708
     4  H    0.399420
     5  C   -0.110117
     6  H    0.205840
     7  C    0.688262
     8  C   -0.276639
     9  H    0.143621
    10  H    0.202225
    11  O   -0.556208
    12  C   -0.363922
    13  H    0.195714
    14  H    0.169920
    15  C    0.628999
    16  O   -0.602391
    17  O   -0.607065
    18  N   -0.639725
    19  H    0.415616
    20  C   -0.048522
    21  H    0.208363
    22  C    0.592887
    23  C   -0.387643
    24  H    0.181330
    25  H    0.196738
    26  O   -0.352836
    27  C    0.087487
    28  C    0.007269
    29  H    0.158898
    30  C    0.049499
    31  C    0.306240
    32  C   -0.181997
    33  H    0.155835
    34  N   -0.681565
    35  H    0.346052
    36  C   -0.178694
    37  H    0.158026
    38  C   -0.218686
    39  H    0.154222
    40  C   -0.175067
    41  H    0.156597
    42  N   -0.742041
    43  H    0.398320
    44  C   -0.121771
    45  H    0.196239
    46  C    0.669465
    47  C    0.105968
    48  H    0.170020
    49  O   -0.545435
    50  C   -0.470705
    51  H    0.141337
    52  H    0.177306
    53  H    0.193207
    54  O   -0.653741
    55  H    0.434545
    56  N   -0.594346
    57  H    0.347611
    58  C   -0.070349
    59  H    0.218699
    60  C    0.598869
    61  C   -0.286859
    62  H    0.195397
    63  H    0.144868
    64  O   -0.448490
    65  C   -0.275816
    66  H    0.155701
    67  H    0.178582
    68  C   -0.176306
    69  H    0.174084
    70  H    0.156917
    71  N   -0.598518
    72  H    0.343575
    73  N   -0.753637
    74  H    0.343576
    75  H    0.346035
    76  N   -0.801985
    77  H    0.336881
    78  C    0.670034
    79  O   -0.556968
    80  H    0.423981
    81  H    0.464127
 Sum of Mulliken charges =   1.00000

 Dipole moment (field-independent basis, Debye):
    X=            -16.5157    Y=             10.2683    Z=              0.7984  Tot=             19.4639
 Quadrupole moment (field-independent basis, Debye-Ang):
   XX=           -134.5461   YY=           -208.9507   ZZ=           -197.0832
   XY=            -43.1869   XZ=            -24.0344   YZ=             -8.6415

 Normal termination of Gaussian 16 at Fri Jul 15 03:35:14 2022.
