 Gaussian 16, Revision C.01,
 Gaussian 16:  ES64L-G16RevC.01  3-Jul-2019

 ----------------------------------------------------------------------
 # B3LYP/6-31G* empiricaldispersion=gd3bj guess=read geom=check nosymm
 integral(ultrafinegrid)
 ----------------------------------------------------------------------

 ------------------------------------------------------
 Candidate Structure: Conf:586 Charge calc in gas phase
 ------------------------------------------------------
 Structure from the checkpoint file:  "conf-586.chk"
 Charge =  1 Multiplicity = 1

                          Input orientation:
 ---------------------------------------------------------------------
 Center     Atomic      Atomic             Coordinates (Angstroms)
 Number     Number       Type             X           Y           Z
 ---------------------------------------------------------------------
      1          7           0       -3.813263    3.512074    0.634279
      2          1           0       -2.879601    3.921996    0.112963
      3          1           0       -4.185531    2.744019    0.058545
      4          1           0       -4.525099    4.243524    0.695392
      5          6           0       -3.415028    3.022613    1.991345
      6          1           0       -2.555835    3.626370    2.298230
      7          6           0       -2.951185    1.562871    1.879415
      8          6           0       -4.543767    3.127915    3.017816
      9          1           0       -4.627212    4.165969    3.354545
     10          1           0       -5.485481    2.857259    2.532663
     11          8           0       -4.087085    0.767688    1.729586
     12          6           0       -4.304077    2.184169    4.223652
     13          1           0       -5.006957    1.347024    4.164762
     14          1           0       -4.478326    2.688192    5.174994
     15          6           0       -2.925219    1.546431    4.316182
     16          8           0       -2.382539    1.269558    5.351864
     17          8           0       -2.294555    1.249431    3.132863
     18          7           0       -2.037097    1.417587    0.806394
     19          1           0       -1.396489    2.201817    0.734637
     20          6           0       -1.254748    0.191743    0.685451
     21          1           0       -1.361223   -0.424513    1.585270
     22          6           0        0.210379    0.614844    0.518539
     23          6           0       -1.665534   -0.640901   -0.576223
     24          1           0       -1.231551   -1.642939   -0.495627
     25          1           0       -1.201061   -0.185904   -1.455249
     26          8           0        0.505976    1.788184    0.245524
     27          6           0       -3.147655   -0.718437   -0.772426
     28          6           0       -4.007694   -1.728687   -0.393395
     29          1           0       -3.793551   -2.673388    0.087335
     30          6           0       -3.964332    0.287529   -1.411581
     31          6           0       -5.310231   -0.166577   -1.369547
     32          6           0       -3.681107    1.536869   -1.988854
     33          1           0       -2.659074    1.896782   -2.039370
     34          7           0       -5.302806   -1.398447   -0.746061
     35          1           0       -6.110468   -1.983901   -0.596535
     36          6           0       -6.064666    1.836041   -2.419008
     37          1           0       -6.864490    2.451938   -2.818696
     38          6           0       -6.371202    0.598564   -1.866736
     39          1           0       -7.395786    0.241670   -1.822620
     40          6           0       -4.732045    2.300702   -2.484067
     41          1           0       -4.520738    3.264015   -2.939071
     42          7           0        1.142348   -0.352160    0.622589
     43          1           0        0.842637   -1.321168    0.633862
     44          6           0        2.433064   -0.148682   -0.010075
     45          1           0        2.871830    0.775584    0.375205
     46          6           0        2.200591    0.000149   -1.531741
     47          6           0        3.358677   -1.327608    0.330523
     48          1           0        4.250363   -1.245208   -0.309435
     49          8           0        1.184284   -0.419975   -2.073891
     50          6           0        3.780995   -1.329806    1.797174
     51          1           0        4.369171   -0.437640    2.036766
     52          1           0        4.405349   -2.204743    2.012263
     53          1           0        2.906309   -1.357537    2.453601
     54          8           0        2.612628   -2.494586   -0.012982
     55          1           0        3.119184   -3.274338    0.261475
     56          7           0        3.174940    0.656009   -2.203307
     57          1           0        4.014311    0.995526   -1.747760
     58          6           0        3.057195    0.936972   -3.623777
     59          1           0        2.878752    0.003118   -4.168630
     60          6           0        4.387621    1.516904   -4.071446
     61          6           0        1.885877    1.899455   -3.928239
     62          1           0        0.987269    1.425116   -3.526884
     63          1           0        1.766614    1.966555   -5.014484
     64          8           0        5.293812    1.805868   -3.318989
     65          6           0        2.075238    3.299598   -3.333697
     66          1           0        2.528029    3.236128   -2.335768
     67          1           0        2.771734    3.877275   -3.951650
     68          6           0        0.765294    4.083844   -3.228593
     69          1           0        0.976399    5.156420   -3.129418
     70          1           0        0.193368    3.942278   -4.155851
     71          7           0       -0.019772    3.630272   -2.073508
     72          1           0        0.443245    3.040376   -1.385537
     73          7           0       -1.960475    4.822349   -2.565796
     74          1           0       -2.526129    5.601357   -2.263881
     75          1           0       -1.690836    4.816880   -3.537119
     76          7           0       -1.505068    4.308264   -0.366229
     77          1           0       -0.738680    4.001861    0.229567
     78          6           0       -1.140759    4.255507   -1.627956
     79          8           0        4.426688    1.703454   -5.400938
     80          1           0        5.300466    2.084153   -5.613817
     81          1           0       -3.884341    0.042441    1.105042
 ---------------------------------------------------------------------

 SCF Done:  E(RB3LYP) =  -2054.12147679     A.U. after    1 cycles

 Alpha  occ. eigenvalues --  -19.29253 -19.27040 -19.25549 -19.24275 -19.23837
 Alpha  occ. eigenvalues --  -19.23014 -19.21066 -19.20557 -14.51954 -14.47362
 Alpha  occ. eigenvalues --  -14.46487 -14.45858 -14.45729 -14.45286 -14.42768
 Alpha  occ. eigenvalues --  -14.40932 -10.43136 -10.41731 -10.40741 -10.39703
 Alpha  occ. eigenvalues --  -10.39337 -10.37765 -10.35611 -10.34006 -10.33243
 Alpha  occ. eigenvalues --  -10.32850 -10.32836 -10.32791 -10.31646 -10.31171
 Alpha  occ. eigenvalues --  -10.30573 -10.29122 -10.28749 -10.28238 -10.28003
 Alpha  occ. eigenvalues --  -10.27976 -10.27871 -10.27698 -10.27596 -10.27585
 Alpha  occ. eigenvalues --  -10.27386 -10.26562  -1.20358  -1.19788  -1.14851
 Alpha  occ. eigenvalues --   -1.14194  -1.12768  -1.11712  -1.11402  -1.09638
 Alpha  occ. eigenvalues --   -1.09040  -1.07625  -1.07244  -1.02704  -1.01964
 Alpha  occ. eigenvalues --   -1.01339  -0.99984  -0.96310  -0.93131  -0.90981
 Alpha  occ. eigenvalues --   -0.90055  -0.89650  -0.87644  -0.85521  -0.84406
 Alpha  occ. eigenvalues --   -0.82944  -0.82413  -0.81023  -0.79611  -0.77226
 Alpha  occ. eigenvalues --   -0.76685  -0.74054  -0.73878  -0.72485  -0.72038
 Alpha  occ. eigenvalues --   -0.71404  -0.71219  -0.69363  -0.69000  -0.68642
 Alpha  occ. eigenvalues --   -0.68310  -0.67357  -0.66276  -0.65939  -0.65284
 Alpha  occ. eigenvalues --   -0.64901  -0.64074  -0.62877  -0.62648  -0.61714
 Alpha  occ. eigenvalues --   -0.60840  -0.60605  -0.59955  -0.59343  -0.58455
 Alpha  occ. eigenvalues --   -0.58280  -0.57724  -0.57263  -0.57205  -0.56762
 Alpha  occ. eigenvalues --   -0.56491  -0.56380  -0.56327  -0.55162  -0.54941
 Alpha  occ. eigenvalues --   -0.54172  -0.53958  -0.53333  -0.52950  -0.52611
 Alpha  occ. eigenvalues --   -0.52260  -0.52128  -0.51960  -0.51710  -0.50917
 Alpha  occ. eigenvalues --   -0.50706  -0.50538  -0.50188  -0.49668  -0.49508
 Alpha  occ. eigenvalues --   -0.49081  -0.48785  -0.48377  -0.48034  -0.47761
 Alpha  occ. eigenvalues --   -0.47484  -0.47024  -0.46911  -0.46174  -0.45597
 Alpha  occ. eigenvalues --   -0.45421  -0.45076  -0.44677  -0.44177  -0.44051
 Alpha  occ. eigenvalues --   -0.43904  -0.43354  -0.42806  -0.42503  -0.42272
 Alpha  occ. eigenvalues --   -0.41441  -0.40366  -0.39598  -0.38649  -0.37799
 Alpha  occ. eigenvalues --   -0.37359  -0.36964  -0.36650  -0.36588  -0.36293
 Alpha  occ. eigenvalues --   -0.35792  -0.34824  -0.34150  -0.33965  -0.33645
 Alpha  occ. eigenvalues --   -0.31699  -0.29774
 Alpha virt. eigenvalues --   -0.10628  -0.09026  -0.08673  -0.07503  -0.07167
 Alpha virt. eigenvalues --   -0.06882  -0.06660  -0.04748  -0.03410  -0.03050
 Alpha virt. eigenvalues --   -0.02231  -0.01564  -0.01421  -0.00728  -0.00381

 Mulliken charges:
               1
     1  N   -0.794831
     2  H    0.442260
     3  H    0.411913
     4  H    0.374636
     5  C   -0.041220
     6  H    0.192741
     7  C    0.628802
     8  C   -0.297168
     9  H    0.174364
    10  H    0.176832
    11  O   -0.653450
    12  C   -0.373464
    13  H    0.214191
    14  H    0.201089
    15  C    0.604824
    16  O   -0.430197
    17  O   -0.477170
    18  N   -0.652927
    19  H    0.348365
    20  C   -0.069694
    21  H    0.184471
    22  C    0.642049
    23  C   -0.355793
    24  H    0.160810
    25  H    0.200039
    26  O   -0.577482
    27  C    0.005534
    28  C   -0.015500
    29  H    0.175755
    30  C    0.120824
    31  C    0.311108
    32  C   -0.241997
    33  H    0.146760
    34  N   -0.669788
    35  H    0.345544
    36  C   -0.153982
    37  H    0.145273
    38  C   -0.157817
    39  H    0.148445
    40  C   -0.176123
    41  H    0.129736
    42  N   -0.586746
    43  H    0.366141
    44  C   -0.078409
    45  H    0.183714
    46  C    0.647982
    47  C    0.122143
    48  H    0.144701
    49  O   -0.526473
    50  C   -0.468538
    51  H    0.162893
    52  H    0.160068
    53  H    0.174954
    54  O   -0.632945
    55  H    0.411944
    56  N   -0.632407
    57  H    0.356741
    58  C   -0.027024
    59  H    0.206893
    60  C    0.585613
    61  C   -0.289072
    62  H    0.197134
    63  H    0.170797
    64  O   -0.464678
    65  C   -0.315193
    66  H    0.159917
    67  H    0.168404
    68  C   -0.134221
    69  H    0.169639
    70  H    0.154887
    71  N   -0.638741
    72  H    0.390962
    73  N   -0.748782
    74  H    0.354867
    75  H    0.357363
    76  N   -0.806519
    77  H    0.321696
    78  C    0.719817
    79  O   -0.560165
    80  H    0.429294
    81  H    0.443587
 Sum of Mulliken charges =   1.00000

 Dipole moment (field-independent basis, Debye):
    X=             -7.2390    Y=              9.8730    Z=             -6.1969  Tot=             13.7216
 Quadrupole moment (field-independent basis, Debye-Ang):
   XX=           -133.6796   YY=           -163.0793   ZZ=           -223.7558
   XY=            -30.0195   XZ=            -17.8759   YZ=            -28.4584

 Normal termination of Gaussian 16 at Fri Jul 15 03:34:42 2022.
