 Gaussian 16, Revision C.01,
 Gaussian 16:  ES64L-G16RevC.01  3-Jul-2019

 ----------------------------------------------------------------------
 # B3LYP/6-31G* empiricaldispersion=gd3bj guess=read geom=check nosymm
 integral(ultrafinegrid)
 ----------------------------------------------------------------------

 ------------------------------------------------------
 Candidate Structure: Conf:966 Charge calc in gas phase
 ------------------------------------------------------
 Structure from the checkpoint file:  "conf-966.chk"
 Charge =  1 Multiplicity = 1

                          Input orientation:
 ---------------------------------------------------------------------
 Center     Atomic      Atomic             Coordinates (Angstroms)
 Number     Number       Type             X           Y           Z
 ---------------------------------------------------------------------
      1          7           0       -4.265620   -0.188946    1.829923
      2          1           0       -4.303456    0.139575    0.839883
      3          1           0       -3.958140   -1.168018    1.782427
      4          1           0       -5.209993   -0.157885    2.224756
      5          6           0       -3.248259    0.640543    2.560780
      6          1           0       -3.606770    1.672577    2.523774
      7          6           0       -1.972264    0.527838    1.689365
      8          6           0       -3.004285    0.171977    3.985299
      9          1           0       -3.892458    0.309009    4.610643
     10          1           0       -2.751461   -0.893222    3.978181
     11          8           0       -1.644824   -0.819687    1.632419
     12          6           0       -1.828363    0.979914    4.563170
     13          1           0       -1.501232    0.576139    5.522238
     14          1           0       -2.136547    2.021075    4.730101
     15          6           0       -0.630320    1.024197    3.638221
     16          8           0        0.518056    0.933599    3.987524
     17          8           0       -0.904571    1.264383    2.304140
     18          7           0       -2.295549    1.094681    0.405306
     19          1           0       -2.130056    2.100224    0.413911
     20          6           0       -1.717243    0.508687   -0.815101
     21          1           0       -1.880112   -0.567625   -0.745648
     22          6           0       -0.225978    0.831835   -0.797865
     23          6           0       -2.433868    1.063422   -2.065308
     24          1           0       -2.182969    0.398814   -2.902770
     25          1           0       -2.017761    2.045885   -2.311402
     26          8           0        0.170265    1.991412   -0.877609
     27          6           0       -3.913643    1.155692   -1.849798
     28          6           0       -4.670267    2.299011   -1.888160
     29          1           0       -4.387189    3.295577   -2.197609
     30          6           0       -4.781093    0.111334   -1.355934
     31          6           0       -6.048529    0.711028   -1.079111
     32          6           0       -4.615858   -1.265498   -1.099747
     33          1           0       -3.684133   -1.765421   -1.347297
     34          7           0       -5.949173    2.040875   -1.423692
     35          1           0       -6.716053    2.696403   -1.445108
     36          6           0       -6.895948   -1.358006   -0.236134
     37          1           0       -7.703181   -1.945732    0.189932
     38          6           0       -7.106517   -0.010100   -0.513353
     39          1           0       -8.063768    0.460325   -0.308170
     40          6           0       -5.665971   -1.983843   -0.536358
     41          1           0       -5.551873   -3.047802   -0.351013
     42          7           0        0.579401   -0.219348   -0.524978
     43          1           0        0.194965   -1.153458   -0.531098
     44          6           0        1.936321   -0.052776   -0.015651
     45          1           0        1.973173    0.942220    0.441756
     46          6           0        2.904268   -0.113499   -1.214685
     47          6           0        2.177227   -1.124821    1.052761
     48          1           0        2.132045   -2.110128    0.578715
     49          8           0        3.595579   -1.100464   -1.449166
     50          6           0        3.511264   -0.959243    1.760639
     51          1           0        4.326007   -1.065504    1.040724
     52          1           0        3.622647   -1.722445    2.535655
     53          1           0        3.584303    0.029736    2.230830
     54          8           0        1.079863   -1.104270    1.998366
     55          1           0        1.240202   -0.372766    2.626493
     56          7           0        2.811420    0.987646   -1.994078
     57          1           0        2.152851    1.723533   -1.735305
     58          6           0        3.276152    1.049315   -3.370157
     59          1           0        4.370013    0.997269   -3.411722
     60          6           0        2.812173    2.398974   -3.909971
     61          6           0        2.695442   -0.097898   -4.234839
     62          1           0        3.099845   -1.029803   -3.835598
     63          1           0        3.099981    0.016225   -5.245872
     64          8           0        2.083333    3.146753   -3.292029
     65          6           0        1.147643   -0.142964   -4.253479
     66          1           0        0.798299   -1.076433   -3.795608
     67          1           0        0.739627    0.670745   -3.642362
     68          6           0        0.544424   -0.037583   -5.664996
     69          1           0        0.957230   -0.815702   -6.315137
     70          1           0       -0.538081   -0.205521   -5.634429
     71          7           0        0.788430    1.245169   -6.316033
     72          1           0        1.759133    1.389277   -6.568116
     73          7           0        0.847981    3.569758   -6.298574
     74          1           0        0.328688    4.383707   -5.979689
     75          1           0        0.940107    3.595532   -7.312897
     76          7           0       -0.863294    2.521205   -5.110609
     77          1           0       -1.189740    1.611041   -4.786326
     78          6           0        0.172051    2.398347   -5.854317
     79          8           0        3.219476    2.625308   -5.166958
     80          1           0        2.602898    3.320899   -5.532331
     81          1           0       -0.646675   -0.928043    1.632372
 ---------------------------------------------------------------------

 SCF Done:  E(RB3LYP) =  -2054.09514522     A.U. after    3 cycles

 Alpha  occ. eigenvalues --  -19.31631 -19.29070 -19.27394 -19.25643 -19.24994
 Alpha  occ. eigenvalues --  -19.21543 -19.20458 -19.18940 -14.59746 -14.48898
 Alpha  occ. eigenvalues --  -14.46505 -14.46401 -14.42324 -14.42120 -14.42034
 Alpha  occ. eigenvalues --  -14.35972 -10.47428 -10.45176 -10.40021 -10.38421
 Alpha  occ. eigenvalues --  -10.38383 -10.36099 -10.35152 -10.34644 -10.34051
 Alpha  occ. eigenvalues --  -10.33712 -10.33566 -10.33420 -10.32523 -10.31871
 Alpha  occ. eigenvalues --  -10.30671 -10.30563 -10.30405 -10.30045 -10.29987
 Alpha  occ. eigenvalues --  -10.29778 -10.29600 -10.29598 -10.29053 -10.26084
 Alpha  occ. eigenvalues --  -10.25872 -10.25574  -1.24632  -1.18844  -1.16652
 Alpha  occ. eigenvalues --   -1.14805  -1.13934  -1.13538  -1.12113  -1.10639
 Alpha  occ. eigenvalues --   -1.08862  -1.07882  -1.04806  -1.04097  -1.02806
 Alpha  occ. eigenvalues --   -0.99504  -0.96110  -0.96034  -0.95371  -0.91850
 Alpha  occ. eigenvalues --   -0.91505  -0.89119  -0.87534  -0.86164  -0.85652
 Alpha  occ. eigenvalues --   -0.84811  -0.82976  -0.81830  -0.79849  -0.79390
 Alpha  occ. eigenvalues --   -0.78128  -0.75426  -0.74924  -0.74328  -0.73400
 Alpha  occ. eigenvalues --   -0.71765  -0.71373  -0.70588  -0.70152  -0.69091
 Alpha  occ. eigenvalues --   -0.68440  -0.67741  -0.67577  -0.66746  -0.65444
 Alpha  occ. eigenvalues --   -0.64766  -0.64664  -0.63801  -0.63450  -0.62800
 Alpha  occ. eigenvalues --   -0.61547  -0.60787  -0.60443  -0.59700  -0.59449
 Alpha  occ. eigenvalues --   -0.58855  -0.58656  -0.58417  -0.58097  -0.57030
 Alpha  occ. eigenvalues --   -0.56437  -0.56034  -0.55900  -0.55280  -0.54612
 Alpha  occ. eigenvalues --   -0.54421  -0.54311  -0.54060  -0.53700  -0.53500
 Alpha  occ. eigenvalues --   -0.53370  -0.52593  -0.52277  -0.52229  -0.51678
 Alpha  occ. eigenvalues --   -0.51493  -0.51271  -0.50258  -0.50105  -0.49860
 Alpha  occ. eigenvalues --   -0.49556  -0.49226  -0.48711  -0.47939  -0.47902
 Alpha  occ. eigenvalues --   -0.47375  -0.47082  -0.46637  -0.46253  -0.45813
 Alpha  occ. eigenvalues --   -0.45536  -0.45368  -0.44916  -0.44859  -0.44636
 Alpha  occ. eigenvalues --   -0.43970  -0.43875  -0.42898  -0.42522  -0.42319
 Alpha  occ. eigenvalues --   -0.41768  -0.40938  -0.40862  -0.39520  -0.38234
 Alpha  occ. eigenvalues --   -0.38150  -0.38075  -0.36567  -0.34854  -0.34556
 Alpha  occ. eigenvalues --   -0.33973  -0.33811  -0.33545  -0.32499  -0.31861
 Alpha  occ. eigenvalues --   -0.31406  -0.29974
 Alpha virt. eigenvalues --   -0.13811  -0.12736  -0.09790  -0.09534  -0.08427
 Alpha virt. eigenvalues --   -0.06257  -0.05539  -0.05115  -0.04687  -0.04157
 Alpha virt. eigenvalues --   -0.03684  -0.02502  -0.01956  -0.01846  -0.01320

 Mulliken charges:
               1
     1  N   -0.763426
     2  H    0.453053
     3  H    0.416827
     4  H    0.409441
     5  C   -0.043514
     6  H    0.201592
     7  C    0.661934
     8  C   -0.305475
     9  H    0.182678
    10  H    0.195088
    11  O   -0.693773
    12  C   -0.366657
    13  H    0.220851
    14  H    0.207942
    15  C    0.611142
    16  O   -0.420843
    17  O   -0.482563
    18  N   -0.630282
    19  H    0.345568
    20  C   -0.057001
    21  H    0.149844
    22  C    0.637180
    23  C   -0.397589
    24  H    0.164054
    25  H    0.215771
    26  O   -0.527436
    27  C    0.107721
    28  C   -0.001289
    29  H    0.188958
    30  C    0.010019
    31  C    0.315017
    32  C   -0.243656
    33  H    0.148059
    34  N   -0.679021
    35  H    0.348661
    36  C   -0.172871
    37  H    0.158377
    38  C   -0.180011
    39  H    0.156643
    40  C   -0.171095
    41  H    0.153681
    42  N   -0.604343
    43  H    0.334806
    44  C   -0.083523
    45  H    0.187812
    46  C    0.647797
    47  C    0.110881
    48  H    0.168160
    49  O   -0.532044
    50  C   -0.491088
    51  H    0.203661
    52  H    0.176148
    53  H    0.155200
    54  O   -0.684072
    55  H    0.437393
    56  N   -0.645021
    57  H    0.401530
    58  C   -0.033312
    59  H    0.194212
    60  C    0.600946
    61  C   -0.296654
    62  H    0.196692
    63  H    0.155652
    64  O   -0.464547
    65  C   -0.289762
    66  H    0.133238
    67  H    0.163022
    68  C   -0.174408
    69  H    0.167246
    70  H    0.150907
    71  N   -0.571097
    72  H    0.336399
    73  N   -0.793934
    74  H    0.355340
    75  H    0.340510
    76  N   -0.638325
    77  H    0.278303
    78  C    0.571843
    79  O   -0.610263
    80  H    0.447035
    81  H    0.474060
 Sum of Mulliken charges =   1.00000

 Dipole moment (field-independent basis, Debye):
    X=            -18.6026    Y=              1.6882    Z=              3.2819  Tot=             18.9652
 Quadrupole moment (field-independent basis, Debye-Ang):
   XX=           -141.2021   YY=           -228.7719   ZZ=           -169.2072
   XY=            -11.4972   XZ=            -39.2900   YZ=             -9.7492

 Normal termination of Gaussian 16 at Fri Jul 15 03:35:20 2022.
