 Gaussian 16, Revision C.01,
 Gaussian 16:  ES64L-G16RevC.01  3-Jul-2019

 ----------------------------------------------------------------------
 # B3LYP/6-31G* empiricaldispersion=gd3bj guess=read geom=check nosymm
 integral(ultrafinegrid)
 ----------------------------------------------------------------------

 ------------------------------------------------------
 Candidate Structure: Conf:885 Charge calc in gas phase
 ------------------------------------------------------
 Structure from the checkpoint file:  "conf-885.chk"
 Charge =  1 Multiplicity = 1

                          Input orientation:
 ---------------------------------------------------------------------
 Center     Atomic      Atomic             Coordinates (Angstroms)
 Number     Number       Type             X           Y           Z
 ---------------------------------------------------------------------
      1          7           0       -2.533806   -0.085311    4.440814
      2          1           0       -3.080745   -0.851591    4.052428
      3          1           0       -0.934814   -0.492130    4.371833
      4          1           0       -2.899506    0.143221    5.362583
      5          6           0       -2.562671    1.095789    3.566453
      6          1           0       -3.490676    1.674325    3.680990
      7          6           0       -2.470754    0.613477    2.121506
      8          6           0       -1.359840    2.007693    3.929927
      9          1           0       -1.588809    3.037404    3.632152
     10          1           0       -1.293709    2.022578    5.023702
     11          8           0       -2.222889   -0.567009    1.851801
     12          6           0        0.004628    1.652659    3.310733
     13          1           0        0.761462    2.308119    3.756896
     14          1           0        0.014816    1.907366    2.246389
     15          6           0        0.601316    0.242623    3.393553
     16          8           0        0.020838   -0.710194    4.092925
     17          8           0        1.646887    0.029514    2.788341
     18          7           0       -2.616775    1.534486    1.134974
     19          1           0       -2.713975    2.519660    1.345593
     20          6           0       -2.328025    1.120082   -0.236635
     21          1           0       -2.936420    0.237590   -0.450497
     22          6           0       -0.845889    0.738317   -0.309586
     23          6           0       -2.579168    2.179692   -1.312298
     24          1           0       -2.038131    3.096047   -1.055350
     25          1           0       -3.647707    2.419567   -1.347903
     26          8           0        0.072603    1.497629   -0.224410
     27          6           0       -2.053212    1.628288   -2.613147
     28          6           0       -2.491215    0.483935   -3.254003
     29          1           0       -3.318291   -0.172939   -3.018842
     30          6           0       -0.957420    2.147760   -3.394738
     31          6           0       -0.790458    1.275006   -4.503854
     32          6           0       -0.113907    3.267251   -3.276728
     33          1           0       -0.210567    3.949759   -2.437030
     34          7           0       -1.733928    0.272400   -4.382364
     35          1           0       -1.868443   -0.481774   -5.038655
     36          6           0        0.967387    2.628954   -5.369383
     37          1           0        1.706730    2.858183   -6.131418
     38          6           0        0.168156    1.499824   -5.497170
     39          1           0        0.268130    0.830283   -6.346422
     40          6           0        0.831637    3.500557   -4.265741
     41          1           0        1.484323    4.365593   -4.204145
     42          7           0       -0.580959   -0.741613   -0.404071
     43          1           0       -0.553805   -0.992197   -1.445018
     44          6           0        0.793712   -1.148718    0.035678
     45          1           0        1.235688   -0.294807    0.548791
     46          6           0        1.524192   -1.384447   -1.289146
     47          6           0        0.805782   -2.348345    1.017818
     48          1           0        0.078877   -2.127965    1.811728
     49          8           0        0.867482   -1.285394   -2.342432
     50          6           0        0.470553   -3.679389    0.362376
     51          1           0       -0.516827   -3.658399   -0.115402
     52          1           0        0.467245   -4.466165    1.120178
     53          1           0        1.218833   -3.937655   -0.392831
     54          8           0        2.114865   -2.411834    1.544626
     55          1           0        2.175037   -1.687117    2.207532
     56          7           0        2.827359   -1.630659   -1.205545
     57          1           0        3.223623   -1.863674   -0.294471
     58          6           0        3.691535   -1.628059   -2.377964
     59          1           0        3.090892   -1.926652   -3.240767
     60          6           0        4.794033   -2.645390   -2.141187
     61          6           0        4.299612   -0.225588   -2.632784
     62          1           0        4.799289   -0.246033   -3.606023
     63          1           0        5.074552   -0.029522   -1.880486
     64          8           0        5.047248   -3.133473   -1.063386
     65          6           0        3.254620    0.895039   -2.582893
     66          1           0        2.397376    0.652714   -3.223533
     67          1           0        2.859296    0.984985   -1.565426
     68          6           0        3.803735    2.258229   -2.991220
     69          1           0        3.055288    3.022938   -2.736582
     70          1           0        4.715875    2.489841   -2.426921
     71          7           0        4.109069    2.277677   -4.416429
     72          1           0        3.465746    1.702587   -4.951475
     73          7           0        4.275284    3.408096   -6.433231
     74          1           0        4.558069    4.284732   -6.858995
     75          1           0        4.820378    2.631380   -6.794789
     76          7           0        4.486263    4.659327   -4.487261
     77          1           0        4.384458    4.611097   -3.473982
     78          6           0        4.313839    3.514441   -5.036036
     79          8           0        5.480050   -2.892265   -3.270271
     80          1           0        6.201313   -3.509915   -3.041641
     81          1           0       -1.323557   -1.217213    0.126008
 ---------------------------------------------------------------------

 SCF Done:  E(RB3LYP) =  -2054.09737654     A.U. after    2 cycles

 Alpha  occ. eigenvalues --  -19.31627 -19.28757 -19.27622 -19.27416 -19.24970
 Alpha  occ. eigenvalues --  -19.23850 -19.23306 -19.23183 -14.56551 -14.51730
 Alpha  occ. eigenvalues --  -14.48052 -14.47309 -14.47288 -14.41162 -14.39856
 Alpha  occ. eigenvalues --  -14.34432 -10.46911 -10.44230 -10.42309 -10.41282
 Alpha  occ. eigenvalues --  -10.41208 -10.38920 -10.37300 -10.35975 -10.35343
 Alpha  occ. eigenvalues --  -10.33638 -10.33637 -10.32739 -10.32733 -10.32624
 Alpha  occ. eigenvalues --  -10.31508 -10.31198 -10.29419 -10.29019 -10.28011
 Alpha  occ. eigenvalues --  -10.27980 -10.27718 -10.27598 -10.27459 -10.27014
 Alpha  occ. eigenvalues --  -10.26603 -10.26353  -1.23398  -1.19803  -1.19633
 Alpha  occ. eigenvalues --   -1.19146  -1.17033  -1.12118  -1.11055  -1.10688
 Alpha  occ. eigenvalues --   -1.10522  -1.08062  -1.07827  -1.04426  -1.03984
 Alpha  occ. eigenvalues --   -1.03609  -0.95061  -0.94696  -0.92674  -0.91452
 Alpha  occ. eigenvalues --   -0.90623  -0.89929  -0.88356  -0.87364  -0.83864
 Alpha  occ. eigenvalues --   -0.83853  -0.82704  -0.82445  -0.81124  -0.79370
 Alpha  occ. eigenvalues --   -0.77355  -0.75534  -0.74172  -0.73638  -0.72960
 Alpha  occ. eigenvalues --   -0.72122  -0.71432  -0.70785  -0.69795  -0.68787
 Alpha  occ. eigenvalues --   -0.68669  -0.68425  -0.67429  -0.66393  -0.65683
 Alpha  occ. eigenvalues --   -0.64885  -0.64221  -0.63596  -0.63282  -0.62542
 Alpha  occ. eigenvalues --   -0.61661  -0.61040  -0.60560  -0.60248  -0.60126
 Alpha  occ. eigenvalues --   -0.59552  -0.58766  -0.58331  -0.57775  -0.57646
 Alpha  occ. eigenvalues --   -0.57247  -0.56686  -0.56198  -0.56043  -0.55902
 Alpha  occ. eigenvalues --   -0.55612  -0.55161  -0.54945  -0.53693  -0.53466
 Alpha  occ. eigenvalues --   -0.53309  -0.52730  -0.52517  -0.51930  -0.51838
 Alpha  occ. eigenvalues --   -0.51556  -0.51065  -0.50991  -0.50910  -0.50748
 Alpha  occ. eigenvalues --   -0.50408  -0.49866  -0.49457  -0.49400  -0.48607
 Alpha  occ. eigenvalues --   -0.48512  -0.48238  -0.48071  -0.47557  -0.46787
 Alpha  occ. eigenvalues --   -0.46387  -0.45830  -0.45028  -0.44557  -0.44115
 Alpha  occ. eigenvalues --   -0.43628  -0.43274  -0.43108  -0.42511  -0.42063
 Alpha  occ. eigenvalues --   -0.41721  -0.41567  -0.41016  -0.40772  -0.40315
 Alpha  occ. eigenvalues --   -0.39506  -0.39353  -0.37380  -0.37188  -0.37061
 Alpha  occ. eigenvalues --   -0.36896  -0.36519  -0.32241  -0.31822  -0.31402
 Alpha  occ. eigenvalues --   -0.30153  -0.29023
 Alpha virt. eigenvalues --   -0.18065  -0.13397  -0.10700  -0.10331  -0.09108
 Alpha virt. eigenvalues --   -0.08014  -0.06855  -0.06402  -0.05247  -0.04310
 Alpha virt. eigenvalues --   -0.03724  -0.02934  -0.01437  -0.01069  -0.00839

 Mulliken charges:
               1
     1  N   -0.775722
     2  H    0.357684
     3  H    0.476444
     4  H    0.350493
     5  C   -0.084293
     6  H    0.183292
     7  C    0.639723
     8  C   -0.292509
     9  H    0.166222
    10  H    0.186749
    11  O   -0.549735
    12  C   -0.400169
    13  H    0.217648
    14  H    0.188567
    15  C    0.607409
    16  O   -0.585109
    17  O   -0.506202
    18  N   -0.605158
    19  H    0.360033
    20  C   -0.029651
    21  H    0.184492
    22  C    0.606745
    23  C   -0.367307
    24  H    0.182156
    25  H    0.191733
    26  O   -0.380214
    27  C   -0.003357
    28  C   -0.010853
    29  H    0.164626
    30  C    0.096526
    31  C    0.327229
    32  C   -0.204237
    33  H    0.132772
    34  N   -0.678830
    35  H    0.346343
    36  C   -0.184201
    37  H    0.183806
    38  C   -0.166240
    39  H    0.144258
    40  C   -0.150431
    41  H    0.164500
    42  N   -0.737679
    43  H    0.432647
    44  C   -0.119755
    45  H    0.252461
    46  C    0.643663
    47  C    0.103053
    48  H    0.171637
    49  O   -0.562399
    50  C   -0.462464
    51  H    0.131334
    52  H    0.196686
    53  H    0.179443
    54  O   -0.633182
    55  H    0.441029
    56  N   -0.592526
    57  H    0.389161
    58  C   -0.059410
    59  H    0.205663
    60  C    0.588660
    61  C   -0.263882
    62  H    0.186096
    63  H    0.158598
    64  O   -0.449098
    65  C   -0.324165
    66  H    0.170629
    67  H    0.147098
    68  C   -0.124545
    69  H    0.143430
    70  H    0.159510
    71  N   -0.596745
    72  H    0.318728
    73  N   -0.757004
    74  H    0.343947
    75  H    0.324616
    76  N   -0.640441
    77  H    0.283038
    78  C    0.573381
    79  O   -0.559417
    80  H    0.429972
    81  H    0.423001
 Sum of Mulliken charges =   1.00000

 Dipole moment (field-independent basis, Debye):
    X=             -7.8196    Y=              0.4634    Z=              0.2984  Tot=              7.8390
 Quadrupole moment (field-independent basis, Debye-Ang):
   XX=           -193.4601   YY=           -238.2308   ZZ=           -170.2784
   XY=            -19.8348   XZ=            -40.5402   YZ=             35.0013

 Normal termination of Gaussian 16 at Fri Jul 15 03:35:03 2022.
