 Gaussian 16, Revision C.01,
 Gaussian 16:  ES64L-G16RevC.01  3-Jul-2019

 ----------------------------------------------------------------------
 # B3LYP/6-31G* empiricaldispersion=gd3bj guess=read geom=check nosymm
 integral(ultrafinegrid)
 ----------------------------------------------------------------------

 ------------------------------------------------------
 Candidate Structure: Conf:156 Charge calc in gas phase
 ------------------------------------------------------
 Structure from the checkpoint file:  "conf-156.chk"
 Charge =  1 Multiplicity = 1

                          Input orientation:
 ---------------------------------------------------------------------
 Center     Atomic      Atomic             Coordinates (Angstroms)
 Number     Number       Type             X           Y           Z
 ---------------------------------------------------------------------
      1          7           0       -2.897969    2.411881   -3.202591
      2          1           0       -3.386942    2.842909   -2.396231
      3          1           0       -2.194801    3.100862   -3.648816
      4          1           0       -3.617642    2.220044   -3.905730
      5          6           0       -2.268299    1.111780   -2.772158
      6          1           0       -3.101724    0.466660   -2.494417
      7          6           0       -1.479475    1.365001   -1.505478
      8          6           0       -1.442562    0.452557   -3.880323
      9          1           0       -2.066570    0.331605   -4.774778
     10          1           0       -0.587712    1.085618   -4.143733
     11          8           0       -0.774812    2.509108   -1.496500
     12          6           0       -0.933691   -0.934751   -3.427015
     13          1           0       -0.235331   -0.832980   -2.591484
     14          1           0       -0.395870   -1.389816   -4.260803
     15          6           0       -2.101772   -1.865496   -3.088742
     16          8           0       -2.584813   -1.806653   -1.826327
     17          8           0       -2.616524   -2.581775   -3.913072
     18          7           0       -1.609834    0.514868   -0.569094
     19          1           0       -2.132779   -1.118820   -1.273958
     20          6           0       -1.226029    0.878783    0.799242
     21          1           0       -1.420195    1.946454    0.945214
     22          6           0        0.290015    0.770374    0.838044
     23          6           0       -2.142227    0.101932    1.770226
     24          1           0       -2.113934    0.599545    2.747037
     25          1           0       -1.784043   -0.923665    1.920330
     26          8           0        0.939589    1.727279    0.364268
     27          6           0       -3.525599    0.035821    1.170496
     28          6           0       -4.211790   -1.124931    0.911272
     29          1           0       -3.982827   -2.137647    1.211818
     30          6           0       -4.232414    1.086557    0.468501
     31          6           0       -5.322074    0.468700   -0.217062
     32          6           0       -4.023812    2.463780    0.274971
     33          1           0       -3.242033    2.991116    0.812930
     34          7           0       -5.301667   -0.867409    0.107678
     35          1           0       -5.923516   -1.570622   -0.261893
     36          6           0       -5.904838    2.525232   -1.284598
     37          1           0       -6.549789    3.101953   -1.941021
     38          6           0       -6.158396    1.171611   -1.091310
     39          1           0       -6.979605    0.676601   -1.601226
     40          6           0       -4.847467    3.169752   -0.602056
     41          1           0       -4.715456    4.243258   -0.713152
     42          7           0        0.856194   -0.381277    1.198596
     43          1           0        0.314616   -1.129263    1.618984
     44          6           0        2.222387   -0.738897    0.846656
     45          1           0        2.924774   -0.319385    1.579402
     46          6           0        2.529443   -0.220731   -0.570168
     47          6           0        2.305158   -2.288523    0.854521
     48          1           0        1.750542   -2.635046   -0.022560
     49          8           0        1.789192   -0.490015   -1.513145
     50          6           0        3.741859   -2.785443    0.804673
     51          1           0        4.260178   -2.406220   -0.081597
     52          1           0        3.758822   -3.877850    0.774737
     53          1           0        4.301877   -2.452824    1.688784
     54          8           0        1.582621   -2.806945    1.969857
     55          1           0        2.150295   -2.753622    2.756769
     56          7           0        3.677858    0.481586   -0.696498
     57          1           0        4.147752    0.811222    0.136178
     58          6           0        3.983240    1.185738   -1.937280
     59          1           0        3.824810    0.496708   -2.769627
     60          6           0        5.441223    1.608810   -1.972660
     61          6           0        3.053104    2.411520   -2.112533
     62          1           0        3.181311    3.073693   -1.247476
     63          1           0        2.036821    2.011985   -2.054846
     64          8           0        6.067721    1.805304   -2.984966
     65          6           0        3.265275    3.190964   -3.412554
     66          1           0        4.272848    3.616812   -3.433489
     67          1           0        3.194348    2.520022   -4.277010
     68          6           0        2.261029    4.331737   -3.584924
     69          1           0        2.257948    4.970275   -2.686223
     70          1           0        2.567366    4.958815   -4.428153
     71          7           0        0.924115    3.826997   -3.894358
     72          1           0        0.576953    3.104433   -3.271329
     73          7           0       -1.247867    4.037483   -4.738908
     74          1           0       -1.850801    4.759529   -5.136549
     75          1           0       -1.005853    3.383165   -5.485533
     76          7           0       -0.025094    5.984419   -4.425942
     77          1           0        0.817501    6.394711   -4.023372
     78          6           0       -0.049738    4.717102   -4.308354
     79          8           0        5.942981    1.814198   -0.729349
     80          1           0        6.865644    2.114523   -0.839143
     81          1           0       -0.096788    2.452648   -0.745804
 ---------------------------------------------------------------------

 SCF Done:  E(RB3LYP) =  -2054.09407127     A.U. after    3 cycles

 Alpha  occ. eigenvalues --  -19.31454 -19.29713 -19.25841 -19.25728 -19.24671
 Alpha  occ. eigenvalues --  -19.23553 -19.22187 -19.20451 -14.56605 -14.48298
 Alpha  occ. eigenvalues --  -14.47534 -14.47417 -14.46639 -14.45191 -14.45134
 Alpha  occ. eigenvalues --  -14.39667 -10.42002 -10.41824 -10.41260 -10.39536
 Alpha  occ. eigenvalues --  -10.39232 -10.38721 -10.38406 -10.34827 -10.34752
 Alpha  occ. eigenvalues --  -10.34465 -10.33884 -10.32727 -10.32138 -10.31692
 Alpha  occ. eigenvalues --  -10.31540 -10.30521 -10.29345 -10.29265 -10.29237
 Alpha  occ. eigenvalues --  -10.29017 -10.28881 -10.28878 -10.28763 -10.28242
 Alpha  occ. eigenvalues --  -10.28057 -10.27790  -1.20802  -1.20395  -1.16551
 Alpha  occ. eigenvalues --   -1.16303  -1.14029  -1.13203  -1.11819  -1.11419
 Alpha  occ. eigenvalues --   -1.08527  -1.08452  -1.07671  -1.04983  -1.04234
 Alpha  occ. eigenvalues --   -1.03376  -1.00064  -0.95268  -0.94313  -0.93606
 Alpha  occ. eigenvalues --   -0.91066  -0.90297  -0.88624  -0.86915  -0.84519
 Alpha  occ. eigenvalues --   -0.84181  -0.83623  -0.82399  -0.80895  -0.77951
 Alpha  occ. eigenvalues --   -0.77686  -0.75769  -0.73874  -0.73315  -0.72416
 Alpha  occ. eigenvalues --   -0.71902  -0.70761  -0.69955  -0.69627  -0.69250
 Alpha  occ. eigenvalues --   -0.68796  -0.68480  -0.68067  -0.67707  -0.67187
 Alpha  occ. eigenvalues --   -0.65715  -0.65518  -0.64142  -0.63553  -0.63106
 Alpha  occ. eigenvalues --   -0.62518  -0.61523  -0.61117  -0.60851  -0.60017
 Alpha  occ. eigenvalues --   -0.58930  -0.58477  -0.58027  -0.57637  -0.57384
 Alpha  occ. eigenvalues --   -0.57203  -0.56906  -0.56849  -0.56248  -0.55311
 Alpha  occ. eigenvalues --   -0.54908  -0.54335  -0.54064  -0.53485  -0.53274
 Alpha  occ. eigenvalues --   -0.53066  -0.52819  -0.52560  -0.52324  -0.52081
 Alpha  occ. eigenvalues --   -0.51775  -0.51277  -0.51195  -0.50796  -0.50583
 Alpha  occ. eigenvalues --   -0.50423  -0.49775  -0.49262  -0.48672  -0.48585
 Alpha  occ. eigenvalues --   -0.48133  -0.47933  -0.47571  -0.47210  -0.47108
 Alpha  occ. eigenvalues --   -0.46986  -0.46412  -0.45686  -0.45260  -0.44526
 Alpha  occ. eigenvalues --   -0.44170  -0.43998  -0.43786  -0.43281  -0.43235
 Alpha  occ. eigenvalues --   -0.41457  -0.41275  -0.40179  -0.39687  -0.39460
 Alpha  occ. eigenvalues --   -0.38358  -0.37861  -0.37667  -0.37421  -0.37008
 Alpha  occ. eigenvalues --   -0.36623  -0.36206  -0.35025  -0.34097  -0.33626
 Alpha  occ. eigenvalues --   -0.32624  -0.30298
 Alpha virt. eigenvalues --   -0.13436  -0.11306  -0.10904  -0.09488  -0.08772
 Alpha virt. eigenvalues --   -0.08254  -0.07995  -0.06715  -0.06446  -0.03793
 Alpha virt. eigenvalues --   -0.03580  -0.03076  -0.02328  -0.02027  -0.01583

 Mulliken charges:
               1
     1  N   -0.790442
     2  H    0.403081
     3  H    0.455376
     4  H    0.393459
     5  C   -0.107117
     6  H    0.234728
     7  C    0.578130
     8  C   -0.298759
     9  H    0.176822
    10  H    0.170169
    11  O   -0.651868
    12  C   -0.397600
    13  H    0.219744
    14  H    0.197951
    15  C    0.565595
    16  O   -0.609139
    17  O   -0.435508
    18  N   -0.472358
    19  H    0.452167
    20  C   -0.123626
    21  H    0.171309
    22  C    0.672336
    23  C   -0.368100
    24  H    0.178624
    25  H    0.158063
    26  O   -0.577166
    27  C    0.067477
    28  C    0.029928
    29  H    0.179273
    30  C    0.089595
    31  C    0.318550
    32  C   -0.230474
    33  H    0.147033
    34  N   -0.672756
    35  H    0.351311
    36  C   -0.172382
    37  H    0.150072
    38  C   -0.163981
    39  H    0.155784
    40  C   -0.217788
    41  H    0.151039
    42  N   -0.616388
    43  H    0.374805
    44  C   -0.028463
    45  H    0.154163
    46  C    0.657265
    47  C    0.102765
    48  H    0.184511
    49  O   -0.548705
    50  C   -0.484616
    51  H    0.176397
    52  H    0.192626
    53  H    0.148730
    54  O   -0.625548
    55  H    0.404765
    56  N   -0.613010
    57  H    0.358740
    58  C   -0.041458
    59  H    0.205631
    60  C    0.591314
    61  C   -0.287183
    62  H    0.158348
    63  H    0.158730
    64  O   -0.441731
    65  C   -0.288369
    66  H    0.177883
    67  H    0.163218
    68  C   -0.146753
    69  H    0.149293
    70  H    0.177404
    71  N   -0.618372
    72  H    0.356209
    73  N   -0.830726
    74  H    0.361928
    75  H    0.351327
    76  N   -0.602538
    77  H    0.306400
    78  C    0.566237
    79  O   -0.582206
    80  H    0.430651
    81  H    0.468169
 Sum of Mulliken charges =   1.00000

 Dipole moment (field-independent basis, Debye):
    X=             -2.2743    Y=              7.7481    Z=             -4.2158  Tot=              9.1093
 Quadrupole moment (field-independent basis, Debye-Ang):
   XX=           -159.4483   YY=           -225.7714   ZZ=           -204.9860
   XY=            -13.0706   XZ=             32.2338   YZ=            -40.8513

 Normal termination of Gaussian 16 at Fri Jul 15 03:35:25 2022.
