 Gaussian 16, Revision C.01,
 Gaussian 16:  ES64L-G16RevC.01  3-Jul-2019

 ----------------------------------------------------------------------
 # B3LYP/6-31G* empiricaldispersion=gd3bj guess=read geom=check nosymm
 integral(ultrafinegrid)
 ----------------------------------------------------------------------

 ------------------------------------------------------
 Candidate Structure: Conf:796 Charge calc in gas phase
 ------------------------------------------------------
 Structure from the checkpoint file:  "conf-796.chk"
 Charge =  1 Multiplicity = 1

                          Input orientation:
 ---------------------------------------------------------------------
 Center     Atomic      Atomic             Coordinates (Angstroms)
 Number     Number       Type             X           Y           Z
 ---------------------------------------------------------------------
      1          7           0       -4.736511    0.692253    3.610564
      2          1           0       -5.486667    0.366244    3.004418
      3          1           0       -4.318838   -0.123434    4.056272
      4          1           0       -5.389828    2.290566    4.542816
      5          6           0       -3.742703    1.460170    2.857901
      6          1           0       -4.268367    2.340853    2.464308
      7          6           0       -3.263232    0.724790    1.613641
      8          6           0       -2.601996    1.940375    3.770556
      9          1           0       -1.942690    1.099407    4.022874
     10          1           0       -2.001941    2.678812    3.226241
     11          8           0       -4.225435    0.147039    0.945447
     12          6           0       -3.098406    2.584468    5.081180
     13          1           0       -2.245336    3.027939    5.597420
     14          1           0       -3.532635    1.819986    5.732735
     15          6           0       -4.113812    3.698643    4.822090
     16          8           0       -5.371979    3.276195    4.557787
     17          8           0       -3.822694    4.867788    4.802754
     18          7           0       -2.006107    0.686429    1.287387
     19          1           0       -1.306381    1.105422    1.917099
     20          6           0       -1.322223   -0.001575    0.188131
     21          1           0       -1.772079   -0.991182    0.054767
     22          6           0        0.129350   -0.123835    0.696699
     23          6           0       -1.366697    0.815652   -1.130435
     24          1           0       -0.834179    0.229663   -1.889981
     25          1           0       -0.808361    1.745467   -0.987707
     26          8           0        0.468849    0.515020    1.704005
     27          6           0       -2.757985    1.133021   -1.559909
     28          6           0       -3.338723    2.379706   -1.552292
     29          1           0       -2.889781    3.334678   -1.315581
     30          6           0       -3.790368    0.195361   -1.945224
     31          6           0       -4.980107    0.955495   -2.159375
     32          6           0       -3.833826   -1.205587   -2.119606
     33          1           0       -2.939151   -1.809986   -1.993809
     34          7           0       -4.666202    2.276469   -1.912117
     35          1           0       -5.298978    3.055024   -2.023346
     36          6           0       -6.194717   -1.022638   -2.694980
     37          1           0       -7.115868   -1.516254   -2.987303
     38          6           0       -6.185271    0.358123   -2.538436
     39          1           0       -7.081004    0.948416   -2.705131
     40          6           0       -5.034904   -1.797491   -2.486996
     41          1           0       -5.082027   -2.872209   -2.629504
     42          7           0        0.946628   -0.876821   -0.034193
     43          1           0        0.656904   -1.318999   -0.901237
     44          6           0        2.371463   -0.949717    0.233652
     45          1           0        2.658785   -0.021553    0.735831
     46          6           0        3.049277   -1.057639   -1.136292
     47          6           0        2.692731   -2.146055    1.172621
     48          1           0        2.479622   -3.071034    0.626022
     49          8           0        2.475432   -1.625691   -2.064987
     50          6           0        4.147831   -2.138190    1.634979
     51          1           0        4.844533   -2.261758    0.799786
     52          1           0        4.307922   -2.958058    2.339481
     53          1           0        4.388806   -1.198266    2.149932
     54          8           0        1.787456   -2.149954    2.263772
     55          1           0        1.860033   -1.295257    2.721014
     56          7           0        4.265471   -0.480610   -1.231401
     57          1           0        4.689600   -0.084407   -0.403978
     58          6           0        5.101754   -0.555824   -2.428668
     59          1           0        5.236423   -1.609525   -2.702169
     60          6           0        6.497229   -0.012561   -2.138131
     61          6           0        4.508785    0.177396   -3.653955
     62          1           0        3.688251   -0.436816   -4.034540
     63          1           0        5.290629    0.182851   -4.417262
     64          8           0        7.376967    0.033078   -2.959517
     65          6           0        4.008170    1.604892   -3.346822
     66          1           0        4.368267    1.935726   -2.364080
     67          1           0        4.410095    2.321963   -4.069647
     68          6           0        2.474457    1.660419   -3.375008
     69          1           0        2.135736    1.489332   -4.403031
     70          1           0        2.065599    0.845088   -2.773435
     71          7           0        1.897299    2.928557   -2.912537
     72          1           0        1.476437    3.501857   -3.630595
     73          7           0        1.858928    2.242624   -0.688749
     74          1           0        1.499713    2.485865    0.228174
     75          1           0        2.872826    2.246739   -0.706625
     76          7           0        0.241210    3.746513   -1.380325
     77          1           0       -0.156706    4.174876   -2.218210
     78          6           0        1.277802    3.039321   -1.680616
     79          8           0        6.646860    0.426502   -0.860613
     80          1           0        7.566179    0.744987   -0.776480
     81          1           0       -4.003558   -0.096667    0.005312
 ---------------------------------------------------------------------

 SCF Done:  E(RB3LYP) =  -2054.07903587     A.U. after    3 cycles

 Alpha  occ. eigenvalues --  -19.35729 -19.30248 -19.25568 -19.25205 -19.23832
 Alpha  occ. eigenvalues --  -19.23649 -19.22863 -19.20237 -14.54407 -14.49409
 Alpha  occ. eigenvalues --  -14.48530 -14.47284 -14.46836 -14.44021 -14.43605
 Alpha  occ. eigenvalues --  -14.37726 -10.47931 -10.42202 -10.42116 -10.39989
 Alpha  occ. eigenvalues --  -10.38934 -10.38444 -10.37732 -10.37312 -10.34237
 Alpha  occ. eigenvalues --  -10.34229 -10.34128 -10.33453 -10.33423 -10.32369
 Alpha  occ. eigenvalues --  -10.31531 -10.30956 -10.30251 -10.30165 -10.29996
 Alpha  occ. eigenvalues --  -10.29724 -10.29655 -10.29150 -10.28955 -10.27849
 Alpha  occ. eigenvalues --  -10.27572 -10.27266  -1.25992  -1.20760  -1.17444
 Alpha  occ. eigenvalues --   -1.16454  -1.14873  -1.11779  -1.11721  -1.11251
 Alpha  occ. eigenvalues --   -1.09351  -1.08476  -1.06793  -1.05179  -1.04074
 Alpha  occ. eigenvalues --   -1.03892  -0.97655  -0.95475  -0.94286  -0.93466
 Alpha  occ. eigenvalues --   -0.91005  -0.90391  -0.89281  -0.87469  -0.85516
 Alpha  occ. eigenvalues --   -0.84645  -0.83984  -0.83258  -0.81234  -0.79985
 Alpha  occ. eigenvalues --   -0.78549  -0.76886  -0.74447  -0.73301  -0.72907
 Alpha  occ. eigenvalues --   -0.72416  -0.72132  -0.71634  -0.70363  -0.70131
 Alpha  occ. eigenvalues --   -0.69401  -0.68524  -0.67827  -0.67235  -0.66801
 Alpha  occ. eigenvalues --   -0.64990  -0.64805  -0.64499  -0.63984  -0.62387
 Alpha  occ. eigenvalues --   -0.62166  -0.61052  -0.60532  -0.59963  -0.59413
 Alpha  occ. eigenvalues --   -0.58793  -0.58762  -0.58204  -0.57845  -0.57665
 Alpha  occ. eigenvalues --   -0.57273  -0.56619  -0.56163  -0.55954  -0.55550
 Alpha  occ. eigenvalues --   -0.55139  -0.54750  -0.54604  -0.54271  -0.53958
 Alpha  occ. eigenvalues --   -0.53585  -0.53421  -0.53267  -0.52871  -0.52031
 Alpha  occ. eigenvalues --   -0.51926  -0.51719  -0.51606  -0.51158  -0.50852
 Alpha  occ. eigenvalues --   -0.50355  -0.50124  -0.49741  -0.49542  -0.49140
 Alpha  occ. eigenvalues --   -0.48750  -0.48077  -0.47324  -0.47285  -0.46651
 Alpha  occ. eigenvalues --   -0.46622  -0.46524  -0.46186  -0.45250  -0.44671
 Alpha  occ. eigenvalues --   -0.44531  -0.44233  -0.44143  -0.43850  -0.42908
 Alpha  occ. eigenvalues --   -0.42215  -0.41749  -0.40223  -0.39350  -0.38794
 Alpha  occ. eigenvalues --   -0.38430  -0.38096  -0.37785  -0.37146  -0.36628
 Alpha  occ. eigenvalues --   -0.35973  -0.35457  -0.35255  -0.33851  -0.33703
 Alpha  occ. eigenvalues --   -0.31851  -0.31327
 Alpha virt. eigenvalues --   -0.17056  -0.12582  -0.10906  -0.09564  -0.08992
 Alpha virt. eigenvalues --   -0.08417  -0.06814  -0.05786  -0.04937  -0.04608
 Alpha virt. eigenvalues --   -0.03900  -0.03475  -0.02476  -0.01905  -0.01720

 Mulliken charges:
               1
     1  N   -0.744653
     2  H    0.354427
     3  H    0.335305
     4  H    0.443947
     5  C   -0.071183
     6  H    0.228026
     7  C    0.629578
     8  C   -0.330719
     9  H    0.171240
    10  H    0.191271
    11  O   -0.570017
    12  C   -0.364686
    13  H    0.200042
    14  H    0.173477
    15  C    0.577944
    16  O   -0.583367
    17  O   -0.428779
    18  N   -0.574503
    19  H    0.416774
    20  C   -0.120894
    21  H    0.194723
    22  C    0.696065
    23  C   -0.375512
    24  H    0.174823
    25  H    0.231188
    26  O   -0.580585
    27  C    0.050144
    28  C    0.002354
    29  H    0.198654
    30  C   -0.070663
    31  C    0.350804
    32  C   -0.221535
    33  H    0.138611
    34  N   -0.674877
    35  H    0.353116
    36  C   -0.147717
    37  H    0.162528
    38  C   -0.152863
    39  H    0.159127
    40  C   -0.126098
    41  H    0.157212
    42  N   -0.589583
    43  H    0.362546
    44  C   -0.095178
    45  H    0.165442
    46  C    0.652139
    47  C    0.156300
    48  H    0.162044
    49  O   -0.544160
    50  C   -0.480269
    51  H    0.157982
    52  H    0.192290
    53  H    0.141407
    54  O   -0.614041
    55  H    0.399468
    56  N   -0.639037
    57  H    0.365652
    58  C   -0.043156
    59  H    0.211412
    60  C    0.596010
    61  C   -0.298496
    62  H    0.184171
    63  H    0.192147
    64  O   -0.433284
    65  C   -0.257341
    66  H    0.129251
    67  H    0.166323
    68  C   -0.175445
    69  H    0.162601
    70  H    0.179973
    71  N   -0.585386
    72  H    0.327344
    73  N   -0.764526
    74  H    0.346069
    75  H    0.333137
    76  N   -0.664421
    77  H    0.273161
    78  C    0.569615
    79  O   -0.595083
    80  H    0.433998
    81  H    0.466194
 Sum of Mulliken charges =   1.00000

 Dipole moment (field-independent basis, Debye):
    X=             -4.1307    Y=             -0.0756    Z=             -1.8310  Tot=              4.5190
 Quadrupole moment (field-independent basis, Debye-Ang):
   XX=           -144.8783   YY=           -256.0813   ZZ=           -217.9872
   XY=             13.7553   XZ=             14.7779   YZ=            -31.0157

 Normal termination of Gaussian 16 at Fri Jul 15 03:35:12 2022.
