 Gaussian 16, Revision C.01,
 Gaussian 16:  ES64L-G16RevC.01  3-Jul-2019

 ----------------------------------------------------------------------
 # B3LYP/6-31G* empiricaldispersion=gd3bj guess=read geom=check nosymm
 integral(ultrafinegrid)
 ----------------------------------------------------------------------

 -----------------------------------------------------
 Candidate Structure: Conf:90 Charge calc in gas phase
 -----------------------------------------------------
 Structure from the checkpoint file:  "conf-90.chk"
 Charge =  1 Multiplicity = 1

                          Input orientation:
 ---------------------------------------------------------------------
 Center     Atomic      Atomic             Coordinates (Angstroms)
 Number     Number       Type             X           Y           Z
 ---------------------------------------------------------------------
      1          7           0       -2.569343    1.274931    4.607331
      2          1           0       -2.837128    0.311233    4.795834
      3          1           0       -1.587143    1.376741    4.855567
      4          1           0       -4.021558    2.421559    5.247250
      5          6           0       -2.822467    1.655904    3.228835
      6          1           0       -3.904928    1.596687    3.063978
      7          6           0       -2.179374    0.754613    2.186439
      8          6           0       -2.383311    3.121979    2.961774
      9          1           0       -1.287934    3.169165    2.921286
     10          1           0       -2.756490    3.427970    1.980291
     11          8           0       -1.252642   -0.065498    2.601312
     12          6           0       -2.890434    4.115701    4.026465
     13          1           0       -2.671205    5.127357    3.680015
     14          1           0       -2.361778    3.957859    4.971997
     15          6           0       -4.399504    4.024802    4.257587
     16          8           0       -4.803622    2.966232    4.993728
     17          8           0       -5.193585    4.808673    3.798627
     18          7           0       -2.572666    0.852586    0.946513
     19          1           0       -3.240187    1.610198    0.757425
     20          6           0       -2.079055    0.132982   -0.244922
     21          1           0       -2.392848   -0.913565   -0.153311
     22          6           0       -0.539773    0.208898   -0.237323
     23          6           0       -2.723759    0.753015   -1.518347
     24          1           0       -3.736968    0.342645   -1.601532
     25          1           0       -2.164051    0.373530   -2.377707
     26          8           0        0.074226    1.244897   -0.420917
     27          6           0       -2.762238    2.250229   -1.499004
     28          6           0       -1.832764    3.123677   -2.017935
     29          1           0       -0.977535    2.938235   -2.651926
     30          6           0       -3.707252    3.047843   -0.746469
     31          6           0       -3.258062    4.396360   -0.815446
     32          6           0       -4.855600    2.754115    0.023530
     33          1           0       -5.280354    1.751380    0.035597
     34          7           0       -2.136519    4.404970   -1.622309
     35          1           0       -1.613282    5.226736   -1.885275
     36          6           0       -4.980267    5.098553    0.680687
     37          1           0       -5.465734    5.863742    1.274263
     38          6           0       -3.886122    5.427975   -0.111404
     39          1           0       -3.523802    6.450210   -0.167310
     40          6           0       -5.467587    3.777604    0.739888
     41          1           0       -6.336132    3.566502    1.354146
     42          7           0        0.047273   -0.966538    0.173732
     43          1           0       -0.423091   -1.858742   -0.003342
     44          6           0        1.507795   -1.156709    0.143948
     45          1           0        1.976764   -0.346495    0.707961
     46          6           0        1.984833   -1.159739   -1.324606
     47          6           0        1.779851   -2.538728    0.784870
     48          1           0        2.827576   -2.794102    0.581518
     49          8           0        1.965570   -2.200222   -1.989307
     50          6           0        1.533625   -2.566991    2.284985
     51          1           0        2.170804   -1.842647    2.802524
     52          1           0        1.754300   -3.565146    2.671060
     53          1           0        0.485594   -2.350977    2.522552
     54          8           0        0.907574   -3.483524    0.172761
     55          1           0        1.204102   -3.523815   -0.761465
     56          7           0        2.379702    0.036467   -1.795748
     57          1           0        2.237698    0.852835   -1.214260
     58          6           0        2.747117    0.269482   -3.186028
     59          1           0        3.035799   -0.691922   -3.614782
     60          6           0        3.950703    1.195838   -3.291668
     61          6           0        1.579010    0.878145   -3.991751
     62          1           0        1.978535    1.244964   -4.941551
     63          1           0        1.201646    1.756484   -3.453745
     64          8           0        4.694034    1.226332   -4.239788
     65          6           0        0.448908   -0.121299   -4.254003
     66          1           0        0.833811   -0.946624   -4.867031
     67          1           0        0.115606   -0.581217   -3.313559
     68          6           0       -0.773206    0.509250   -4.944221
     69          1           0       -1.499279   -0.276451   -5.184125
     70          1           0       -1.267680    1.204467   -4.262420
     71          7           0       -0.473538    1.244657   -6.170206
     72          1           0       -0.019416    0.685437   -6.883333
     73          7           0       -0.637384    3.362620   -5.171771
     74          1           0       -0.354676    4.325236   -5.334284
     75          1           0       -1.651658    3.287141   -5.205039
     76          7           0        0.870805    3.095190   -6.908302
     77          1           0        1.339624    2.400845   -7.493163
     78          6           0       -0.012273    2.562127   -6.151210
     79          8           0        4.044015    2.036490   -2.231602
     80          1           0        4.804624    2.623252   -2.407005
     81          1           0       -0.769980   -0.546948    1.871024
 ---------------------------------------------------------------------

 SCF Done:  E(RB3LYP) =  -2054.06918136     A.U. after    2 cycles

 Alpha  occ. eigenvalues --  -19.38262 -19.29151 -19.27866 -19.26763 -19.25040
 Alpha  occ. eigenvalues --  -19.23432 -19.22927 -19.21541 -14.55917 -14.51837
 Alpha  occ. eigenvalues --  -14.48904 -14.47850 -14.47453 -14.43078 -14.42245
 Alpha  occ. eigenvalues --  -14.36138 -10.49521 -10.44757 -10.41246 -10.40574
 Alpha  occ. eigenvalues --  -10.40298 -10.40202 -10.38957 -10.36021 -10.35652
 Alpha  occ. eigenvalues --  -10.35559 -10.33701 -10.33676 -10.33261 -10.32802
 Alpha  occ. eigenvalues --  -10.32754 -10.31313 -10.30664 -10.29941 -10.29764
 Alpha  occ. eigenvalues --  -10.29696 -10.29350 -10.28798 -10.28587 -10.28517
 Alpha  occ. eigenvalues --  -10.28316 -10.28233  -1.28330  -1.19908  -1.19804
 Alpha  occ. eigenvalues --   -1.17712  -1.15625  -1.13495  -1.12671  -1.10855
 Alpha  occ. eigenvalues --   -1.09679  -1.08845  -1.07449  -1.05399  -1.05279
 Alpha  occ. eigenvalues --   -1.04158  -0.96881  -0.96088  -0.94602  -0.92070
 Alpha  occ. eigenvalues --   -0.91674  -0.91017  -0.89527  -0.88503  -0.86234
 Alpha  occ. eigenvalues --   -0.84644  -0.84215  -0.83236  -0.82309  -0.81000
 Alpha  occ. eigenvalues --   -0.79728  -0.76933  -0.76423  -0.74856  -0.73942
 Alpha  occ. eigenvalues --   -0.72757  -0.71707  -0.70799  -0.70355  -0.69960
 Alpha  occ. eigenvalues --   -0.69460  -0.69192  -0.68801  -0.68032  -0.67831
 Alpha  occ. eigenvalues --   -0.66103  -0.65369  -0.64916  -0.64316  -0.62833
 Alpha  occ. eigenvalues --   -0.62551  -0.62203  -0.61778  -0.61291  -0.60203
 Alpha  occ. eigenvalues --   -0.59305  -0.58965  -0.58193  -0.57891  -0.57591
 Alpha  occ. eigenvalues --   -0.57261  -0.57079  -0.56929  -0.56519  -0.56441
 Alpha  occ. eigenvalues --   -0.55681  -0.55325  -0.54913  -0.54779  -0.54533
 Alpha  occ. eigenvalues --   -0.53863  -0.53731  -0.53308  -0.53014  -0.52929
 Alpha  occ. eigenvalues --   -0.52745  -0.52230  -0.51950  -0.51783  -0.51072
 Alpha  occ. eigenvalues --   -0.50748  -0.50666  -0.50503  -0.49679  -0.49412
 Alpha  occ. eigenvalues --   -0.49067  -0.48833  -0.48636  -0.47977  -0.47720
 Alpha  occ. eigenvalues --   -0.47308  -0.46721  -0.46355  -0.45889  -0.45654
 Alpha  occ. eigenvalues --   -0.45395  -0.44600  -0.44276  -0.43951  -0.43701
 Alpha  occ. eigenvalues --   -0.43293  -0.43141  -0.40997  -0.40851  -0.40597
 Alpha  occ. eigenvalues --   -0.39369  -0.38706  -0.38496  -0.38224  -0.36634
 Alpha  occ. eigenvalues --   -0.35169  -0.35149  -0.34497  -0.33561  -0.32990
 Alpha  occ. eigenvalues --   -0.31212  -0.30384
 Alpha virt. eigenvalues --   -0.18683  -0.15153  -0.12184  -0.10425  -0.08597
 Alpha virt. eigenvalues --   -0.08336  -0.08060  -0.07266  -0.06120  -0.04562
 Alpha virt. eigenvalues --   -0.03660  -0.03379  -0.02904  -0.02350  -0.01912

 Mulliken charges:
               1
     1  N   -0.740116
     2  H    0.346779
     3  H    0.341666
     4  H    0.445236
     5  C   -0.101272
     6  H    0.218687
     7  C    0.622441
     8  C   -0.304281
     9  H    0.169107
    10  H    0.202477
    11  O   -0.571416
    12  C   -0.367544
    13  H    0.199251
    14  H    0.176089
    15  C    0.588761
    16  O   -0.580509
    17  O   -0.438460
    18  N   -0.575763
    19  H    0.409305
    20  C   -0.049593
    21  H    0.191385
    22  C    0.569476
    23  C   -0.421774
    24  H    0.191964
    25  H    0.197613
    26  O   -0.471223
    27  C    0.041145
    28  C    0.033715
    29  H    0.216865
    30  C    0.029591
    31  C    0.327143
    32  C   -0.281124
    33  H    0.142182
    34  N   -0.692442
    35  H    0.348151
    36  C   -0.141514
    37  H    0.180155
    38  C   -0.166311
    39  H    0.155466
    40  C   -0.129416
    41  H    0.169740
    42  N   -0.651861
    43  H    0.370422
    44  C   -0.085215
    45  H    0.178198
    46  C    0.640791
    47  C    0.108577
    48  H    0.170820
    49  O   -0.544580
    50  C   -0.457514
    51  H    0.159868
    52  H    0.199133
    53  H    0.129859
    54  O   -0.644026
    55  H    0.433187
    56  N   -0.586356
    57  H    0.367322
    58  C   -0.070812
    59  H    0.216642
    60  C    0.596760
    61  C   -0.283034
    62  H    0.189553
    63  H    0.162392
    64  O   -0.435899
    65  C   -0.271431
    66  H    0.162043
    67  H    0.122650
    68  C   -0.158662
    69  H    0.159435
    70  H    0.154686
    71  N   -0.577102
    72  H    0.321165
    73  N   -0.761183
    74  H    0.341677
    75  H    0.328967
    76  N   -0.616438
    77  H    0.277282
    78  C    0.547650
    79  O   -0.581887
    80  H    0.428115
    81  H    0.477177
 Sum of Mulliken charges =   1.00000

 Dipole moment (field-independent basis, Debye):
    X=             -4.3881    Y=              4.1468    Z=              3.4284  Tot=              6.9430
 Quadrupole moment (field-independent basis, Debye-Ang):
   XX=           -236.2513   YY=           -219.6451   ZZ=           -214.1893
   XY=              3.8786   XZ=             16.5142   YZ=             -0.2648

 Normal termination of Gaussian 16 at Fri Jul 15 03:43:53 2022.
