 Gaussian 16, Revision C.01,
 Gaussian 16:  ES64L-G16RevC.01  3-Jul-2019

 ----------------------------------------------------------------------
 # B3LYP/6-31G* empiricaldispersion=gd3bj guess=read geom=check nosymm
 integral(ultrafinegrid)
 ----------------------------------------------------------------------

 -----------------------------------------------------
 Candidate Structure: Conf:95 Charge calc in gas phase
 -----------------------------------------------------
 Structure from the checkpoint file:  "conf-95.chk"
 Charge =  1 Multiplicity = 1

                          Input orientation:
 ---------------------------------------------------------------------
 Center     Atomic      Atomic             Coordinates (Angstroms)
 Number     Number       Type             X           Y           Z
 ---------------------------------------------------------------------
      1          7           0       -3.428971    3.045035    4.174973
      2          1           0       -4.392030    3.135299    4.506405
      3          1           0       -3.083672    2.039648    4.300301
      4          1           0       -2.840918    3.693933    4.705135
      5          6           0       -3.288599    3.216515    2.666251
      6          1           0       -4.287930    3.391068    2.261152
      7          6           0       -2.786660    1.828022    2.196879
      8          6           0       -2.378769    4.417540    2.357252
      9          1           0       -2.708091    5.246583    2.994777
     10          1           0       -1.353265    4.172943    2.659905
     11          8           0       -2.578246    0.970949    3.137212
     12          6           0       -2.420450    4.909025    0.882640
     13          1           0       -2.611186    5.981717    0.853820
     14          1           0       -3.229108    4.417913    0.331653
     15          6           0       -1.112540    4.671208    0.143640
     16          8           0       -0.720251    3.402284    0.041420
     17          8           0       -0.424612    5.576334   -0.295224
     18          7           0       -2.644005    1.691854    0.918448
     19          1           0       -1.495334    2.797470    0.246844
     20          6           0       -2.373291    0.352815    0.382408
     21          1           0       -2.956335   -0.399336    0.936143
     22          6           0       -0.926604    0.006884    0.687173
     23          6           0       -2.780284    0.304373   -1.120501
     24          1           0       -3.854812    0.094056   -1.130433
     25          1           0       -2.316198   -0.565508   -1.602045
     26          8           0       -0.535660   -0.044086    1.925519
     27          6           0       -2.525897    1.582309   -1.864396
     28          6           0       -1.415541    1.972958   -2.585299
     29          1           0       -0.519849    1.423574   -2.841949
     30          6           0       -3.409849    2.720433   -1.834882
     31          6           0       -2.758564    3.772657   -2.534740
     32          6           0       -4.669837    2.960553   -1.259203
     33          1           0       -5.191363    2.170954   -0.724773
     34          7           0       -1.556797    3.276873   -3.000337
     35          1           0       -0.791707    3.855568   -3.354217
     36          6           0       -4.560281    5.260354   -2.063520
     37          1           0       -5.025331    6.238857   -2.138613
     38          6           0       -3.317105    5.051954   -2.649024
     39          1           0       -2.778510    5.845479   -3.157169
     40          6           0       -5.236242    4.223898   -1.382632
     41          1           0       -6.216142    4.419389   -0.955727
     42          7           0       -0.052470   -0.187781   -0.257178
     43          1           0       -0.340801   -0.105559   -1.230315
     44          6           0        1.381241   -0.425810   -0.106040
     45          1           0        1.717499    0.035623    0.825084
     46          6           0        1.990038    0.220269   -1.359949
     47          6           0        1.687736   -1.941185   -0.081736
     48          1           0        1.420603   -2.341225   -1.072147
     49          8           0        1.357397    0.160643   -2.416205
     50          6           0        3.161463   -2.212001    0.212482
     51          1           0        3.823801   -1.781784   -0.544729
     52          1           0        3.344505   -3.291720    0.231342
     53          1           0        3.433462   -1.807021    1.193364
     54          8           0        0.836347   -2.477470    0.919318
     55          1           0        0.990779   -3.433928    0.965122
     56          7           0        3.186164    0.811186   -1.220643
     57          1           0        3.718403    0.699339   -0.364332
     58          6           0        3.935112    1.314446   -2.365586
     59          1           0        3.575532    0.788652   -3.255531
     60          6           0        5.393165    0.951067   -2.123635
     61          6           0        3.763863    2.833025   -2.580231
     62          1           0        4.309928    3.094291   -3.493540
     63          1           0        4.247643    3.372271   -1.755528
     64          8           0        5.808530    0.479324   -1.085270
     65          6           0        2.297206    3.263241   -2.691305
     66          1           0        1.762733    2.607021   -3.386441
     67          1           0        1.804382    3.155141   -1.716921
     68          6           0        2.178006    4.710431   -3.169549
     69          1           0        2.889106    5.355631   -2.628540
     70          1           0        2.452802    4.755152   -4.227724
     71          7           0        0.805527    5.188518   -3.015771
     72          1           0        0.515547    5.143414   -2.036814
     73          7           0       -0.637906    7.018895   -2.968075
     74          1           0       -0.771811    7.971669   -3.285819
     75          1           0       -0.687374    6.917411   -1.959027
     76          7           0        1.008309    7.024474   -4.588237
     77          1           0        1.748940    6.466926   -5.009972
     78          6           0        0.475630    6.445202   -3.579724
     79          8           0        6.159889    1.240592   -3.182758
     80          1           0        7.080747    1.009125   -2.953263
     81          1           0       -1.310674    0.191667    2.541649
 ---------------------------------------------------------------------

 SCF Done:  E(RB3LYP) =  -2054.09170835     A.U. after    1 cycles

 Alpha  occ. eigenvalues --  -19.32245 -19.29814 -19.26989 -19.26444 -19.25242
 Alpha  occ. eigenvalues --  -19.24444 -19.23856 -19.22780 -14.58981 -14.52013
 Alpha  occ. eigenvalues --  -14.47956 -14.43655 -14.43363 -14.40862 -14.38945
 Alpha  occ. eigenvalues --  -14.33560 -10.45265 -10.42424 -10.41228 -10.41090
 Alpha  occ. eigenvalues --  -10.40856 -10.39564 -10.36271 -10.35658 -10.35625
 Alpha  occ. eigenvalues --  -10.34190 -10.33904 -10.33140 -10.30254 -10.29740
 Alpha  occ. eigenvalues --  -10.29064 -10.28968 -10.28483 -10.28335 -10.28072
 Alpha  occ. eigenvalues --  -10.26803 -10.25782 -10.25760 -10.25302 -10.25267
 Alpha  occ. eigenvalues --  -10.25094 -10.24982  -1.23249  -1.20968  -1.18636
 Alpha  occ. eigenvalues --   -1.17271  -1.16209  -1.13114  -1.12445  -1.12114
 Alpha  occ. eigenvalues --   -1.10308  -1.09075  -1.04586  -1.04260  -1.02833
 Alpha  occ. eigenvalues --   -1.02463  -0.94482  -0.93780  -0.92017  -0.90731
 Alpha  occ. eigenvalues --   -0.89616  -0.89146  -0.88461  -0.85797  -0.84466
 Alpha  occ. eigenvalues --   -0.83610  -0.82412  -0.80238  -0.79361  -0.78100
 Alpha  occ. eigenvalues --   -0.77439  -0.75567  -0.75382  -0.73883  -0.73240
 Alpha  occ. eigenvalues --   -0.71774  -0.70932  -0.69871  -0.69640  -0.68964
 Alpha  occ. eigenvalues --   -0.68813  -0.68085  -0.67269  -0.65880  -0.65529
 Alpha  occ. eigenvalues --   -0.63997  -0.63754  -0.63437  -0.62183  -0.62062
 Alpha  occ. eigenvalues --   -0.61304  -0.60718  -0.60017  -0.59973  -0.59349
 Alpha  occ. eigenvalues --   -0.59293  -0.58668  -0.57920  -0.57402  -0.57297
 Alpha  occ. eigenvalues --   -0.56582  -0.55988  -0.55778  -0.55565  -0.55107
 Alpha  occ. eigenvalues --   -0.54711  -0.54315  -0.53935  -0.53713  -0.53357
 Alpha  occ. eigenvalues --   -0.52263  -0.51784  -0.51648  -0.51357  -0.51257
 Alpha  occ. eigenvalues --   -0.50746  -0.50438  -0.50196  -0.49800  -0.49686
 Alpha  occ. eigenvalues --   -0.49354  -0.49164  -0.48795  -0.48345  -0.48156
 Alpha  occ. eigenvalues --   -0.47945  -0.47496  -0.47308  -0.46676  -0.46279
 Alpha  occ. eigenvalues --   -0.45366  -0.45150  -0.44895  -0.44559  -0.44312
 Alpha  occ. eigenvalues --   -0.42638  -0.42423  -0.42130  -0.41955  -0.41731
 Alpha  occ. eigenvalues --   -0.41584  -0.40494  -0.40072  -0.39688  -0.38600
 Alpha  occ. eigenvalues --   -0.38482  -0.37975  -0.37468  -0.37110  -0.36860
 Alpha  occ. eigenvalues --   -0.36363  -0.34121  -0.32603  -0.30462  -0.29217
 Alpha  occ. eigenvalues --   -0.28286  -0.27385
 Alpha virt. eigenvalues --   -0.14484  -0.11110  -0.10716  -0.10043  -0.09104
 Alpha virt. eigenvalues --   -0.08331  -0.08027  -0.06079  -0.04510  -0.03215
 Alpha virt. eigenvalues --   -0.02863  -0.02438  -0.01875  -0.01313  -0.00960

 Mulliken charges:
               1
     1  N   -0.767774
     2  H    0.412535
     3  H    0.436135
     4  H    0.406218
     5  C   -0.075839
     6  H    0.223236
     7  C    0.568556
     8  C   -0.311696
     9  H    0.172595
    10  H    0.182650
    11  O   -0.661425
    12  C   -0.396267
    13  H    0.194320
    14  H    0.237545
    15  C    0.614672
    16  O   -0.624303
    17  O   -0.485534
    18  N   -0.529571
    19  H    0.484128
    20  C   -0.068881
    21  H    0.191620
    22  C    0.652921
    23  C   -0.420607
    24  H    0.183694
    25  H    0.163696
    26  O   -0.568337
    27  C    0.033438
    28  C   -0.014752
    29  H    0.191303
    30  C    0.107541
    31  C    0.262917
    32  C   -0.219791
    33  H    0.109914
    34  N   -0.692942
    35  H    0.376609
    36  C   -0.166153
    37  H    0.136766
    38  C   -0.171356
    39  H    0.191203
    40  C   -0.157021
    41  H    0.124671
    42  N   -0.572290
    43  H    0.408013
    44  C   -0.076484
    45  H    0.196991
    46  C    0.634961
    47  C    0.153776
    48  H    0.150620
    49  O   -0.535231
    50  C   -0.489098
    51  H    0.172434
    52  H    0.171374
    53  H    0.170762
    54  O   -0.627852
    55  H    0.412186
    56  N   -0.594651
    57  H    0.361787
    58  C   -0.067123
    59  H    0.215236
    60  C    0.595722
    61  C   -0.272525
    62  H    0.179940
    63  H    0.154542
    64  O   -0.467519
    65  C   -0.296858
    66  H    0.168093
    67  H    0.154490
    68  C   -0.129352
    69  H    0.148265
    70  H    0.156032
    71  N   -0.666285
    72  H    0.364174
    73  N   -0.773702
    74  H    0.340037
    75  H    0.348278
    76  N   -0.632346
    77  H    0.278382
    78  C    0.574073
    79  O   -0.550457
    80  H    0.433062
    81  H    0.481910
 Sum of Mulliken charges =   1.00000

 Dipole moment (field-independent basis, Debye):
    X=             -3.6508    Y=              6.0495    Z=             12.0822  Tot=             13.9966
 Quadrupole moment (field-independent basis, Debye-Ang):
   XX=           -160.8419   YY=           -209.8926   ZZ=           -201.8979
   XY=            -36.3649   XZ=            -66.3750   YZ=             60.0963

 Normal termination of Gaussian 16 at Fri Jul 15 03:34:45 2022.
