 Gaussian 16, Revision C.01,
 Gaussian 16:  ES64L-G16RevC.01  3-Jul-2019

 ----------------------------------------------------------------------
 # B3LYP/6-31G* empiricaldispersion=gd3bj guess=read geom=check nosymm
 integral(ultrafinegrid)
 ----------------------------------------------------------------------

 ------------------------------------------------------
 Candidate Structure: Conf:472 Charge calc in gas phase
 ------------------------------------------------------
 Structure from the checkpoint file:  "conf-472.chk"
 Charge =  1 Multiplicity = 1

                          Input orientation:
 ---------------------------------------------------------------------
 Center     Atomic      Atomic             Coordinates (Angstroms)
 Number     Number       Type             X           Y           Z
 ---------------------------------------------------------------------
      1          7           0       -3.084940   -0.560890    4.387403
      2          1           0       -3.893277   -1.140189    4.133449
      3          1           0       -2.244412   -1.153653    4.311002
      4          1           0       -3.203627   -0.246311    5.356965
      5          6           0       -2.905386    0.616779    3.434333
      6          1           0       -3.894332    1.039996    3.257079
      7          6           0       -2.319201    0.090388    2.133170
      8          6           0       -1.969093    1.645142    4.095485
      9          1           0       -2.415031    1.961312    5.047873
     10          1           0       -1.005055    1.167639    4.308341
     11          8           0       -1.546422   -0.990582    2.389889
     12          6           0       -1.731259    2.896047    3.224764
     13          1           0       -1.203671    2.623916    2.306165
     14          1           0       -1.096574    3.578854    3.792403
     15          6           0       -3.046897    3.631078    2.951441
     16          8           0       -3.796471    3.162571    1.927778
     17          8           0       -3.437138    4.533854    3.648436
     18          7           0       -2.564401    0.770930    1.094107
     19          1           0       -3.363789    2.398961    1.467850
     20          6           0       -1.895534    0.603661   -0.195441
     21          1           0       -2.324414   -0.272449   -0.697402
     22          6           0       -0.401853    0.415977    0.043062
     23          6           0       -2.138437    1.848868   -1.072430
     24          1           0       -1.438646    1.791055   -1.917545
     25          1           0       -1.849131    2.734309   -0.498094
     26          8           0        0.289025    1.278937    0.577235
     27          6           0       -3.542174    1.939284   -1.567679
     28          6           0       -4.485565    2.891117   -1.261042
     29          1           0       -4.417290    3.740081   -0.595617
     30          6           0       -4.156867    1.030220   -2.503549
     31          6           0       -5.481042    1.497192   -2.728671
     32          6           0       -3.719361   -0.120955   -3.181619
     33          1           0       -2.710849   -0.501744   -3.039722
     34          7           0       -5.651565    2.623615   -1.946571
     35          1           0       -6.471235    3.210992   -1.942185
     36          6           0       -5.891317   -0.272462   -4.271658
     37          1           0       -6.544036   -0.785970   -4.970390
     38          6           0       -6.356470    0.857802   -3.609635
     39          1           0       -7.360589    1.234245   -3.780753
     40          6           0       -4.586482   -0.759804   -4.059667
     41          1           0       -4.255213   -1.642726   -4.597943
     42          7           0        0.065542   -0.814079   -0.290932
     43          1           0       -0.502262   -1.419004   -0.871619
     44          6           0        1.450744   -1.210107   -0.061618
     45          1           0        1.829622   -0.542751    0.717260
     46          6           0        2.217501   -0.998365   -1.380387
     47          6           0        1.467142   -2.649602    0.439912
     48          1           0        1.130030   -3.308190   -0.371531
     49          8           0        2.494363   -1.930107   -2.127550
     50          6           0        2.844589   -3.084031    0.913760
     51          1           0        3.546512   -3.063766    0.076015
     52          1           0        2.816491   -4.109843    1.298718
     53          1           0        3.208533   -2.424320    1.708471
     54          8           0        0.496223   -2.666273    1.512981
     55          1           0        0.507736   -3.550869    1.909732
     56          7           0        2.419100    0.311185   -1.653762
     57          1           0        2.207061    1.013742   -0.951829
     58          6           0        2.863787    0.802730   -2.945393
     59          1           0        3.406466   -0.001531   -3.448359
     60          6           0        3.793143    1.980101   -2.694896
     61          6           0        1.671233    1.268344   -3.815232
     62          1           0        2.053819    1.769547   -4.708781
     63          1           0        1.114439    2.026023   -3.246646
     64          8           0        3.831641    2.607539   -1.659724
     65          6           0        0.733723    0.124168   -4.212988
     66          1           0        1.240042   -0.539425   -4.926142
     67          1           0        0.506181   -0.497731   -3.339913
     68          6           0       -0.595195    0.612069   -4.789692
     69          1           0       -1.242769   -0.253593   -5.008437
     70          1           0       -1.119557    1.208232   -4.033726
     71          7           0       -0.410876    1.466950   -5.946341
     72          1           0        0.167246    1.060574   -6.675432
     73          7           0       -1.201279    2.812923   -7.651663
     74          1           0       -1.974876    3.390064   -7.961513
     75          1           0       -0.330071    3.331581   -7.616582
     76          7           0       -2.709918    2.216254   -5.989461
     77          1           0       -2.865137    1.561532   -5.223633
     78          6           0       -1.522596    2.150898   -6.465223
     79          8           0        4.524325    2.274661   -3.784756
     80          1           0        5.055767    3.065185   -3.569635
     81          1           0       -0.933790   -1.341205    1.692041
 ---------------------------------------------------------------------

 SCF Done:  E(RB3LYP) =  -2054.05080837     A.U. after    2 cycles

 Alpha  occ. eigenvalues --  -19.34246 -19.27835 -19.27758 -19.27065 -19.24090
 Alpha  occ. eigenvalues --  -19.22247 -19.21729 -19.20992 -14.63787 -14.49195
 Alpha  occ. eigenvalues --  -14.47545 -14.45275 -14.44992 -14.40458 -14.38389
 Alpha  occ. eigenvalues --  -14.33078 -10.44816 -10.42283 -10.40957 -10.40524
 Alpha  occ. eigenvalues --  -10.40252 -10.38396 -10.35374 -10.35229 -10.35125
 Alpha  occ. eigenvalues --  -10.34110 -10.32547 -10.32195 -10.31098 -10.29510
 Alpha  occ. eigenvalues --  -10.29183 -10.29117 -10.28924 -10.27632 -10.27231
 Alpha  occ. eigenvalues --  -10.26754 -10.26221 -10.26066 -10.25896 -10.25892
 Alpha  occ. eigenvalues --  -10.25362 -10.25305  -1.23040  -1.18840  -1.17934
 Alpha  occ. eigenvalues --   -1.17748  -1.16272  -1.14460  -1.12898  -1.09960
 Alpha  occ. eigenvalues --   -1.09910  -1.06573  -1.05277  -1.05183  -1.02468
 Alpha  occ. eigenvalues --   -1.01830  -0.96263  -0.94089  -0.91731  -0.90897
 Alpha  occ. eigenvalues --   -0.89348  -0.88645  -0.87602  -0.87455  -0.84953
 Alpha  occ. eigenvalues --   -0.82981  -0.81272  -0.80825  -0.80541  -0.79224
 Alpha  occ. eigenvalues --   -0.78030  -0.75869  -0.74962  -0.74739  -0.74095
 Alpha  occ. eigenvalues --   -0.73421  -0.71726  -0.70132  -0.69807  -0.69471
 Alpha  occ. eigenvalues --   -0.68316  -0.67622  -0.67227  -0.66686  -0.65691
 Alpha  occ. eigenvalues --   -0.64517  -0.63911  -0.63503  -0.63458  -0.62342
 Alpha  occ. eigenvalues --   -0.61295  -0.60384  -0.59874  -0.59519  -0.59379
 Alpha  occ. eigenvalues --   -0.58865  -0.57477  -0.56950  -0.56385  -0.56132
 Alpha  occ. eigenvalues --   -0.55762  -0.55559  -0.55006  -0.54736  -0.54504
 Alpha  occ. eigenvalues --   -0.54246  -0.54134  -0.53766  -0.53111  -0.52922
 Alpha  occ. eigenvalues --   -0.52807  -0.52456  -0.51732  -0.51376  -0.50751
 Alpha  occ. eigenvalues --   -0.50612  -0.50396  -0.50187  -0.49469  -0.49321
 Alpha  occ. eigenvalues --   -0.48860  -0.48793  -0.48737  -0.48629  -0.48013
 Alpha  occ. eigenvalues --   -0.47718  -0.47525  -0.46991  -0.46650  -0.45825
 Alpha  occ. eigenvalues --   -0.45359  -0.45191  -0.44910  -0.44191  -0.43350
 Alpha  occ. eigenvalues --   -0.42913  -0.42711  -0.41928  -0.41143  -0.40944
 Alpha  occ. eigenvalues --   -0.40500  -0.40361  -0.40046  -0.39839  -0.39677
 Alpha  occ. eigenvalues --   -0.39078  -0.37380  -0.36008  -0.35336  -0.34687
 Alpha  occ. eigenvalues --   -0.34430  -0.34164  -0.31087  -0.30219  -0.29511
 Alpha  occ. eigenvalues --   -0.28039  -0.27713
 Alpha virt. eigenvalues --   -0.15063  -0.13328  -0.10801  -0.08461  -0.08210
 Alpha virt. eigenvalues --   -0.08104  -0.07675  -0.07093  -0.06516  -0.05518
 Alpha virt. eigenvalues --   -0.04823  -0.04444  -0.03977  -0.02172  -0.01708

 Mulliken charges:
               1
     1  N   -0.736981
     2  H    0.427996
     3  H    0.434563
     4  H    0.424595
     5  C   -0.132287
     6  H    0.246756
     7  C    0.598828
     8  C   -0.302829
     9  H    0.188412
    10  H    0.186548
    11  O   -0.683451
    12  C   -0.389909
    13  H    0.210502
    14  H    0.210457
    15  C    0.569157
    16  O   -0.612166
    17  O   -0.424023
    18  N   -0.472916
    19  H    0.465204
    20  C   -0.065656
    21  H    0.171280
    22  C    0.590083
    23  C   -0.398768
    24  H    0.178424
    25  H    0.177080
    26  O   -0.523587
    27  C    0.061394
    28  C    0.002945
    29  H    0.183844
    30  C    0.088992
    31  C    0.320559
    32  C   -0.240714
    33  H    0.100202
    34  N   -0.690003
    35  H    0.342328
    36  C   -0.146564
    37  H    0.144360
    38  C   -0.150598
    39  H    0.142910
    40  C   -0.134540
    41  H    0.133045
    42  N   -0.616152
    43  H    0.351599
    44  C   -0.088794
    45  H    0.198173
    46  C    0.639246
    47  C    0.136968
    48  H    0.159429
    49  O   -0.524484
    50  C   -0.485335
    51  H    0.203218
    52  H    0.157772
    53  H    0.164349
    54  O   -0.668698
    55  H    0.413213
    56  N   -0.604343
    57  H    0.365731
    58  C   -0.058512
    59  H    0.207440
    60  C    0.589902
    61  C   -0.256329
    62  H    0.180124
    63  H    0.146697
    64  O   -0.459670
    65  C   -0.290311
    66  H    0.159941
    67  H    0.127689
    68  C   -0.146260
    69  H    0.144570
    70  H    0.156431
    71  N   -0.603832
    72  H    0.323519
    73  N   -0.750103
    74  H    0.339013
    75  H    0.319331
    76  N   -0.653139
    77  H    0.295052
    78  C    0.574784
    79  O   -0.558694
    80  H    0.425720
    81  H    0.489276
 Sum of Mulliken charges =   1.00000

 Dipole moment (field-independent basis, Debye):
    X=             -8.0464    Y=             -6.0162    Z=             11.1686  Tot=             15.0225
 Quadrupole moment (field-independent basis, Debye-Ang):
   XX=           -185.4510   YY=           -233.9525   ZZ=           -159.5155
   XY=             19.4209   XZ=            -47.8898   YZ=            -39.1988

 Normal termination of Gaussian 16 at Fri Jul 15 03:34:58 2022.
