 Gaussian 16, Revision C.01,
 Gaussian 16:  ES64L-G16RevC.01  3-Jul-2019

 ----------------------------------------------------------------------
 # B3LYP/6-31G* empiricaldispersion=gd3bj guess=read geom=check nosymm
 integral(ultrafinegrid)
 ----------------------------------------------------------------------

 ------------------------------------------------------
 Candidate Structure: Conf:308 Charge calc in gas phase
 ------------------------------------------------------
 Structure from the checkpoint file:  "conf-308.chk"
 Charge =  1 Multiplicity = 1

                          Input orientation:
 ---------------------------------------------------------------------
 Center     Atomic      Atomic             Coordinates (Angstroms)
 Number     Number       Type             X           Y           Z
 ---------------------------------------------------------------------
      1          7           0       -5.003868    1.075012    2.310318
      2          1           0       -5.239916    2.077410    2.143749
      3          1           0       -5.166035    0.558139    1.422024
      4          1           0       -5.600602    0.710665    3.057384
      5          6           0       -3.530627    0.904905    2.587051
      6          1           0       -3.189492    1.765694    3.155764
      7          6           0       -2.929058    0.850663    1.174149
      8          6           0       -3.273305   -0.408599    3.353076
      9          1           0       -3.489059   -0.241570    4.412971
     10          1           0       -3.961073   -1.177500    2.980634
     11          8           0       -3.570474    0.263374    0.297458
     12          6           0       -1.844892   -0.948422    3.190897
     13          1           0       -1.685799   -1.274584    2.156690
     14          1           0       -1.719833   -1.841827    3.813550
     15          6           0       -0.765118    0.067695    3.558032
     16          8           0       -1.043126    1.174791    3.983831
     17          8           0        0.495956   -0.307398    3.374166
     18          7           0       -1.730853    1.422946    1.041388
     19          1           0       -1.327654    1.897247    1.844263
     20          6           0       -1.024879    1.556985   -0.234556
     21          1           0       -1.429008    0.808460   -0.915216
     22          6           0        0.430775    1.259355    0.120131
     23          6           0       -1.270888    2.954924   -0.831262
     24          1           0       -0.716154    3.019155   -1.770646
     25          1           0       -0.862458    3.712170   -0.154423
     26          8           0        1.136891    2.102657    0.666952
     27          6           0       -2.742774    3.129358   -1.060621
     28          6           0       -3.438683    2.672606   -2.153844
     29          1           0       -3.054072    2.224035   -3.059592
     30          6           0       -3.728536    3.539218   -0.092667
     31          6           0       -5.013778    3.290157   -0.667894
     32          6           0       -3.662916    4.048589    1.215072
     33          1           0       -2.702965    4.272577    1.671919
     34          7           0       -4.796699    2.776855   -1.925641
     35          1           0       -5.515154    2.541112   -2.593325
     36          6           0       -6.105091    4.009524    1.333660
     37          1           0       -7.011043    4.222002    1.893595
     38          6           0       -6.202137    3.520345    0.030450
     39          1           0       -7.170499    3.332287   -0.424229
     40          6           0       -4.844138    4.276124    1.920395
     41          1           0       -4.800958    4.694158    2.922069
     42          7           0        0.793366   -0.042415   -0.062533
     43          1           0        0.388902   -0.545916   -0.867200
     44          6           0        2.090975   -0.501098    0.426005
     45          1           0        2.297503    0.071628    1.333583
     46          6           0        3.156004   -0.214708   -0.645458
     47          6           0        2.024081   -1.997456    0.769254
     48          1           0        1.964816   -2.569565   -0.162985
     49          8           0        3.440253   -1.056994   -1.503740
     50          6           0        3.220503   -2.454988    1.580655
     51          1           0        4.137542   -2.314406    1.001822
     52          1           0        3.126139   -3.515738    1.826508
     53          1           0        3.299602   -1.885082    2.513076
     54          8           0        0.832010   -2.271716    1.548150
     55          1           0        0.585657   -1.152293    2.853215
     56          7           0        3.663063    1.032816   -0.578438
     57          1           0        3.274133    1.658021    0.121230
     58          6           0        4.655322    1.575518   -1.505746
     59          1           0        5.607798    1.051648   -1.336423
     60          6           0        4.922010    3.043657   -1.180892
     61          6           0        4.283121    1.410192   -2.984908
     62          1           0        4.282589    0.338268   -3.187737
     63          1           0        5.089797    1.853949   -3.573925
     64          8           0        5.336693    3.847257   -1.980559
     65          6           0        2.934176    2.042250   -3.378877
     66          1           0        2.294038    2.175975   -2.496914
     67          1           0        3.102607    3.038845   -3.799764
     68          6           0        2.181115    1.169069   -4.392469
     69          1           0        1.406571    1.738607   -4.912539
     70          1           0        2.868648    0.815791   -5.168785
     71          7           0        1.550066   -0.002022   -3.787747
     72          1           0        2.180533   -0.622122   -3.284026
     73          7           0       -0.103109   -1.152294   -2.618463
     74          1           0       -1.113714   -1.259258   -2.651890
     75          1           0        0.347308   -1.988464   -2.983005
     76          7           0       -0.648214    0.931634   -3.455746
     77          1           0       -0.279795    1.764211   -3.912271
     78          6           0        0.254937    0.020755   -3.337453
     79          8           0        4.670443    3.340414    0.114206
     80          1           0        4.875027    4.287330    0.234693
     81          1           0        0.081227   -2.052879    0.971882
 ---------------------------------------------------------------------

 SCF Done:  E(RB3LYP) =  -2054.13900508     A.U. after    3 cycles

 Alpha  occ. eigenvalues --  -19.28371 -19.27844 -19.27371 -19.25126 -19.23364
 Alpha  occ. eigenvalues --  -19.22544 -19.22343 -19.21130 -14.58277 -14.48778
 Alpha  occ. eigenvalues --  -14.47733 -14.45817 -14.45175 -14.45046 -14.43974
 Alpha  occ. eigenvalues --  -14.38209 -10.42253 -10.42122 -10.40650 -10.39118
 Alpha  occ. eigenvalues --  -10.38640 -10.38237 -10.37914 -10.34198 -10.33595
 Alpha  occ. eigenvalues --  -10.33538 -10.32764 -10.32502 -10.32415 -10.32325
 Alpha  occ. eigenvalues --  -10.31103 -10.30548 -10.29756 -10.29409 -10.29360
 Alpha  occ. eigenvalues --  -10.29124 -10.28787 -10.28582 -10.27522 -10.26655
 Alpha  occ. eigenvalues --  -10.26441 -10.26426  -1.19410  -1.19215  -1.17655
 Alpha  occ. eigenvalues --   -1.14654  -1.13883  -1.12683  -1.12497  -1.11092
 Alpha  occ. eigenvalues --   -1.10184  -1.07670  -1.07282  -1.05649  -1.02659
 Alpha  occ. eigenvalues --   -1.01742  -0.98315  -0.94619  -0.93897  -0.93777
 Alpha  occ. eigenvalues --   -0.90695  -0.89023  -0.87660  -0.86834  -0.84898
 Alpha  occ. eigenvalues --   -0.83980  -0.83512  -0.82212  -0.79833  -0.78193
 Alpha  occ. eigenvalues --   -0.76725  -0.75569  -0.72631  -0.72323  -0.71719
 Alpha  occ. eigenvalues --   -0.71513  -0.71209  -0.70699  -0.69763  -0.69443
 Alpha  occ. eigenvalues --   -0.68813  -0.67764  -0.67443  -0.66565  -0.65452
 Alpha  occ. eigenvalues --   -0.65078  -0.64239  -0.63818  -0.63679  -0.63097
 Alpha  occ. eigenvalues --   -0.62173  -0.60928  -0.60664  -0.60401  -0.59743
 Alpha  occ. eigenvalues --   -0.58703  -0.58237  -0.57671  -0.57416  -0.57282
 Alpha  occ. eigenvalues --   -0.56972  -0.56029  -0.55628  -0.55379  -0.55276
 Alpha  occ. eigenvalues --   -0.54748  -0.54463  -0.53745  -0.53261  -0.52906
 Alpha  occ. eigenvalues --   -0.52882  -0.52009  -0.51842  -0.51594  -0.51568
 Alpha  occ. eigenvalues --   -0.51294  -0.50961  -0.50498  -0.50350  -0.49730
 Alpha  occ. eigenvalues --   -0.49643  -0.49138  -0.48901  -0.48417  -0.48353
 Alpha  occ. eigenvalues --   -0.48291  -0.47706  -0.47343  -0.46904  -0.46801
 Alpha  occ. eigenvalues --   -0.46594  -0.45783  -0.45249  -0.44928  -0.44149
 Alpha  occ. eigenvalues --   -0.44022  -0.43672  -0.43430  -0.42425  -0.42273
 Alpha  occ. eigenvalues --   -0.41050  -0.40343  -0.39609  -0.39436  -0.38709
 Alpha  occ. eigenvalues --   -0.38052  -0.37677  -0.37177  -0.36682  -0.36446
 Alpha  occ. eigenvalues --   -0.36154  -0.35615  -0.34679  -0.33526  -0.32984
 Alpha  occ. eigenvalues --   -0.31754  -0.30051
 Alpha virt. eigenvalues --   -0.11902  -0.11847  -0.09658  -0.09263  -0.08678
 Alpha virt. eigenvalues --   -0.08111  -0.07693  -0.07290  -0.05224  -0.04460
 Alpha virt. eigenvalues --   -0.03712  -0.02694  -0.02009  -0.01741  -0.00759

 Mulliken charges:
               1
     1  N   -0.767893
     2  H    0.423037
     3  H    0.415225
     4  H    0.402443
     5  C   -0.098391
     6  H    0.231391
     7  C    0.640090
     8  C   -0.280780
     9  H    0.195029
    10  H    0.167157
    11  O   -0.550778
    12  C   -0.419840
    13  H    0.173923
    14  H    0.213292
    15  C    0.626085
    16  O   -0.482778
    17  O   -0.587167
    18  N   -0.608502
    19  H    0.380438
    20  C   -0.051578
    21  H    0.200470
    22  C    0.618287
    23  C   -0.339728
    24  H    0.171338
    25  H    0.172698
    26  O   -0.527440
    27  C    0.035623
    28  C    0.038087
    29  H    0.200111
    30  C    0.070455
    31  C    0.328422
    32  C   -0.226403
    33  H    0.151173
    34  N   -0.682447
    35  H    0.344680
    36  C   -0.206791
    37  H    0.155227
    38  C   -0.169818
    39  H    0.153690
    40  C   -0.202086
    41  H    0.154274
    42  N   -0.685099
    43  H    0.410845
    44  C   -0.083188
    45  H    0.195993
    46  C    0.647317
    47  C    0.100838
    48  H    0.164680
    49  O   -0.559694
    50  C   -0.468146
    51  H    0.184013
    52  H    0.180791
    53  H    0.165795
    54  O   -0.649427
    55  H    0.461069
    56  N   -0.634509
    57  H    0.392030
    58  C   -0.033840
    59  H    0.205400
    60  C    0.587003
    61  C   -0.289202
    62  H    0.176519
    63  H    0.182577
    64  O   -0.445726
    65  C   -0.275184
    66  H    0.142854
    67  H    0.172256
    68  C   -0.174691
    69  H    0.158930
    70  H    0.176795
    71  N   -0.599629
    72  H    0.362293
    73  N   -0.800961
    74  H    0.352547
    75  H    0.344732
    76  N   -0.675270
    77  H    0.292128
    78  C    0.586325
    79  O   -0.571642
    80  H    0.429138
    81  H    0.413119
 Sum of Mulliken charges =   1.00000

 Dipole moment (field-independent basis, Debye):
    X=            -13.5957    Y=              1.8617    Z=              2.4857  Tot=             13.9459
 Quadrupole moment (field-independent basis, Debye-Ang):
   XX=           -131.0674   YY=           -225.1467   ZZ=           -207.3109
   XY=            -17.8094   XZ=            -31.9221   YZ=             -1.6438

 Normal termination of Gaussian 16 at Fri Jul 15 03:35:24 2022.
