 Gaussian 16, Revision C.01,
 Gaussian 16:  ES64L-G16RevC.01  3-Jul-2019

 ----------------------------------------------------------------------
 # B3LYP/6-31G* empiricaldispersion=gd3bj guess=read geom=check nosymm
 integral(ultrafinegrid)
 ----------------------------------------------------------------------

 ------------------------------------------------------
 Candidate Structure: Conf:497 Charge calc in gas phase
 ------------------------------------------------------
 Structure from the checkpoint file:  "conf-497.chk"
 Charge =  1 Multiplicity = 1

                          Input orientation:
 ---------------------------------------------------------------------
 Center     Atomic      Atomic             Coordinates (Angstroms)
 Number     Number       Type             X           Y           Z
 ---------------------------------------------------------------------
      1          7           0       -3.877138    3.324213    3.308706
      2          1           0       -4.780086    3.202033    2.854538
      3          1           0       -3.161299    1.640971    3.782056
      4          1           0       -3.968472    4.092398    3.970850
      5          6           0       -2.831452    3.647438    2.324667
      6          1           0       -3.067870    4.546280    1.730510
      7          6           0       -2.780284    2.501610    1.316952
      8          6           0       -1.496164    3.886547    3.058403
      9          1           0       -0.686654    4.025769    2.334250
     10          1           0       -1.578026    4.848122    3.576147
     11          8           0       -3.930148    1.945184    1.082900
     12          6           0       -1.104833    2.806161    4.098870
     13          1           0       -1.715588    2.928542    4.998673
     14          1           0       -0.059866    2.950705    4.377604
     15          6           0       -1.256040    1.377507    3.583484
     16          8           0       -0.337768    0.699969    3.183450
     17          8           0       -2.525733    0.919555    3.527728
     18          7           0       -1.657989    2.160655    0.756022
     19          1           0       -0.791179    2.658957    1.003756
     20          6           0       -1.290256    0.914386    0.069791
     21          1           0       -1.804057    0.089656    0.573631
     22          6           0        0.233876    0.843901    0.299170
     23          6           0       -1.597458    0.940571   -1.450063
     24          1           0       -1.318915   -0.043763   -1.845418
     25          1           0       -0.942673    1.682409   -1.917382
     26          8           0        0.830158    1.891225    0.592390
     27          6           0       -3.027938    1.260305   -1.732283
     28          6           0       -3.516960    2.442756   -2.242721
     29          1           0       -2.979861    3.328768   -2.576288
     30          6           0       -4.173619    0.431105   -1.415994
     31          6           0       -5.335282    1.179287   -1.776476
     32          6           0       -4.335790   -0.859136   -0.865632
     33          1           0       -3.471662   -1.460416   -0.595723
     34          7           0       -4.895320    2.390377   -2.269123
     35          1           0       -5.488954    3.116788   -2.641195
     36          6           0       -6.750759   -0.596795   -1.057129
     37          1           0       -7.740513   -1.017075   -0.910055
     38          6           0       -6.627586    0.673693   -1.605123
     39          1           0       -7.502285    1.249961   -1.890971
     40          6           0       -5.619197   -1.355014   -0.688929
     41          1           0       -5.758512   -2.345411   -0.267831
     42          7           0        0.814973   -0.334778    0.065768
     43          1           0        0.246210   -1.176003    0.112927
     44          6           0        2.241873   -0.589024    0.330971
     45          1           0        2.500341   -0.099955    1.277230
     46          6           0        3.095556   -0.010624   -0.827474
     47          6           0        2.452653   -2.106698    0.430229
     48          1           0        2.474179   -2.503122   -0.592140
     49          8           0        3.579724   -0.722259   -1.698041
     50          6           0        3.761220   -2.438855    1.133952
     51          1           0        4.608006   -2.016283    0.584961
     52          1           0        3.905675   -3.524017    1.178369
     53          1           0        3.758259   -2.048605    2.156926
     54          8           0        1.311358   -2.617675    1.132263
     55          1           0        1.387734   -3.583737    1.155872
     56          7           0        3.225535    1.342045   -0.793992
     57          1           0        2.603280    1.846034   -0.163360
     58          6           0        3.626998    2.068171   -1.997529
     59          1           0        4.567056    1.656692   -2.366431
     60          6           0        3.821737    3.516589   -1.582212
     61          6           0        2.509603    1.978970   -3.063748
     62          1           0        1.563290    2.072001   -2.527481
     63          1           0        2.541193    0.969509   -3.483595
     64          8           0        2.952215    4.188787   -1.055626
     65          6           0        2.553867    3.025607   -4.186508
     66          1           0        2.877705    4.005568   -3.819020
     67          1           0        3.288085    2.725346   -4.942215
     68          6           0        1.178201    3.221755   -4.859738
     69          1           0        1.324392    3.368846   -5.932453
     70          1           0        0.572545    2.311813   -4.745407
     71          7           0        0.419217    4.409455   -4.413024
     72          1           0        0.004218    4.904801   -5.191724
     73          7           0        0.081586    3.848803   -2.151855
     74          1           0       -0.515811    4.083767   -1.367463
     75          1           0        1.054837    4.057944   -1.933977
     76          7           0       -1.621498    4.926014   -3.272390
     77          1           0       -1.933299    5.198934   -4.205830
     78          6           0       -0.430447    4.426915   -3.311906
     79          8           0        5.034213    3.992277   -1.885482
     80          1           0        5.058667    4.930013   -1.609831
     81          1           0       -3.941153    1.308051    0.311362
 ---------------------------------------------------------------------

 SCF Done:  E(RB3LYP) =  -2054.08775092     A.U. after    3 cycles

 Alpha  occ. eigenvalues --  -19.35188 -19.29305 -19.27839 -19.24748 -19.23807
 Alpha  occ. eigenvalues --  -19.23714 -19.22820 -19.20043 -14.53200 -14.48217
 Alpha  occ. eigenvalues --  -14.47601 -14.47282 -14.43760 -14.43188 -14.42397
 Alpha  occ. eigenvalues --  -14.37287 -10.47774 -10.41634 -10.41378 -10.41348
 Alpha  occ. eigenvalues --  -10.38507 -10.37279 -10.37195 -10.36622 -10.33215
 Alpha  occ. eigenvalues --  -10.32662 -10.32534 -10.32344 -10.32066 -10.31472
 Alpha  occ. eigenvalues --  -10.31068 -10.30706 -10.30691 -10.29108 -10.28975
 Alpha  occ. eigenvalues --  -10.28802 -10.28724 -10.28145 -10.27837 -10.26824
 Alpha  occ. eigenvalues --  -10.26631 -10.25287  -1.25665  -1.20363  -1.18919
 Alpha  occ. eigenvalues --   -1.16830  -1.12184  -1.11224  -1.11065  -1.10755
 Alpha  occ. eigenvalues --   -1.10567  -1.08143  -1.05758  -1.04463  -1.04023
 Alpha  occ. eigenvalues --   -1.00959  -0.96933  -0.94447  -0.93423  -0.92540
 Alpha  occ. eigenvalues --   -0.91230  -0.88968  -0.88102  -0.86739  -0.85149
 Alpha  occ. eigenvalues --   -0.83535  -0.82780  -0.82287  -0.80174  -0.79335
 Alpha  occ. eigenvalues --   -0.77734  -0.75995  -0.74414  -0.73088  -0.72296
 Alpha  occ. eigenvalues --   -0.72046  -0.70378  -0.69982  -0.69495  -0.69069
 Alpha  occ. eigenvalues --   -0.68131  -0.67146  -0.66682  -0.65941  -0.65756
 Alpha  occ. eigenvalues --   -0.64807  -0.63973  -0.63319  -0.62798  -0.62353
 Alpha  occ. eigenvalues --   -0.61439  -0.60718  -0.59817  -0.59092  -0.58932
 Alpha  occ. eigenvalues --   -0.58346  -0.58084  -0.57442  -0.57073  -0.56843
 Alpha  occ. eigenvalues --   -0.56365  -0.56093  -0.55632  -0.55539  -0.55070
 Alpha  occ. eigenvalues --   -0.55012  -0.54295  -0.54143  -0.53340  -0.53145
 Alpha  occ. eigenvalues --   -0.52777  -0.52704  -0.52581  -0.52150  -0.51472
 Alpha  occ. eigenvalues --   -0.51215  -0.51022  -0.50903  -0.50325  -0.50007
 Alpha  occ. eigenvalues --   -0.49593  -0.49523  -0.48559  -0.48275  -0.48191
 Alpha  occ. eigenvalues --   -0.47906  -0.47827  -0.47387  -0.46678  -0.46176
 Alpha  occ. eigenvalues --   -0.46062  -0.45835  -0.45112  -0.44934  -0.44287
 Alpha  occ. eigenvalues --   -0.43420  -0.43266  -0.43122  -0.42659  -0.41955
 Alpha  occ. eigenvalues --   -0.41703  -0.41353  -0.40653  -0.39744  -0.39420
 Alpha  occ. eigenvalues --   -0.38362  -0.37844  -0.37310  -0.36337  -0.36107
 Alpha  occ. eigenvalues --   -0.35635  -0.34237  -0.33850  -0.32855  -0.32606
 Alpha  occ. eigenvalues --   -0.30956  -0.30619
 Alpha virt. eigenvalues --   -0.16440  -0.11444  -0.10283  -0.09161  -0.08968
 Alpha virt. eigenvalues --   -0.07817  -0.06846  -0.05844  -0.04502  -0.04098
 Alpha virt. eigenvalues --   -0.03040  -0.02401  -0.01336  -0.01127  -0.00919

 Mulliken charges:
               1
     1  N   -0.757112
     2  H    0.357862
     3  H    0.452287
     4  H    0.346500
     5  C   -0.081245
     6  H    0.207852
     7  C    0.646551
     8  C   -0.329225
     9  H    0.189020
    10  H    0.190074
    11  O   -0.571405
    12  C   -0.353393
    13  H    0.180650
    14  H    0.206252
    15  C    0.572392
    16  O   -0.451179
    17  O   -0.591845
    18  N   -0.577474
    19  H    0.414752
    20  C   -0.103875
    21  H    0.210397
    22  C    0.697004
    23  C   -0.373198
    24  H    0.177042
    25  H    0.227161
    26  O   -0.577052
    27  C    0.010120
    28  C   -0.005561
    29  H    0.239212
    30  C   -0.075770
    31  C    0.347325
    32  C   -0.201720
    33  H    0.135926
    34  N   -0.680656
    35  H    0.347014
    36  C   -0.147157
    37  H    0.157123
    38  C   -0.158530
    39  H    0.151953
    40  C   -0.129963
    41  H    0.153426
    42  N   -0.619039
    43  H    0.370087
    44  C   -0.070787
    45  H    0.196999
    46  C    0.633878
    47  C    0.114669
    48  H    0.168556
    49  O   -0.514702
    50  C   -0.476729
    51  H    0.181178
    52  H    0.157759
    53  H    0.166672
    54  O   -0.650403
    55  H    0.412002
    56  N   -0.643385
    57  H    0.389898
    58  C   -0.006691
    59  H    0.200827
    60  C    0.573566
    61  C   -0.320596
    62  H    0.173860
    63  H    0.184192
    64  O   -0.483539
    65  C   -0.285707
    66  H    0.160487
    67  H    0.164318
    68  C   -0.149279
    69  H    0.163281
    70  H    0.157173
    71  N   -0.585342
    72  H    0.325461
    73  N   -0.775676
    74  H    0.320094
    75  H    0.382424
    76  N   -0.664941
    77  H    0.274874
    78  C    0.566230
    79  O   -0.539261
    80  H    0.423864
    81  H    0.472189
 Sum of Mulliken charges =   1.00000

 Dipole moment (field-independent basis, Debye):
    X=             -9.7409    Y=             12.5957    Z=             -0.0460  Tot=             15.9229
 Quadrupole moment (field-independent basis, Debye-Ang):
   XX=           -162.5524   YY=           -170.3263   ZZ=           -191.5088
   XY=            -24.6059   XZ=             -9.9516   YZ=              0.5784

 Normal termination of Gaussian 16 at Fri Jul 15 03:35:20 2022.
