 Gaussian 16, Revision C.01,
 Gaussian 16:  ES64L-G16RevC.01  3-Jul-2019

 ----------------------------------------------------------------------
 # B3LYP/6-31G* empiricaldispersion=gd3bj guess=read geom=check nosymm
 integral(ultrafinegrid)
 ----------------------------------------------------------------------

 ------------------------------------------------------
 Candidate Structure: Conf:674 Charge calc in gas phase
 ------------------------------------------------------
 Structure from the checkpoint file:  "conf-674.chk"
 Charge =  1 Multiplicity = 1

                          Input orientation:
 ---------------------------------------------------------------------
 Center     Atomic      Atomic             Coordinates (Angstroms)
 Number     Number       Type             X           Y           Z
 ---------------------------------------------------------------------
      1          7           0       -3.998185   -1.590896    2.962028
      2          1           0       -4.667705   -1.654913    2.157875
      3          1           0       -3.272217   -2.306744    2.822598
      4          1           0       -4.505123   -1.769228    3.834252
      5          6           0       -3.342853   -0.225432    2.954312
      6          1           0       -4.153452    0.484348    2.790504
      7          6           0       -2.427837   -0.207085    1.741905
      8          6           0       -2.604024    0.077152    4.259567
      9          1           0       -3.304559    0.021387    5.102060
     10          1           0       -1.812947   -0.665158    4.421078
     11          8           0       -1.838062   -1.406450    1.501432
     12          6           0       -1.989004    1.494029    4.214859
     13          1           0       -1.231266    1.556780    3.427975
     14          1           0       -1.509552    1.693024    5.174887
     15          6           0       -3.087998    2.547295    4.028725
     16          8           0       -3.425232    2.855050    2.760795
     17          8           0       -3.676870    3.025461    4.968030
     18          7           0       -2.366817    0.866083    1.079981
     19          1           0       -2.919375    2.325934    2.090566
     20          6           0       -1.857876    0.909674   -0.293721
     21          1           0       -1.938510   -0.091766   -0.733038
     22          6           0       -0.382512    1.285446   -0.174846
     23          6           0       -2.766623    1.889333   -1.075098
     24          1           0       -2.687140    1.649609   -2.138196
     25          1           0       -2.369852    2.901467   -0.954770
     26          8           0       -0.028135    2.347854    0.327116
     27          6           0       -4.174947    1.840170   -0.540286
     28          6           0       -4.871574    2.920898   -0.059099
     29          1           0       -4.606654    3.968403   -0.080945
     30          6           0       -4.955633    0.675607   -0.185122
     31          6           0       -6.098538    1.138172    0.541350
     32          6           0       -4.776995   -0.709620   -0.328575
     33          1           0       -3.943610   -1.104871   -0.901413
     34          7           0       -6.033248    2.509481    0.564066
     35          1           0       -6.674974    3.119996    1.047105
     36          6           0       -6.796074   -1.101895    0.998211
     37          1           0       -7.506197   -1.803597    1.425866
     38          6           0       -7.015027    0.266066    1.137298
     39          1           0       -7.872635    0.641872    1.687384
     40          6           0       -5.686306   -1.588655    0.266110
     41          1           0       -5.580678   -2.659024    0.105286
     42          7           0        0.467362    0.268307   -0.477126
     43          1           0        0.106083   -0.519745   -0.996350
     44          6           0        1.827722    0.199597    0.012343
     45          1           0        1.997919    1.146232    0.536404
     46          6           0        2.864334    0.100083   -1.122311
     47          6           0        1.985533   -0.973710    0.998615
     48          1           0        2.074021   -1.908490    0.432008
     49          8           0        3.852474   -0.622629   -1.026628
     50          6           0        3.180934   -0.804572    1.921733
     51          1           0        4.092347   -0.753693    1.324231
     52          1           0        3.269948   -1.656746    2.607470
     53          1           0        3.081396    0.114196    2.509848
     54          8           0        0.757318   -1.029733    1.788568
     55          1           0        0.960832   -1.561111    2.574773
     56          7           0        2.624400    0.888653   -2.194060
     57          1           0        1.744619    1.397235   -2.271437
     58          6           0        3.642224    1.027480   -3.221771
     59          1           0        3.824599    0.058470   -3.697149
     60          6           0        4.960829    1.484706   -2.591172
     61          6           0        3.207797    2.051372   -4.290433
     62          1           0        2.221411    1.737755   -4.651459
     63          1           0        3.892698    1.965510   -5.139273
     64          8           0        5.069507    2.133921   -1.578446
     65          6           0        3.164081    3.501806   -3.769049
     66          1           0        2.985148    3.502518   -2.690173
     67          1           0        4.140767    3.978090   -3.910616
     68          6           0        2.092754    4.377887   -4.434091
     69          1           0        2.121136    5.380366   -3.994629
     70          1           0        2.287115    4.503622   -5.503750
     71          7           0        0.722632    3.832529   -4.326976
     72          1           0        0.477421    3.235625   -5.106938
     73          7           0        0.546325    4.069859   -2.026883
     74          1           0        0.259923    3.705329   -1.123568
     75          1           0        0.540914    5.071105   -2.150663
     76          7           0       -0.208009    2.095389   -2.962116
     77          1           0       -0.185902    1.587336   -3.847754
     78          6           0        0.310538    3.279635   -3.116082
     79          8           0        6.000515    1.132587   -3.376186
     80          1           0        6.805041    1.485401   -2.950963
     81          1           0       -0.848591   -1.283175    1.358161
 ---------------------------------------------------------------------

 SCF Done:  E(RB3LYP) =  -2054.07527647     A.U. after    3 cycles

 Alpha  occ. eigenvalues --  -19.31086 -19.28552 -19.26184 -19.26158 -19.21791
 Alpha  occ. eigenvalues --  -19.20969 -19.20323 -19.19603 -14.60061 -14.47599
 Alpha  occ. eigenvalues --  -14.46534 -14.45596 -14.43435 -14.42742 -14.41809
 Alpha  occ. eigenvalues --  -14.37398 -10.42157 -10.39836 -10.39581 -10.39343
 Alpha  occ. eigenvalues --  -10.38475 -10.36841 -10.36691 -10.34833 -10.33813
 Alpha  occ. eigenvalues --  -10.33687 -10.32778 -10.32475 -10.31333 -10.31326
 Alpha  occ. eigenvalues --  -10.30598 -10.29932 -10.29779 -10.29743 -10.29650
 Alpha  occ. eigenvalues --  -10.29498 -10.28931 -10.28181 -10.27791 -10.27441
 Alpha  occ. eigenvalues --  -10.26641 -10.25742  -1.20352  -1.17110  -1.17095
 Alpha  occ. eigenvalues --   -1.14972  -1.14349  -1.13803  -1.11649  -1.09056
 Alpha  occ. eigenvalues --   -1.08077  -1.07736  -1.05899  -1.04752  -1.03242
 Alpha  occ. eigenvalues --   -1.00164  -0.96363  -0.94809  -0.94402  -0.92580
 Alpha  occ. eigenvalues --   -0.90511  -0.88778  -0.87306  -0.86749  -0.84712
 Alpha  occ. eigenvalues --   -0.84014  -0.82542  -0.81836  -0.79874  -0.78207
 Alpha  occ. eigenvalues --   -0.75299  -0.75120  -0.74772  -0.72763  -0.72335
 Alpha  occ. eigenvalues --   -0.71481  -0.70877  -0.70101  -0.69766  -0.69443
 Alpha  occ. eigenvalues --   -0.68851  -0.68559  -0.67151  -0.66361  -0.65403
 Alpha  occ. eigenvalues --   -0.65231  -0.63891  -0.63802  -0.63108  -0.63023
 Alpha  occ. eigenvalues --   -0.62019  -0.61079  -0.59184  -0.58693  -0.58475
 Alpha  occ. eigenvalues --   -0.58063  -0.57922  -0.57387  -0.57092  -0.56744
 Alpha  occ. eigenvalues --   -0.56724  -0.55366  -0.54847  -0.54215  -0.53810
 Alpha  occ. eigenvalues --   -0.53748  -0.53489  -0.53411  -0.53360  -0.53032
 Alpha  occ. eigenvalues --   -0.52500  -0.52308  -0.52108  -0.51758  -0.51425
 Alpha  occ. eigenvalues --   -0.50850  -0.50329  -0.50121  -0.49847  -0.49370
 Alpha  occ. eigenvalues --   -0.48910  -0.48469  -0.48084  -0.47772  -0.47638
 Alpha  occ. eigenvalues --   -0.47577  -0.47194  -0.46908  -0.46477  -0.46163
 Alpha  occ. eigenvalues --   -0.45391  -0.45110  -0.44879  -0.44636  -0.44441
 Alpha  occ. eigenvalues --   -0.44269  -0.43241  -0.43131  -0.41984  -0.41387
 Alpha  occ. eigenvalues --   -0.41362  -0.39930  -0.39558  -0.38690  -0.38230
 Alpha  occ. eigenvalues --   -0.37265  -0.36973  -0.35982  -0.35355  -0.34652
 Alpha  occ. eigenvalues --   -0.34554  -0.33165  -0.33065  -0.32770  -0.32661
 Alpha  occ. eigenvalues --   -0.31011  -0.30181
 Alpha virt. eigenvalues --   -0.14080  -0.11905  -0.09998  -0.09100  -0.08233
 Alpha virt. eigenvalues --   -0.07428  -0.06793  -0.05628  -0.05192  -0.04085
 Alpha virt. eigenvalues --   -0.03962  -0.03116  -0.02866  -0.02101  -0.01779

 Mulliken charges:
               1
     1  N   -0.755869
     2  H    0.415249
     3  H    0.414398
     4  H    0.410539
     5  C   -0.113985
     6  H    0.244502
     7  C    0.563740
     8  C   -0.292489
     9  H    0.187546
    10  H    0.163959
    11  O   -0.689844
    12  C   -0.379606
    13  H    0.191512
    14  H    0.205138
    15  C    0.572324
    16  O   -0.601780
    17  O   -0.434549
    18  N   -0.449577
    19  H    0.459889
    20  C   -0.092449
    21  H    0.137313
    22  C    0.685684
    23  C   -0.343752
    24  H    0.185620
    25  H    0.172849
    26  O   -0.545839
    27  C    0.068426
    28  C    0.027039
    29  H    0.182008
    30  C    0.081252
    31  C    0.320441
    32  C   -0.218619
    33  H    0.146403
    34  N   -0.672847
    35  H    0.350927
    36  C   -0.175836
    37  H    0.152979
    38  C   -0.162128
    39  H    0.158329
    40  C   -0.243122
    41  H    0.150941
    42  N   -0.610309
    43  H    0.336096
    44  C   -0.090208
    45  H    0.222131
    46  C    0.638992
    47  C    0.145940
    48  H    0.156788
    49  O   -0.529149
    50  C   -0.499432
    51  H    0.227514
    52  H    0.147064
    53  H    0.166662
    54  O   -0.676671
    55  H    0.415228
    56  N   -0.646329
    57  H    0.394374
    58  C   -0.015717
    59  H    0.186098
    60  C    0.620410
    61  C   -0.307789
    62  H    0.129447
    63  H    0.178686
    64  O   -0.468649
    65  C   -0.299573
    66  H    0.192977
    67  H    0.160746
    68  C   -0.158430
    69  H    0.162761
    70  H    0.163414
    71  N   -0.573239
    72  H    0.318839
    73  N   -0.760755
    74  H    0.392820
    75  H    0.343428
    76  N   -0.706546
    77  H    0.272142
    78  C    0.572087
    79  O   -0.570767
    80  H    0.419683
    81  H    0.472519
 Sum of Mulliken charges =   1.00000

 Dipole moment (field-independent basis, Debye):
    X=            -10.9145    Y=             -3.1500    Z=              2.8944  Tot=             11.7229
 Quadrupole moment (field-independent basis, Debye-Ang):
   XX=           -161.3824   YY=           -212.2835   ZZ=           -186.1674
   XY=             25.3336   XZ=            -41.5836   YZ=            -52.9333

 Normal termination of Gaussian 16 at Fri Jul 15 03:35:20 2022.
