 Gaussian 16, Revision C.01,
 Gaussian 16:  ES64L-G16RevC.01  3-Jul-2019

 ----------------------------------------------------------------------
 # B3LYP/6-31G* empiricaldispersion=gd3bj guess=read geom=check nosymm
 integral(ultrafinegrid)
 ----------------------------------------------------------------------

 ------------------------------------------------------
 Candidate Structure: Conf:746 Charge calc in gas phase
 ------------------------------------------------------
 Structure from the checkpoint file:  "conf-746.chk"
 Charge =  1 Multiplicity = 1

                          Input orientation:
 ---------------------------------------------------------------------
 Center     Atomic      Atomic             Coordinates (Angstroms)
 Number     Number       Type             X           Y           Z
 ---------------------------------------------------------------------
      1          7           0       -1.780859    3.230074   -4.841087
      2          1           0       -2.296921    4.053290   -4.516193
      3          1           0       -0.733981    3.456479   -4.727580
      4          1           0       -1.981741    3.112722   -5.838339
      5          6           0       -2.115058    1.981356   -4.068133
      6          1           0       -3.160716    1.731078   -4.254848
      7          6           0       -1.896030    2.259548   -2.591830
      8          6           0       -1.180760    0.860074   -4.577636
      9          1           0       -1.337053    0.760264   -5.659839
     10          1           0       -0.141785    1.166829   -4.411358
     11          8           0       -1.088718    3.301335   -2.364948
     12          6           0       -1.392306   -0.516424   -3.921702
     13          1           0       -1.095576   -0.484001   -2.871201
     14          1           0       -0.735382   -1.227780   -4.425031
     15          6           0       -2.829087   -1.005292   -4.108874
     16          8           0       -3.158319   -1.718688   -5.024631
     17          8           0       -3.731988   -0.529035   -3.224852
     18          7           0       -2.418891    1.447756   -1.757163
     19          1           0       -3.297660    0.073010   -2.566348
     20          6           0       -2.133612    1.535926   -0.312360
     21          1           0       -2.305465    2.563465    0.032118
     22          6           0       -0.624720    1.322886   -0.163758
     23          6           0       -3.090908    0.575290    0.428890
     24          1           0       -3.294690   -0.273500   -0.232777
     25          1           0       -4.044118    1.110082    0.530129
     26          8           0        0.143764    2.270529   -0.469711
     27          6           0       -2.611709    0.045992    1.752907
     28          6           0       -2.793798   -1.250845    2.178962
     29          1           0       -3.312720   -2.064661    1.691469
     30          6           0       -1.837542    0.708236    2.778302
     31          6           0       -1.573980   -0.262966    3.787770
     32          6           0       -1.285474    1.993728    2.924060
     33          1           0       -1.475380    2.771061    2.189977
     34          7           0       -2.201113   -1.431490    3.407194
     35          1           0       -2.139811   -2.312479    3.894162
     36          6           0       -0.229056    1.286152    5.003785
     37          1           0        0.395941    1.532030    5.856535
     38          6           0       -0.770850    0.009710    4.900236
     39          1           0       -0.584528   -0.744622    5.659285
     40          6           0       -0.487416    2.268725    4.027202
     41          1           0       -0.059576    3.259452    4.144993
     42          7           0       -0.147092    0.132502    0.172591
     43          1           0       -0.745926   -0.542625    0.645518
     44          6           0        1.283485   -0.075245    0.290589
     45          1           0        1.694079    0.673321    0.981724
     46          6           0        1.937537    0.056597   -1.096565
     47          6           0        1.513626   -1.496536    0.865028
     48          1           0        1.283385   -2.212755    0.070212
     49          8           0        1.453421   -0.497837   -2.080516
     50          6           0        2.943263   -1.688149    1.353031
     51          1           0        3.664939   -1.532725    0.544696
     52          1           0        3.069366   -2.702310    1.740100
     53          1           0        3.177967   -0.979228    2.157400
     54          8           0        0.552820   -1.771188    1.879515
     55          1           0        0.712146   -1.184517    2.640057
     56          7           0        3.087471    0.766071   -1.108646
     57          1           0        3.367618    1.298812   -0.292432
     58          6           0        3.975079    0.892802   -2.252185
     59          1           0        4.453367   -0.073774   -2.460922
     60          6           0        5.077889    1.854926   -1.820731
     61          6           0        3.298762    1.356421   -3.560112
     62          1           0        2.695834    0.525595   -3.931763
     63          1           0        4.097483    1.544219   -4.285630
     64          8           0        5.103484    2.428947   -0.753309
     65          6           0        2.409432    2.592801   -3.404345
     66          1           0        1.508765    2.323254   -2.843078
     67          1           0        2.917804    3.374965   -2.824744
     68          6           0        2.030044    3.152940   -4.777015
     69          1           0        2.888122    3.665239   -5.227942
     70          1           0        1.750255    2.327370   -5.444993
     71          7           0        0.875530    4.071992   -4.668444
     72          1           0        0.831042    4.499150   -3.746330
     73          7           0        1.146875    4.788887   -6.896820
     74          1           0        0.852233    5.401137   -7.644731
     75          1           0        1.465066    3.867961   -7.153697
     76          7           0       -0.180716    6.055171   -5.499349
     77          1           0       -0.398207    6.204902   -4.512869
     78          6           0        0.598652    5.050617   -5.671986
     79          8           0        6.018413    1.990722   -2.768568
     80          1           0        6.696217    2.601587   -2.420413
     81          1           0       -0.583731    3.120898   -1.479958
 ---------------------------------------------------------------------

 SCF Done:  E(RB3LYP) =  -2054.09113775     A.U. after    1 cycles

 Alpha  occ. eigenvalues --  -19.30607 -19.30582 -19.25409 -19.25223 -19.25186
 Alpha  occ. eigenvalues --  -19.24953 -19.21942 -19.20229 -14.58244 -14.48871
 Alpha  occ. eigenvalues --  -14.47662 -14.46559 -14.46500 -14.46336 -14.45868
 Alpha  occ. eigenvalues --  -14.40008 -10.43144 -10.42572 -10.41244 -10.40443
 Alpha  occ. eigenvalues --  -10.39521 -10.39282 -10.38971 -10.35015 -10.34968
 Alpha  occ. eigenvalues --  -10.34608 -10.34354 -10.33807 -10.33340 -10.30895
 Alpha  occ. eigenvalues --  -10.30613 -10.30382 -10.29805 -10.29604 -10.29404
 Alpha  occ. eigenvalues --  -10.27529 -10.27408 -10.27366 -10.27265 -10.27257
 Alpha  occ. eigenvalues --  -10.26794 -10.26462  -1.21763  -1.20768  -1.16407
 Alpha  occ. eigenvalues --   -1.16351  -1.13901  -1.13214  -1.12841  -1.12430
 Alpha  occ. eigenvalues --   -1.09978  -1.08386  -1.06674  -1.04884  -1.04015
 Alpha  occ. eigenvalues --   -1.03310  -1.01180  -0.96380  -0.93875  -0.92463
 Alpha  occ. eigenvalues --   -0.91566  -0.90556  -0.88308  -0.86696  -0.85726
 Alpha  occ. eigenvalues --   -0.84176  -0.82101  -0.81457  -0.80485  -0.78541
 Alpha  occ. eigenvalues --   -0.77746  -0.75815  -0.74297  -0.73691  -0.73364
 Alpha  occ. eigenvalues --   -0.72248  -0.71182  -0.70854  -0.70659  -0.70258
 Alpha  occ. eigenvalues --   -0.68931  -0.68304  -0.67967  -0.67820  -0.67157
 Alpha  occ. eigenvalues --   -0.66729  -0.65330  -0.63878  -0.62957  -0.62414
 Alpha  occ. eigenvalues --   -0.62143  -0.61788  -0.61123  -0.60585  -0.60280
 Alpha  occ. eigenvalues --   -0.59816  -0.59219  -0.58778  -0.58525  -0.57897
 Alpha  occ. eigenvalues --   -0.57684  -0.57055  -0.56923  -0.56548  -0.55405
 Alpha  occ. eigenvalues --   -0.55263  -0.54487  -0.54332  -0.54087  -0.53269
 Alpha  occ. eigenvalues --   -0.53136  -0.52753  -0.52543  -0.52121  -0.51720
 Alpha  occ. eigenvalues --   -0.51609  -0.51549  -0.50995  -0.50934  -0.50344
 Alpha  occ. eigenvalues --   -0.50133  -0.49795  -0.49403  -0.49136  -0.48777
 Alpha  occ. eigenvalues --   -0.48316  -0.48069  -0.47598  -0.47204  -0.46742
 Alpha  occ. eigenvalues --   -0.46647  -0.46448  -0.46123  -0.46009  -0.45541
 Alpha  occ. eigenvalues --   -0.44088  -0.43811  -0.42756  -0.42682  -0.42257
 Alpha  occ. eigenvalues --   -0.41858  -0.41584  -0.39821  -0.39520  -0.39006
 Alpha  occ. eigenvalues --   -0.38715  -0.38200  -0.37915  -0.37438  -0.37254
 Alpha  occ. eigenvalues --   -0.36050  -0.35945  -0.35297  -0.34472  -0.33830
 Alpha  occ. eigenvalues --   -0.30891  -0.29096
 Alpha virt. eigenvalues --   -0.13194  -0.11079  -0.10321  -0.09837  -0.09449
 Alpha virt. eigenvalues --   -0.08346  -0.06895  -0.06578  -0.05911  -0.04755
 Alpha virt. eigenvalues --   -0.04437  -0.03185  -0.02786  -0.02479  -0.02189

 Mulliken charges:
               1
     1  N   -0.775001
     2  H    0.411259
     3  H    0.465270
     4  H    0.405626
     5  C   -0.119634
     6  H    0.235675
     7  C    0.587831
     8  C   -0.310811
     9  H    0.176812
    10  H    0.186439
    11  O   -0.663125
    12  C   -0.366786
    13  H    0.192061
    14  H    0.201324
    15  C    0.565734
    16  O   -0.433605
    17  O   -0.611587
    18  N   -0.506487
    19  H    0.461114
    20  C   -0.079772
    21  H    0.185998
    22  C    0.655653
    23  C   -0.371345
    24  H    0.171199
    25  H    0.186344
    26  O   -0.609072
    27  C   -0.018314
    28  C    0.025693
    29  H    0.175533
    30  C    0.094280
    31  C    0.296069
    32  C   -0.220381
    33  H    0.128971
    34  N   -0.665316
    35  H    0.345281
    36  C   -0.152980
    37  H    0.148236
    38  C   -0.182162
    39  H    0.147819
    40  C   -0.142581
    41  H    0.141215
    42  N   -0.590514
    43  H    0.389681
    44  C   -0.063037
    45  H    0.165278
    46  C    0.650442
    47  C    0.106558
    48  H    0.179484
    49  O   -0.545226
    50  C   -0.474140
    51  H    0.162141
    52  H    0.187726
    53  H    0.150996
    54  O   -0.626337
    55  H    0.405040
    56  N   -0.631930
    57  H    0.366974
    58  C   -0.014360
    59  H    0.202670
    60  C    0.583273
    61  C   -0.296987
    62  H    0.190338
    63  H    0.175134
    64  O   -0.459653
    65  C   -0.322764
    66  H    0.175858
    67  H    0.164485
    68  C   -0.135255
    69  H    0.188155
    70  H    0.149345
    71  N   -0.692380
    72  H    0.356858
    73  N   -0.736197
    74  H    0.369566
    75  H    0.345138
    76  N   -0.631935
    77  H    0.277881
    78  C    0.568434
    79  O   -0.559199
    80  H    0.433026
    81  H    0.472956
 Sum of Mulliken charges =   1.00000

 Dipole moment (field-independent basis, Debye):
    X=              4.2706    Y=             10.3949    Z=             -9.7635  Tot=             14.8869
 Quadrupole moment (field-independent basis, Debye-Ang):
   XX=           -205.7774   YY=           -215.9427   ZZ=           -143.2167
   XY=             -5.2685   XZ=            -19.9939   YZ=            -71.0321

 Normal termination of Gaussian 16 at Fri Jul 15 03:34:43 2022.
