 Gaussian 16, Revision C.01,
 Gaussian 16:  ES64L-G16RevC.01  3-Jul-2019

 ----------------------------------------------------------------------
 # B3LYP/6-31G* empiricaldispersion=gd3bj guess=read geom=check nosymm
 integral(ultrafinegrid)
 ----------------------------------------------------------------------

 ------------------------------------------------------
 Candidate Structure: Conf:448 Charge calc in gas phase
 ------------------------------------------------------
 Structure from the checkpoint file:  "conf-448.chk"
 Charge =  1 Multiplicity = 1

                          Input orientation:
 ---------------------------------------------------------------------
 Center     Atomic      Atomic             Coordinates (Angstroms)
 Number     Number       Type             X           Y           Z
 ---------------------------------------------------------------------
      1          7           0       -1.948140    2.295975    3.351498
      2          1           0       -2.936770    2.364821    3.614742
      3          1           0       -1.523717    1.498006    3.845551
      4          1           0       -1.445942    3.150897    3.648145
      5          6           0       -1.711789    2.125011    1.866256
      6          1           0       -2.400811    2.780143    1.328840
      7          6           0       -1.871670    0.664705    1.512573
      8          6           0       -0.227926    2.466882    1.564302
      9          1           0        0.394311    1.641398    1.922467
     10          1           0       -0.126761    2.532032    0.475315
     11          8           0       -1.428033   -0.132929    2.432146
     12          6           0        0.325418    3.752951    2.179268
     13          1           0        0.163514    3.838221    3.266648
     14          1           0       -0.059401    4.644765    1.679818
     15          6           0        1.892733    3.572270    2.005330
     16          8           0        2.413088    4.174712    1.055121
     17          8           0        2.364179    2.742274    2.829748
     18          7           0       -2.285549    0.372606    0.308533
     19          1           0       -2.650908    1.171147   -0.226629
     20          6           0       -1.919554   -0.793361   -0.543899
     21          1           0       -2.437977   -1.678745   -0.164672
     22          6           0       -0.387548   -0.860174   -0.378367
     23          6           0       -2.318255   -0.492109   -2.018183
     24          1           0       -2.403878   -1.455725   -2.528927
     25          1           0       -1.478809    0.045656   -2.471801
     26          8           0        0.262106    0.152753   -0.612711
     27          6           0       -3.565554    0.321616   -2.158322
     28          6           0       -4.855907   -0.094031   -2.392870
     29          1           0       -5.238855   -1.085600   -2.591151
     30          6           0       -3.618498    1.756948   -1.987952
     31          6           0       -4.980880    2.143571   -2.114350
     32          6           0       -2.642768    2.738995   -1.714062
     33          1           0       -1.581584    2.509094   -1.647381
     34          7           0       -5.704114    0.992297   -2.366081
     35          1           0       -6.690039    0.959032   -2.579061
     36          6           0       -4.405322    4.421132   -1.694804
     37          1           0       -4.692830    5.462711   -1.589467
     38          6           0       -5.386547    3.474237   -1.975703
     39          1           0       -6.428098    3.761661   -2.084977
     40          6           0       -3.047983    4.061393   -1.563995
     41          1           0       -2.276739    4.802988   -1.379934
     42          7           0        0.141318   -1.960325    0.201681
     43          1           0       -0.463840   -2.757245    0.350466
     44          6           0        1.224250   -1.772269    1.181289
     45          1           0        1.193543   -0.715617    1.473480
     46          6           0        2.672915   -1.939959    0.667727
     47          6           0        0.918272   -2.613841    2.415472
     48          1           0        1.086730   -3.675534    2.213500
     49          8           0        3.456335   -2.698183    1.219526
     50          6           0        1.677018   -2.158902    3.646272
     51          1           0        2.743209   -2.321064    3.478046
     52          1           0        1.376853   -2.737378    4.527976
     53          1           0        1.516009   -1.092417    3.835442
     54          8           0       -0.551412   -2.456460    2.616300
     55          1           0       -0.777469   -2.813491    3.492247
     56          7           0        2.972262   -1.055093   -0.320024
     57          1           0        2.199532   -0.437712   -0.552810
     58          6           0        4.256305   -0.349686   -0.287038
     59          1           0        5.071875   -1.073533   -0.313823
     60          6           0        4.395524    0.504024    0.994544
     61          6           0        4.347735    0.626343   -1.481009
     62          1           0        4.317466    0.054740   -2.415865
     63          1           0        5.326541    1.112364   -1.417590
     64          8           0        5.427936    1.058847    1.285214
     65          6           0        3.232024    1.681452   -1.430547
     66          1           0        2.261399    1.239602   -1.681269
     67          1           0        3.144215    2.066394   -0.410029
     68          6           0        3.419316    2.909949   -2.325403
     69          1           0        4.426122    3.323476   -2.209335
     70          1           0        3.299557    2.663196   -3.385393
     71          7           0        2.478515    3.973314   -1.940786
     72          1           0        2.701207    4.318791   -1.007945
     73          7           0        0.692757    3.115956   -3.206137
     74          1           0       -0.283473    3.306707   -3.399636
     75          1           0        1.269645    3.295472   -4.020261
     76          7           0        0.228090    4.194387   -1.199267
     77          1           0        0.730914    4.570232   -0.392527
     78          6           0        1.111144    3.788278   -2.056756
     79          8           0        3.230128    0.634962    1.655975
     80          1           0        3.201564    1.479238    2.219345
     81          1           0       -1.116805   -1.154123    2.355040
 ---------------------------------------------------------------------

 SCF Done:  E(RB3LYP) =  -2054.00649297     A.U. after    3 cycles

 Alpha  occ. eigenvalues --  -19.37651 -19.34126 -19.26483 -19.22570 -19.20742
 Alpha  occ. eigenvalues --  -19.17916 -19.16026 -19.15842 -14.63764 -14.56270
 Alpha  occ. eigenvalues --  -14.50434 -14.49205 -14.42485 -14.40468 -14.39332
 Alpha  occ. eigenvalues --  -14.34122 -10.51149 -10.43586 -10.43397 -10.40099
 Alpha  occ. eigenvalues --  -10.38525 -10.37708 -10.36126 -10.35477 -10.34659
 Alpha  occ. eigenvalues --  -10.33819 -10.33582 -10.32895 -10.32848 -10.32110
 Alpha  occ. eigenvalues --  -10.30093 -10.29706 -10.29620 -10.29425 -10.29237
 Alpha  occ. eigenvalues --  -10.28923 -10.28649 -10.28575 -10.27787 -10.27467
 Alpha  occ. eigenvalues --  -10.25088 -10.23673  -1.27768  -1.19866  -1.18961
 Alpha  occ. eigenvalues --   -1.18254  -1.13814  -1.13509  -1.12282  -1.09212
 Alpha  occ. eigenvalues --   -1.09032  -1.06861  -1.05342  -1.03165  -1.00982
 Alpha  occ. eigenvalues --   -1.00288  -0.97453  -0.94629  -0.94128  -0.93514
 Alpha  occ. eigenvalues --   -0.91679  -0.90012  -0.89378  -0.87014  -0.85895
 Alpha  occ. eigenvalues --   -0.83993  -0.83519  -0.82902  -0.81716  -0.79884
 Alpha  occ. eigenvalues --   -0.79077  -0.77897  -0.76645  -0.75844  -0.75420
 Alpha  occ. eigenvalues --   -0.73904  -0.72847  -0.72228  -0.71916  -0.70350
 Alpha  occ. eigenvalues --   -0.69773  -0.68107  -0.67590  -0.67284  -0.66865
 Alpha  occ. eigenvalues --   -0.65849  -0.65212  -0.64851  -0.64519  -0.63881
 Alpha  occ. eigenvalues --   -0.63310  -0.61654  -0.60512  -0.60382  -0.59791
 Alpha  occ. eigenvalues --   -0.59575  -0.59012  -0.58516  -0.57554  -0.57407
 Alpha  occ. eigenvalues --   -0.56505  -0.56124  -0.55710  -0.55095  -0.54679
 Alpha  occ. eigenvalues --   -0.54460  -0.54011  -0.53600  -0.53334  -0.53140
 Alpha  occ. eigenvalues --   -0.53043  -0.52282  -0.52057  -0.51861  -0.51631
 Alpha  occ. eigenvalues --   -0.51473  -0.50259  -0.50141  -0.49983  -0.49868
 Alpha  occ. eigenvalues --   -0.49364  -0.48891  -0.48591  -0.48411  -0.48271
 Alpha  occ. eigenvalues --   -0.47864  -0.47750  -0.47151  -0.46820  -0.45478
 Alpha  occ. eigenvalues --   -0.45429  -0.45250  -0.44742  -0.44209  -0.44008
 Alpha  occ. eigenvalues --   -0.43850  -0.43649  -0.43570  -0.42128  -0.41317
 Alpha  occ. eigenvalues --   -0.40745  -0.40224  -0.39969  -0.39257  -0.38691
 Alpha  occ. eigenvalues --   -0.35720  -0.35314  -0.33681  -0.33430  -0.33114
 Alpha  occ. eigenvalues --   -0.31882  -0.31524  -0.31297  -0.30617  -0.30152
 Alpha  occ. eigenvalues --   -0.29766  -0.27885
 Alpha virt. eigenvalues --   -0.20670  -0.14044  -0.13367  -0.12275  -0.09619
 Alpha virt. eigenvalues --   -0.08705  -0.07704  -0.07406  -0.06694  -0.05681
 Alpha virt. eigenvalues --   -0.05139  -0.04246  -0.03684  -0.03138  -0.02305

 Mulliken charges:
               1
     1  N   -0.730238
     2  H    0.421145
     3  H    0.430710
     4  H    0.416049
     5  C   -0.133414
     6  H    0.239522
     7  C    0.662239
     8  C   -0.335033
     9  H    0.200450
    10  H    0.260745
    11  O   -0.633740
    12  C   -0.393042
    13  H    0.129580
    14  H    0.181137
    15  C    0.617147
    16  O   -0.533237
    17  O   -0.601022
    18  N   -0.569456
    19  H    0.402446
    20  C   -0.036343
    21  H    0.182386
    22  C    0.566429
    23  C   -0.402504
    24  H    0.189385
    25  H    0.224224
    26  O   -0.482049
    27  C    0.043503
    28  C    0.013248
    29  H    0.176089
    30  C    0.025956
    31  C    0.328518
    32  C   -0.308957
    33  H    0.200813
    34  N   -0.684231
    35  H    0.349868
    36  C   -0.156047
    37  H    0.155263
    38  C   -0.157368
    39  H    0.152583
    40  C   -0.156577
    41  H    0.188153
    42  N   -0.573546
    43  H    0.352268
    44  C   -0.142369
    45  H    0.220459
    46  C    0.656446
    47  C    0.100917
    48  H    0.199641
    49  O   -0.503949
    50  C   -0.489475
    51  H    0.246336
    52  H    0.156772
    53  H    0.166329
    54  O   -0.702820
    55  H    0.440460
    56  N   -0.623209
    57  H    0.390953
    58  C   -0.059251
    59  H    0.198025
    60  C    0.604122
    61  C   -0.289703
    62  H    0.153117
    63  H    0.180677
    64  O   -0.453436
    65  C   -0.330800
    66  H    0.163473
    67  H    0.183137
    68  C   -0.160244
    69  H    0.169195
    70  H    0.142056
    71  N   -0.592080
    72  H    0.374545
    73  N   -0.746800
    74  H    0.332031
    75  H    0.332934
    76  N   -0.736283
    77  H    0.309061
    78  C    0.575285
    79  O   -0.651070
    80  H    0.458733
    81  H    0.503735
 Sum of Mulliken charges =   1.00000

 Dipole moment (field-independent basis, Debye):
    X=            -23.5510    Y=             -1.9259    Z=              6.5702  Tot=             24.5261
 Quadrupole moment (field-independent basis, Debye-Ang):
   XX=           -204.0068   YY=           -226.4340   ZZ=           -179.0859
   XY=            -29.5935   XZ=            -31.0359   YZ=             -1.5451

 Normal termination of Gaussian 16 at Fri Jul 15 03:35:29 2022.
