 Gaussian 16, Revision C.01,
 Gaussian 16:  ES64L-G16RevC.01  3-Jul-2019

 ----------------------------------------------------------------------
 # B3LYP/6-31G* empiricaldispersion=gd3 guess=read geom=check nosymm in
 tegral(ultrafinegrid)
 ----------------------------------------------------------------------

 ------------------------------------------------------
 Candidate Structure: Conf:879 Charge calc in gas phase
 ------------------------------------------------------
 Structure from the checkpoint file:  "conf-879.chk"
 Charge =  1 Multiplicity = 1

                          Input orientation:
 ---------------------------------------------------------------------
 Center     Atomic      Atomic             Coordinates (Angstroms)
 Number     Number       Type             X           Y           Z
 ---------------------------------------------------------------------
      1          7           0       -6.026113   -3.388182   -2.983375
      2          1           0       -6.347242   -4.138522   -3.599626
      3          1           0       -5.541736   -3.822068   -2.149357
      4          1           0       -6.834209   -2.802767   -2.722938
      5          6           0       -4.918383   -2.557293   -3.590417
      6          1           0       -4.937390   -2.693413   -4.673199
      7          6           0       -3.644937   -3.122523   -2.926188
      8          6           0       -5.105886   -1.065053   -3.211286
      9          1           0       -4.852299   -0.939297   -2.154098
     10          1           0       -4.352448   -0.497532   -3.765691
     11          8           0       -3.785763   -3.850014   -1.931976
     12          6           0       -6.508875   -0.593619   -3.515915
     13          6           0       -6.899395   -0.293192   -4.829242
     14          1           0       -6.163217   -0.323042   -5.629698
     15          6           0       -7.469298   -0.533118   -2.492565
     16          1           0       -7.168522   -0.716043   -1.461719
     17          6           0       -8.217247    0.062834   -5.112001
     18          1           0       -8.503295    0.306276   -6.131124
     19          6           0       -8.793685   -0.182527   -2.777532
     20          1           0       -9.522510   -0.126969   -1.974111
     21          6           0       -9.168550    0.113114   -4.087725
     22          1           0      -10.193898    0.392080   -4.311357
     23          7           0       -2.493048   -2.728935   -3.461249
     24          1           0       -2.475683   -1.971759   -4.154495
     25          6           0       -1.262846   -2.681870   -2.688763
     26          1           0       -0.983671   -3.687420   -2.357019
     27          6           0       -1.517115   -1.790279   -1.452530
     28          6           0       -0.191927   -2.096201   -3.662988
     29          1           0        0.091395   -2.894799   -4.359568
     30          1           0        0.704633   -1.775098   -3.122228
     31          8           0       -2.501921   -1.071582   -1.349889
     32          8           0       -0.761242   -1.039886   -4.387860
     33          1           0       -0.546273   -0.206266   -3.850559
     34          7           0       -0.588471   -1.922134   -0.457014
     35          1           0        0.274639   -2.414158   -0.656378
     36          6           0       -0.651854   -1.131942    0.773175
     37          1           0       -1.571855   -0.546790    0.693227
     38          6           0        0.562197   -0.197957    0.838792
     39          6           0       -0.768012   -2.065588    1.982861
     40          1           0       -0.851862   -1.470349    2.898947
     41          1           0        0.144492   -2.677863    2.061422
     42          8           0        1.496589   -0.366447    1.648389
     43          8           0       -1.936670   -2.857638    1.897852
     44          1           0       -1.918654   -3.290522    1.027438
     45          7           0        0.577935    0.752063   -0.092596
     46          1           0       -0.121233    0.754322   -0.849885
     47          6           0        1.778766    1.518791   -0.371633
     48          1           0        2.632754    0.826693   -0.379407
     49          6           0        2.027381    2.556940    0.726482
     50          6           0        1.641404    2.137017   -1.784039
     51          1           0        0.923840    2.962886   -1.762094
     52          1           0        2.613784    2.494807   -2.129107
     53          8           0        1.247844    2.723987    1.675497
     54          6           0        1.139700    0.994145   -2.707757
     55          8           0       -0.145721    0.890874   -2.742537
     56          8           0        1.979693    0.229939   -3.192933
     57          7           0        3.160467    3.270688    0.594946
     58          1           0        3.757531    3.153090   -0.215152
     59          6           0        3.570206    4.327734    1.502023
     60          1           0        2.826007    5.135628    1.477426
     61          6           0        4.860769    4.910524    0.935158
     62          6           0        3.736507    3.865629    2.982122
     63          1           0        4.665330    4.278503    3.386062
     64          1           0        3.850913    2.777277    2.978722
     65          8           0        5.421928    4.511764   -0.060373
     66          6           0        2.554694    4.295166    3.877459
     67          1           0        1.667494    4.472166    3.264265
     68          1           0        2.787860    5.238792    4.383682
     69          6           0        2.194390    3.269543    4.953474
     70          1           0        3.076751    3.034668    5.563652
     71          1           0        1.425113    3.691074    5.615914
     72          7           0        1.706642    2.029331    4.337458
     73          1           0        1.511770    2.069739    3.327051
     74          7           0        1.659948    0.892951    6.353718
     75          1           0        1.448172    0.055861    6.872796
     76          1           0        1.639829    1.753332    6.876987
     77          7           0        1.118592   -0.213855    4.385607
     78          1           0        1.225978   -0.308936    3.352752
     79          1           0        1.025577   -1.064248    4.921225
     80          6           0        1.487321    0.907929    5.013035
     81          8           0        5.294531    5.936290    1.690794
     82          1           0        6.115368    6.272857    1.282586
 ---------------------------------------------------------------------

 SCF Done:  E(RB3LYP) =  -2166.38599395     A.U. after    1 cycles

 Alpha  occ. eigenvalues --  -19.28637 -19.23930 -19.23283 -19.21628 -19.20741
 Alpha  occ. eigenvalues --  -19.20434 -19.20179 -19.17433 -19.13600 -19.12448
 Alpha  occ. eigenvalues --  -14.56914 -14.49403 -14.47575 -14.47151 -14.45488
 Alpha  occ. eigenvalues --  -14.45101 -14.44674 -14.43015 -10.44644 -10.41236
 Alpha  occ. eigenvalues --  -10.40371 -10.37792 -10.37436 -10.37226 -10.37149
 Alpha  occ. eigenvalues --  -10.33535 -10.33224 -10.31227 -10.31196 -10.31162
 Alpha  occ. eigenvalues --  -10.31129 -10.30683 -10.30659 -10.30106 -10.29072
 Alpha  occ. eigenvalues --  -10.28808 -10.28689 -10.28663 -10.28491 -10.28320
 Alpha  occ. eigenvalues --  -10.28270 -10.28230 -10.24136  -1.19707  -1.16278
 Alpha  occ. eigenvalues --   -1.13442  -1.12719  -1.12306  -1.11576  -1.10919
 Alpha  occ. eigenvalues --   -1.10891  -1.09231  -1.06747  -1.05541  -1.02638
 Alpha  occ. eigenvalues --   -1.02219  -1.01530  -1.01474  -1.01182  -0.99898
 Alpha  occ. eigenvalues --   -0.97351  -0.95632  -0.90606  -0.89769  -0.86653
 Alpha  occ. eigenvalues --   -0.85679  -0.84614  -0.84073  -0.82723  -0.81153
 Alpha  occ. eigenvalues --   -0.78487  -0.76824  -0.75389  -0.73917  -0.72890
 Alpha  occ. eigenvalues --   -0.71510  -0.71400  -0.70942  -0.70506  -0.70117
 Alpha  occ. eigenvalues --   -0.69961  -0.69501  -0.68618  -0.68132  -0.67217
 Alpha  occ. eigenvalues --   -0.66864  -0.66619  -0.66384  -0.63095  -0.62471
 Alpha  occ. eigenvalues --   -0.61443  -0.61146  -0.60625  -0.60220  -0.59607
 Alpha  occ. eigenvalues --   -0.58466  -0.58361  -0.58139  -0.57452  -0.57331
 Alpha  occ. eigenvalues --   -0.56925  -0.56735  -0.56005  -0.55879  -0.55469
 Alpha  occ. eigenvalues --   -0.55088  -0.54662  -0.53977  -0.53865  -0.53828
 Alpha  occ. eigenvalues --   -0.52865  -0.52612  -0.51799  -0.51556  -0.51334
 Alpha  occ. eigenvalues --   -0.50965  -0.50726  -0.50332  -0.50065  -0.49721
 Alpha  occ. eigenvalues --   -0.49602  -0.48655  -0.48455  -0.48034  -0.47695
 Alpha  occ. eigenvalues --   -0.47269  -0.47023  -0.46640  -0.46149  -0.45777
 Alpha  occ. eigenvalues --   -0.45386  -0.45072  -0.44991  -0.44471  -0.44292
 Alpha  occ. eigenvalues --   -0.43830  -0.43819  -0.43558  -0.43241  -0.41791
 Alpha  occ. eigenvalues --   -0.41141  -0.40762  -0.40189  -0.40108  -0.38679
 Alpha  occ. eigenvalues --   -0.37683  -0.37114  -0.36860  -0.36842  -0.36238
 Alpha  occ. eigenvalues --   -0.35312  -0.34931  -0.34892  -0.34527  -0.34364
 Alpha  occ. eigenvalues --   -0.33900  -0.33563  -0.32506  -0.31338  -0.28970
 Alpha  occ. eigenvalues --   -0.27978  -0.26388
 Alpha virt. eigenvalues --   -0.10971  -0.10604  -0.08731  -0.08440  -0.08280
 Alpha virt. eigenvalues --   -0.07665  -0.07567  -0.06538  -0.05588  -0.05081
 Alpha virt. eigenvalues --   -0.02143  -0.02076  -0.00828  -0.00054   0.00071

 Mulliken charges:
               1
     1  N   -0.753969
     2  H    0.409111
     3  H    0.423381
     4  H    0.401089
     5  C   -0.121590
     6  H    0.210476
     7  C    0.672421
     8  C   -0.391528
     9  H    0.223537
    10  H    0.216562
    11  O   -0.553682
    12  C    0.139837
    13  C   -0.181405
    14  H    0.149213
    15  C   -0.234758
    16  H    0.151949
    17  C   -0.123317
    18  H    0.162828
    19  C   -0.120795
    20  H    0.159869
    21  C   -0.126268
    22  H    0.162141
    23  N   -0.585890
    24  H    0.374436
    25  C   -0.108339
    26  H    0.173505
    27  C    0.650728
    28  C   -0.057320
    29  H    0.152935
    30  H    0.178090
    31  O   -0.524099
    32  O   -0.668874
    33  H    0.458415
    34  N   -0.632518
    35  H    0.347234
    36  C   -0.097133
    37  H    0.215023
    38  C    0.627445
    39  C   -0.024560
    40  H    0.144864
    41  H    0.130403
    42  O   -0.595982
    43  O   -0.614828
    44  H    0.402901
    45  N   -0.593622
    46  H    0.401497
    47  C   -0.072101
    48  H    0.195961
    49  C    0.657482
    50  C   -0.352665
    51  H    0.159423
    52  H    0.161343
    53  O   -0.573184
    54  C    0.574855
    55  O   -0.645354
    56  O   -0.536980
    57  N   -0.626196
    58  H    0.372554
    59  C    0.001687
    60  H    0.201534
    61  C    0.566231
    62  C   -0.293512
    63  H    0.182454
    64  H    0.170206
    65  O   -0.448434
    66  C   -0.308991
    67  H    0.195263
    68  H    0.168685
    69  C   -0.161170
    70  H    0.173574
    71  H    0.168985
    72  N   -0.631638
    73  H    0.427796
    74  N   -0.761029
    75  H    0.368199
    76  H    0.377800
    77  N   -0.812071
    78  H    0.447173
    79  H    0.354594
    80  C    0.798537
    81  O   -0.562227
    82  H    0.431800
 Sum of Mulliken charges =   1.00000

 Dipole moment (field-independent basis, Debye):
    X=            -12.2446    Y=             -2.0093    Z=              9.2889  Tot=             15.5000
 Quadrupole moment (field-independent basis, Debye-Ang):
   XX=            -83.5153   YY=           -176.3841   ZZ=           -129.1239
   XY=             79.3475   XZ=            116.3552   YZ=             58.4627

 Normal termination of Gaussian 16 at Mon May 16 19:20:00 2022.
