 Gaussian 16, Revision C.01,
 Gaussian 16:  ES64L-G16RevC.01  3-Jul-2019

 ----------------------------------------------------------------------
 # B3LYP/6-31G* empiricaldispersion=gd3 guess=read geom=check nosymm in
 tegral(ultrafinegrid)
 ----------------------------------------------------------------------

 ------------------------------------------------------
 Candidate Structure: Conf:197 Charge calc in gas phase
 ------------------------------------------------------
 Structure from the checkpoint file:  "conf-197.chk"
 Charge =  1 Multiplicity = 1

                          Input orientation:
 ---------------------------------------------------------------------
 Center     Atomic      Atomic             Coordinates (Angstroms)
 Number     Number       Type             X           Y           Z
 ---------------------------------------------------------------------
      1          7           0       -4.953365   -4.757650   -4.761376
      2          1           0       -4.800237   -4.766620   -5.773365
      3          1           0       -4.111107   -5.196539   -4.300276
      4          1           0       -5.833002   -5.252920   -4.551742
      5          6           0       -4.953001   -3.362483   -4.183870
      6          1           0       -5.229666   -2.664258   -4.976130
      7          6           0       -3.492072   -3.180217   -3.704236
      8          6           0       -5.951617   -3.282012   -3.004879
      9          1           0       -5.559919   -3.883954   -2.176142
     10          1           0       -5.962936   -2.241471   -2.662921
     11          8           0       -2.809993   -4.200266   -3.557586
     12          6           0       -7.331513   -3.752292   -3.407760
     13          6           0       -8.172633   -2.929513   -4.170639
     14          1           0       -7.862508   -1.914609   -4.410586
     15          6           0       -7.753678   -5.054210   -3.094220
     16          1           0       -7.130815   -5.687923   -2.464215
     17          6           0       -9.411716   -3.396809   -4.606099
     18          1           0      -10.060478   -2.745878   -5.184657
     19          6           0       -8.994795   -5.524569   -3.536647
     20          1           0       -9.315468   -6.528728   -3.275720
     21          6           0       -9.822812   -4.696838   -4.294256
     22          1           0      -10.789445   -5.056895   -4.633084
     23          7           0       -3.128713   -1.927942   -3.444221
     24          1           0       -3.807202   -1.166468   -3.430435
     25          6           0       -1.846091   -1.540728   -2.874829
     26          1           0       -1.438824   -2.389772   -2.318255
     27          6           0       -2.145118   -0.332848   -1.960780
     28          6           0       -0.852795   -1.136483   -3.977041
     29          1           0        0.108940   -0.886379   -3.505318
     30          1           0       -1.228688   -0.229249   -4.477808
     31          8           0       -3.231303    0.246309   -2.044828
     32          8           0       -0.746949   -2.228763   -4.870346
     33          1           0       -0.043325   -2.032785   -5.507770
     34          7           0       -1.141730    0.035680   -1.151864
     35          1           0       -0.238786   -0.436970   -1.149112
     36          6           0       -1.142955    1.257307   -0.365189
     37          1           0       -1.699396    2.034604   -0.898573
     38          6           0        0.336296    1.633071   -0.174438
     39          6           0       -1.812924    1.021524    1.004285
     40          1           0       -1.236262    0.265405    1.553810
     41          1           0       -2.823443    0.630277    0.822335
     42          8           0        1.211147    0.776590   -0.305208
     43          8           0       -1.861085    2.251031    1.715278
     44          1           0       -1.816714    2.024489    2.664195
     45          7           0        0.569763    2.912701    0.183181
     46          1           0       -0.238519    3.487375    0.389838
     47          6           0        1.865315    3.340109    0.722152
     48          1           0        2.665134    3.078656    0.029112
     49          6           0        2.183375    2.625753    2.050535
     50          6           0        1.837185    4.864269    0.922823
     51          1           0        1.543799    5.324648   -0.029512
     52          1           0        1.083840    5.141508    1.669877
     53          8           0        3.315822    2.301292    2.368447
     54          6           0        3.215813    5.448651    1.317257
     55          8           0        4.223259    5.006717    0.758873
     56          8           0        3.175612    6.385106    2.201849
     57          7           0        1.108199    2.482580    2.899429
     58          1           0        0.171884    2.677801    2.568628
     59          6           0        1.293537    2.018851    4.256254
     60          1           0        2.173389    1.366989    4.263136
     61          6           0        0.089605    1.213648    4.704122
     62          6           0        1.542599    3.175599    5.273866
     63          1           0        1.764933    2.732561    6.251823
     64          1           0        0.618074    3.760660    5.382111
     65          8           0       -1.007917    1.199376    4.170768
     66          6           0        2.673135    4.084864    4.791677
     67          1           0        2.403584    4.484734    3.812094
     68          1           0        3.589609    3.506451    4.636861
     69          6           0        2.971977    5.297762    5.680684
     70          1           0        2.051431    5.808995    5.980923
     71          1           0        3.492323    5.020457    6.603035
     72          7           0        3.763996    6.278093    4.912815
     73          1           0        3.261220    6.565329    4.060358
     74          7           0        5.889325    5.526335    5.549155
     75          1           0        6.875007    5.441877    5.347926
     76          1           0        5.647371    5.631415    6.523628
     77          7           0        5.500532    6.409324    3.411686
     78          1           0        4.739428    6.487322    2.664792
     79          1           0        6.468982    6.289091    3.150870
     80          6           0        5.068381    6.067803    4.613246
     81          8           0        0.346291    0.526985    5.827749
     82          1           0       -0.478231    0.074636    6.090744
 ---------------------------------------------------------------------

 SCF Done:  E(RB3LYP) =  -2166.37269587     A.U. after    1 cycles

 Alpha  occ. eigenvalues --  -19.28215 -19.25583 -19.23940 -19.23292 -19.21784
 Alpha  occ. eigenvalues --  -19.21554 -19.18840 -19.16122 -19.12153 -19.10522
 Alpha  occ. eigenvalues --  -14.59076 -14.48612 -14.45177 -14.45172 -14.42546
 Alpha  occ. eigenvalues --  -14.42385 -14.41835 -14.41210 -10.42578 -10.40934
 Alpha  occ. eigenvalues --  -10.40063 -10.39732 -10.38733 -10.35664 -10.33978
 Alpha  occ. eigenvalues --  -10.33748 -10.33525 -10.33372 -10.32053 -10.31117
 Alpha  occ. eigenvalues --  -10.30905 -10.30836 -10.30761 -10.30467 -10.30207
 Alpha  occ. eigenvalues --  -10.30084 -10.29816 -10.29599 -10.29474 -10.27789
 Alpha  occ. eigenvalues --  -10.26147 -10.24188 -10.22632  -1.19455  -1.18208
 Alpha  occ. eigenvalues --   -1.13715  -1.12992  -1.11414  -1.10882  -1.10423
 Alpha  occ. eigenvalues --   -1.08920  -1.08488  -1.08270  -1.05273  -1.04587
 Alpha  occ. eigenvalues --   -1.01731  -0.99474  -0.98203  -0.97727  -0.97523
 Alpha  occ. eigenvalues --   -0.96410  -0.95477  -0.92925  -0.88486  -0.86519
 Alpha  occ. eigenvalues --   -0.85943  -0.85666  -0.83878  -0.81962  -0.80593
 Alpha  occ. eigenvalues --   -0.79230  -0.75525  -0.75182  -0.73363  -0.73153
 Alpha  occ. eigenvalues --   -0.72873  -0.71622  -0.71437  -0.70518  -0.70156
 Alpha  occ. eigenvalues --   -0.70005  -0.68731  -0.67547  -0.66581  -0.66029
 Alpha  occ. eigenvalues --   -0.65052  -0.64939  -0.64092  -0.62959  -0.62601
 Alpha  occ. eigenvalues --   -0.62485  -0.61254  -0.60722  -0.59865  -0.59251
 Alpha  occ. eigenvalues --   -0.58269  -0.57369  -0.57221  -0.57188  -0.56963
 Alpha  occ. eigenvalues --   -0.56427  -0.56358  -0.55541  -0.55206  -0.54930
 Alpha  occ. eigenvalues --   -0.54389  -0.53972  -0.53874  -0.53268  -0.53200
 Alpha  occ. eigenvalues --   -0.53058  -0.52439  -0.52305  -0.51959  -0.51390
 Alpha  occ. eigenvalues --   -0.50984  -0.50553  -0.50311  -0.50170  -0.49406
 Alpha  occ. eigenvalues --   -0.49104  -0.48404  -0.48150  -0.47698  -0.47278
 Alpha  occ. eigenvalues --   -0.47129  -0.46600  -0.46319  -0.45606  -0.45372
 Alpha  occ. eigenvalues --   -0.45334  -0.44824  -0.44410  -0.44201  -0.43863
 Alpha  occ. eigenvalues --   -0.43656  -0.42713  -0.41765  -0.41362  -0.40916
 Alpha  occ. eigenvalues --   -0.40733  -0.40331  -0.39982  -0.38861  -0.38300
 Alpha  occ. eigenvalues --   -0.38167  -0.37205  -0.36573  -0.36512  -0.36040
 Alpha  occ. eigenvalues --   -0.35850  -0.35607  -0.35544  -0.34251  -0.33438
 Alpha  occ. eigenvalues --   -0.32628  -0.32266  -0.30716  -0.28974  -0.27300
 Alpha  occ. eigenvalues --   -0.26950  -0.24826
 Alpha virt. eigenvalues --   -0.12722  -0.12204  -0.10276  -0.09331  -0.07813
 Alpha virt. eigenvalues --   -0.07359  -0.05167  -0.04946  -0.04276  -0.02613
 Alpha virt. eigenvalues --   -0.02443  -0.01624  -0.01524  -0.01136  -0.00577

 Mulliken charges:
               1
     1  N   -0.749127
     2  H    0.416351
     3  H    0.426141
     4  H    0.403913
     5  C   -0.117187
     6  H    0.212418
     7  C    0.672598
     8  C   -0.386989
     9  H    0.193527
    10  H    0.211274
    11  O   -0.528845
    12  C    0.141425
    13  C   -0.180850
    14  H    0.147362
    15  C   -0.231819
    16  H    0.151040
    17  C   -0.122642
    18  H    0.167880
    19  C   -0.120235
    20  H    0.167055
    21  C   -0.124207
    22  H    0.169016
    23  N   -0.593564
    24  H    0.365442
    25  C   -0.093132
    26  H    0.206327
    27  C    0.626127
    28  C   -0.020321
    29  H    0.160661
    30  H    0.144139
    31  O   -0.543668
    32  O   -0.614910
    33  H    0.412928
    34  N   -0.617878
    35  H    0.365702
    36  C   -0.072008
    37  H    0.190098
    38  C    0.621452
    39  C   -0.028063
    40  H    0.150021
    41  H    0.156700
    42  O   -0.532069
    43  O   -0.656476
    44  H    0.443865
    45  N   -0.625286
    46  H    0.349118
    47  C   -0.022484
    48  H    0.216143
    49  C    0.614249
    50  C   -0.394388
    51  H    0.171460
    52  H    0.135079
    53  O   -0.502285
    54  C    0.621635
    55  O   -0.541170
    56  O   -0.671437
    57  N   -0.635608
    58  H    0.337277
    59  C   -0.029343
    60  H    0.210911
    61  C    0.596451
    62  C   -0.275048
    63  H    0.161629
    64  H    0.141242
    65  O   -0.502543
    66  C   -0.289039
    67  H    0.185251
    68  H    0.181978
    69  C   -0.170623
    70  H    0.170543
    71  H    0.147608
    72  N   -0.593834
    73  H    0.396176
    74  N   -0.745497
    75  H    0.361026
    76  H    0.364154
    77  N   -0.751327
    78  H    0.431511
    79  H    0.345671
    80  C    0.744819
    81  O   -0.547374
    82  H    0.423881
 Sum of Mulliken charges =   1.00000

 Dipole moment (field-independent basis, Debye):
    X=            -18.1396    Y=            -11.2189    Z=             -5.8435  Tot=             22.1146
 Quadrupole moment (field-independent basis, Debye-Ang):
   XX=            -66.8522   YY=           -157.9962   ZZ=            -63.0693
   XY=            130.2394   XZ=            150.7108   YZ=            124.1298

 Normal termination of Gaussian 16 at Mon May 16 19:16:02 2022.
