 Gaussian 16, Revision C.01,
 Gaussian 16:  ES64L-G16RevC.01  3-Jul-2019

 ----------------------------------------------------------------------
 # B3LYP/6-31G* empiricaldispersion=gd3 guess=read geom=check nosymm in
 tegral(ultrafinegrid)
 ----------------------------------------------------------------------

 ------------------------------------------------------
 Candidate Structure: Conf:428 Charge calc in gas phase
 ------------------------------------------------------
 Structure from the checkpoint file:  "conf-428.chk"
 Charge =  1 Multiplicity = 1

                          Input orientation:
 ---------------------------------------------------------------------
 Center     Atomic      Atomic             Coordinates (Angstroms)
 Number     Number       Type             X           Y           Z
 ---------------------------------------------------------------------
      1          7           0       -5.293647   -3.453986   -3.505544
      2          1           0       -5.652214   -3.602263   -4.451959
      3          1           0       -4.500187   -4.137130   -3.335071
      4          1           0       -6.069025   -3.555642   -2.834986
      5          6           0       -4.588623   -2.128757   -3.344199
      6          1           0       -4.940834   -1.450764   -4.124109
      7          6           0       -3.097314   -2.507492   -3.485378
      8          6           0       -4.860851   -1.546655   -1.935264
      9          1           0       -4.311175   -2.145466   -1.201683
     10          1           0       -4.406611   -0.551410   -1.911408
     11          8           0       -2.803773   -3.706262   -3.370570
     12          6           0       -6.339741   -1.497531   -1.628466
     13          6           0       -7.155411   -0.501158   -2.184242
     14          1           0       -6.707259    0.289512   -2.782218
     15          6           0       -6.933758   -2.503150   -0.849110
     16          1           0       -6.307272   -3.259218   -0.377583
     17          6           0       -8.531519   -0.507065   -1.961605
     18          1           0       -9.150016    0.277535   -2.387495
     19          6           0       -8.315718   -2.513086   -0.630885
     20          1           0       -8.760046   -3.290714   -0.016494
     21          6           0       -9.115276   -1.516014   -1.188649
     22          1           0      -10.187340   -1.517376   -1.016395
     23          7           0       -2.262734   -1.497515   -3.687782
     24          1           0       -2.591286   -0.531408   -3.705258
     25          6           0       -0.835008   -1.550417   -3.409078
     26          1           0       -0.433096   -2.503442   -3.769777
     27          6           0       -0.663722   -1.530613   -1.865872
     28          6           0       -0.229070   -0.355122   -4.173094
     29          1           0       -0.316970   -0.572650   -5.245683
     30          1           0        0.829675   -0.218912   -3.931943
     31          8           0       -1.599922   -1.853661   -1.125814
     32          8           0       -0.987170    0.794571   -3.865905
     33          1           0       -0.445128    1.327579   -3.208026
     34          7           0        0.568828   -1.243970   -1.374272
     35          1           0        1.250586   -0.696802   -1.928076
     36          6           0        0.702878   -1.302818    0.085973
     37          1           0       -0.175123   -0.813511    0.529625
     38          6           0        1.962468   -0.516537    0.487674
     39          6           0        0.725554   -2.755919    0.587636
     40          1           0        1.756609   -3.102747    0.669689
     41          1           0        0.188747   -3.398574   -0.113344
     42          8           0        3.007966   -1.070745    0.861251
     43          8           0        0.137990   -2.862637    1.899055
     44          1           0       -0.816425   -2.740264    1.770892
     45          7           0        1.869123    0.810884    0.314819
     46          1           0        0.997092    1.173291   -0.065813
     47          6           0        3.065361    1.592661   -0.040698
     48          1           0        3.781647    0.873425   -0.447349
     49          6           0        3.620167    2.271165    1.209562
     50          6           0        2.669073    2.559053   -1.172182
     51          1           0        2.109583    3.409784   -0.775673
     52          1           0        3.572756    2.913885   -1.675690
     53          8           0        2.914391    2.924820    1.966102
     54          6           0        1.774686    1.717663   -2.116117
     55          8           0        2.298982    0.687409   -2.618870
     56          8           0        0.552401    2.043175   -2.130953
     57          7           0        4.950791    2.042684    1.429255
     58          1           0        5.439501    1.401308    0.818834
     59          6           0        5.587683    2.406572    2.680563
     60          1           0        5.001216    3.254787    3.056262
     61          6           0        7.016085    2.902480    2.472270
     62          6           0        5.552268    1.256646    3.706706
     63          1           0        5.985855    1.616114    4.646113
     64          1           0        6.211284    0.450260    3.356752
     65          8           0        7.952907    2.599119    3.175987
     66          6           0        4.134774    0.716272    3.922376
     67          1           0        3.721198    0.384226    2.964426
     68          1           0        3.473684    1.512020    4.286175
     69          6           0        4.119042   -0.467920    4.891559
     70          1           0        4.759709   -1.279987    4.534212
     71          1           0        4.480777   -0.179804    5.883443
     72          7           0        2.766824   -1.024310    5.076165
     73          1           0        2.153905   -0.535581    5.715788
     74          7           0        2.877853   -2.493410    3.270530
     75          1           0        2.452099   -3.306272    2.842465
     76          1           0        3.272474   -1.854811    2.572733
     77          7           0        1.060678   -2.565820    4.690124
     78          1           0        0.613717   -2.341832    5.567245
     79          1           0        0.490817   -2.922061    3.925203
     80          6           0        2.227709   -1.999504    4.339881
     81          8           0        7.106403    3.750594    1.427366
     82          1           0        8.034886    4.050268    1.390315
 ---------------------------------------------------------------------

 SCF Done:  E(RB3LYP) =  -2166.38010140     A.U. after    1 cycles

 Alpha  occ. eigenvalues --  -19.26407 -19.26263 -19.23973 -19.21476 -19.20972
 Alpha  occ. eigenvalues --  -19.20229 -19.18274 -19.17560 -19.14821 -19.14202
 Alpha  occ. eigenvalues --  -14.57487 -14.50454 -14.49325 -14.47789 -14.46205
 Alpha  occ. eigenvalues --  -14.43997 -14.43573 -14.43512 -10.45609 -10.40715
 Alpha  occ. eigenvalues --  -10.39075 -10.38433 -10.37976 -10.36913 -10.35504
 Alpha  occ. eigenvalues --  -10.33524 -10.32624 -10.32556 -10.32026 -10.31837
 Alpha  occ. eigenvalues --  -10.31307 -10.31181 -10.30993 -10.30227 -10.29970
 Alpha  occ. eigenvalues --  -10.29526 -10.29478 -10.29278 -10.29059 -10.28331
 Alpha  occ. eigenvalues --  -10.27625 -10.27085 -10.23948  -1.17445  -1.16580
 Alpha  occ. eigenvalues --   -1.14321  -1.13154  -1.12435  -1.11964  -1.11260
 Alpha  occ. eigenvalues --   -1.10372  -1.08520  -1.07966  -1.05837  -1.04028
 Alpha  occ. eigenvalues --   -1.02681  -1.01728  -1.01147  -1.00165  -0.99571
 Alpha  occ. eigenvalues --   -0.98757  -0.96504  -0.91399  -0.89133  -0.86633
 Alpha  occ. eigenvalues --   -0.85683  -0.84931  -0.84426  -0.82752  -0.81745
 Alpha  occ. eigenvalues --   -0.78726  -0.77605  -0.75547  -0.74848  -0.72281
 Alpha  occ. eigenvalues --   -0.72015  -0.71480  -0.71400  -0.70658  -0.70381
 Alpha  occ. eigenvalues --   -0.70275  -0.69873  -0.68972  -0.67520  -0.67390
 Alpha  occ. eigenvalues --   -0.66498  -0.66268  -0.65534  -0.64010  -0.63090
 Alpha  occ. eigenvalues --   -0.62225  -0.61917  -0.61253  -0.60620  -0.60010
 Alpha  occ. eigenvalues --   -0.59463  -0.58438  -0.58020  -0.57349  -0.56847
 Alpha  occ. eigenvalues --   -0.56412  -0.56216  -0.56017  -0.55796  -0.55369
 Alpha  occ. eigenvalues --   -0.55265  -0.54709  -0.54262  -0.53878  -0.53497
 Alpha  occ. eigenvalues --   -0.52817  -0.52690  -0.52396  -0.52119  -0.51519
 Alpha  occ. eigenvalues --   -0.51135  -0.50829  -0.50188  -0.49776  -0.49616
 Alpha  occ. eigenvalues --   -0.49046  -0.48963  -0.48726  -0.48294  -0.47867
 Alpha  occ. eigenvalues --   -0.47578  -0.47242  -0.46824  -0.46481  -0.46220
 Alpha  occ. eigenvalues --   -0.45917  -0.45742  -0.45150  -0.44762  -0.44655
 Alpha  occ. eigenvalues --   -0.44435  -0.44094  -0.43465  -0.42826  -0.42361
 Alpha  occ. eigenvalues --   -0.41597  -0.40887  -0.40557  -0.39192  -0.38900
 Alpha  occ. eigenvalues --   -0.38640  -0.38349  -0.37834  -0.36688  -0.35750
 Alpha  occ. eigenvalues --   -0.35364  -0.35159  -0.35123  -0.34951  -0.34148
 Alpha  occ. eigenvalues --   -0.33633  -0.32608  -0.31747  -0.31491  -0.30389
 Alpha  occ. eigenvalues --   -0.28984  -0.28162
 Alpha virt. eigenvalues --   -0.11644  -0.11355  -0.11066  -0.08854  -0.08142
 Alpha virt. eigenvalues --   -0.07864  -0.06523  -0.06184  -0.05944  -0.05263
 Alpha virt. eigenvalues --   -0.03236  -0.02848  -0.01584  -0.00911  -0.00247

 Mulliken charges:
               1
     1  N   -0.753301
     2  H    0.410694
     3  H    0.423279
     4  H    0.400594
     5  C   -0.124007
     6  H    0.209485
     7  C    0.681034
     8  C   -0.381773
     9  H    0.208504
    10  H    0.208522
    11  O   -0.549205
    12  C    0.140357
    13  C   -0.181918
    14  H    0.149528
    15  C   -0.232207
    16  H    0.144731
    17  C   -0.123176
    18  H    0.165233
    19  C   -0.121200
    20  H    0.160495
    21  C   -0.125909
    22  H    0.164514
    23  N   -0.581545
    24  H    0.368031
    25  C   -0.100485
    26  H    0.196974
    27  C    0.638020
    28  C   -0.088361
    29  H    0.143543
    30  H    0.201790
    31  O   -0.563238
    32  O   -0.687373
    33  H    0.450247
    34  N   -0.657481
    35  H    0.412089
    36  C   -0.032065
    37  H    0.168488
    38  C    0.592296
    39  C   -0.063208
    40  H    0.167603
    41  H    0.176941
    42  O   -0.573572
    43  O   -0.659201
    44  H    0.416105
    45  N   -0.570556
    46  H    0.364135
    47  C   -0.081497
    48  H    0.180565
    49  C    0.644647
    50  C   -0.343826
    51  H    0.179808
    52  H    0.171589
    53  O   -0.525184
    54  C    0.561637
    55  O   -0.577917
    56  O   -0.591315
    57  N   -0.599464
    58  H    0.339510
    59  C   -0.057149
    60  H    0.216499
    61  C    0.578718
    62  C   -0.260940
    63  H    0.171911
    64  H    0.150233
    65  O   -0.453110
    66  C   -0.289194
    67  H    0.166826
    68  H    0.170610
    69  C   -0.169112
    70  H    0.194292
    71  H    0.185033
    72  N   -0.582006
    73  H    0.356923
    74  N   -0.756482
    75  H    0.373535
    76  H    0.420873
    77  N   -0.763482
    78  H    0.362098
    79  H    0.399619
    80  C    0.762295
    81  O   -0.552616
    82  H    0.422624
 Sum of Mulliken charges =   1.00000

 Dipole moment (field-independent basis, Debye):
    X=            -13.1931    Y=            -14.0817    Z=              5.6716  Tot=             20.1127
 Quadrupole moment (field-independent basis, Debye-Ang):
   XX=            -83.9767   YY=           -214.9725   ZZ=           -154.0284
   XY=             58.6419   XZ=             78.3688   YZ=             10.7035

 Normal termination of Gaussian 16 at Mon May 16 19:20:05 2022.
