 Gaussian 16, Revision C.01,
 Gaussian 16:  ES64L-G16RevC.01  3-Jul-2019

 ----------------------------------------------------------------------
 # B3LYP/6-31G* empiricaldispersion=gd3 guess=read geom=check nosymm in
 tegral(ultrafinegrid)
 ----------------------------------------------------------------------

 ------------------------------------------------------
 Candidate Structure: Conf:549 Charge calc in gas phase
 ------------------------------------------------------
 Structure from the checkpoint file:  "conf-549.chk"
 Charge =  1 Multiplicity = 1

                          Input orientation:
 ---------------------------------------------------------------------
 Center     Atomic      Atomic             Coordinates (Angstroms)
 Number     Number       Type             X           Y           Z
 ---------------------------------------------------------------------
      1          7           0       -2.470149   -0.111553   -6.322511
      2          1           0       -1.507814   -0.170550   -6.669360
      3          1           0       -2.760640   -1.094240   -6.022974
      4          1           0       -3.071760    0.276838   -7.052904
      5          6           0       -2.556640    0.615312   -4.998569
      6          1           0       -1.711914    1.301517   -4.916475
      7          6           0       -2.452101   -0.558650   -3.997152
      8          6           0       -3.902771    1.367244   -4.875202
      9          1           0       -3.930924    2.164159   -5.629740
     10          1           0       -4.712989    0.662319   -5.099776
     11          8           0       -2.785612   -1.684230   -4.409414
     12          6           0       -4.067365    1.933428   -3.480445
     13          6           0       -4.831776    1.248745   -2.527698
     14          1           0       -5.378630    0.355922   -2.822288
     15          6           0       -3.350296    3.070656   -3.090322
     16          1           0       -2.756691    3.615719   -3.821622
     17          6           0       -4.864944    1.680966   -1.202261
     18          1           0       -5.448031    1.129171   -0.469840
     19          6           0       -3.385927    3.507086   -1.764961
     20          1           0       -2.822353    4.387808   -1.472446
     21          6           0       -4.136912    2.808938   -0.818526
     22          1           0       -4.154301    3.143109    0.214459
     23          7           0       -2.090747   -0.248443   -2.772164
     24          1           0       -1.780359    0.690054   -2.521655
     25          6           0       -1.834329   -1.236308   -1.749824
     26          1           0       -2.716158   -1.872252   -1.616798
     27          6           0       -1.594276   -0.406121   -0.491576
     28          6           0       -0.586882   -2.143497   -2.188402
     29          1           0       -0.994993   -3.110916   -2.493818
     30          1           0        0.063855   -2.282274   -1.316553
     31          8           0       -1.375387    0.808120   -0.559621
     32          8           0        0.099514   -1.609354   -3.274479
     33          1           0        0.673131   -0.866332   -2.926780
     34          7           0       -1.621507   -1.076214    0.687394
     35          1           0       -2.069547   -1.983388    0.706776
     36          6           0       -1.544832   -0.350307    1.959837
     37          1           0       -2.057054    0.609669    1.825464
     38          6           0       -0.053282   -0.122077    2.274808
     39          6           0       -2.243050   -1.151165    3.049103
     40          1           0       -2.264923   -0.547650    3.965724
     41          1           0       -1.662804   -2.061747    3.257413
     42          8           0        0.567807   -0.895160    3.020894
     43          8           0       -3.546673   -1.449258    2.561206
     44          1           0       -4.023335   -1.933681    3.252059
     45          7           0        0.489361    0.901066    1.591682
     46          1           0       -0.121187    1.373311    0.929516
     47          6           0        1.917216    1.009939    1.366891
     48          1           0        2.311289    0.005281    1.464296
     49          6           0        2.633196    1.785873    2.474151
     50          6           0        2.190490    1.401499   -0.092554
     51          1           0        1.645685    2.306981   -0.375429
     52          1           0        3.255517    1.610313   -0.243686
     53          8           0        2.065865    2.293156    3.429725
     54          6           0        1.786217    0.228780   -1.028771
     55          8           0        1.233592    0.534045   -2.106269
     56          8           0        2.038163   -0.946915   -0.618553
     57          7           0        3.997274    1.720478    2.358169
     58          1           0        4.402466    1.357144    1.506338
     59          6           0        4.888893    2.325255    3.323647
     60          1           0        4.264569    2.979608    3.942459
     61          6           0        5.947015    3.216245    2.676391
     62          6           0        5.567390    1.293877    4.246696
     63          1           0        6.236235    1.853102    4.907144
     64          1           0        6.233579    0.650521    3.649873
     65          8           0        6.900534    3.659282    3.270830
     66          6           0        4.587314    0.439438    5.086555
     67          1           0        3.610984    0.934656    5.145371
     68          1           0        4.976894    0.371543    6.108653
     69          6           0        4.388007   -1.021299    4.633643
     70          1           0        5.346462   -1.490571    4.384924
     71          1           0        3.991699   -1.598749    5.476199
     72          7           0        3.460364   -1.263426    3.517700
     73          1           0        2.463794   -1.098851    3.687033
     74          7           0        4.952612   -1.593754    1.738755
     75          1           0        5.192353   -2.204801    0.970378
     76          1           0        5.705238   -1.149593    2.243508
     77          7           0        2.747694   -2.259732    1.539910
     78          1           0        1.861225   -2.293839    2.036607
     79          1           0        2.571212   -1.869981    0.578736
     80          6           0        3.726157   -1.710207    2.286318
     81          8           0        5.714564    3.441232    1.361914
     82          1           0        6.431891    4.023702    1.046865
 ---------------------------------------------------------------------

 SCF Done:  E(RB3LYP) =  -2166.38347845     A.U. after    1 cycles

 Alpha  occ. eigenvalues --  -19.27932 -19.23715 -19.23713 -19.21854 -19.21796
 Alpha  occ. eigenvalues --  -19.21664 -19.19345 -19.18216 -19.15869 -19.15546
 Alpha  occ. eigenvalues --  -14.58000 -14.48361 -14.47484 -14.46167 -14.45820
 Alpha  occ. eigenvalues --  -14.44392 -14.44049 -14.43633 -10.43132 -10.40275
 Alpha  occ. eigenvalues --  -10.40093 -10.38470 -10.38440 -10.38214 -10.36516
 Alpha  occ. eigenvalues --  -10.33977 -10.33061 -10.32480 -10.32435 -10.32397
 Alpha  occ. eigenvalues --  -10.32079 -10.32068 -10.30767 -10.29712 -10.29410
 Alpha  occ. eigenvalues --  -10.28089 -10.27958 -10.27936 -10.27924 -10.27580
 Alpha  occ. eigenvalues --  -10.27529 -10.27410 -10.26194  -1.18655  -1.16541
 Alpha  occ. eigenvalues --   -1.14014  -1.12835  -1.11762  -1.11522  -1.11304
 Alpha  occ. eigenvalues --   -1.10949  -1.09657  -1.09039  -1.06429  -1.03231
 Alpha  occ. eigenvalues --   -1.02174  -1.01740  -1.01287  -1.00946  -1.00325
 Alpha  occ. eigenvalues --   -0.98781  -0.95273  -0.91029  -0.89094  -0.87418
 Alpha  occ. eigenvalues --   -0.85608  -0.84370  -0.83220  -0.83150  -0.82130
 Alpha  occ. eigenvalues --   -0.78063  -0.77772  -0.75434  -0.74081  -0.73011
 Alpha  occ. eigenvalues --   -0.72537  -0.71563  -0.71443  -0.70681  -0.70226
 Alpha  occ. eigenvalues --   -0.69370  -0.69288  -0.67884  -0.67433  -0.67059
 Alpha  occ. eigenvalues --   -0.66732  -0.66391  -0.64929  -0.64287  -0.62668
 Alpha  occ. eigenvalues --   -0.61727  -0.60937  -0.60868  -0.59825  -0.59509
 Alpha  occ. eigenvalues --   -0.58963  -0.58564  -0.58160  -0.57573  -0.57400
 Alpha  occ. eigenvalues --   -0.56873  -0.56567  -0.56041  -0.55757  -0.55374
 Alpha  occ. eigenvalues --   -0.55346  -0.54938  -0.54519  -0.54278  -0.54095
 Alpha  occ. eigenvalues --   -0.52754  -0.52544  -0.51726  -0.51579  -0.50827
 Alpha  occ. eigenvalues --   -0.50765  -0.50555  -0.50401  -0.50225  -0.49948
 Alpha  occ. eigenvalues --   -0.49874  -0.49308  -0.48941  -0.48704  -0.48593
 Alpha  occ. eigenvalues --   -0.48206  -0.47913  -0.47259  -0.47042  -0.46789
 Alpha  occ. eigenvalues --   -0.46170  -0.45713  -0.45066  -0.44596  -0.44557
 Alpha  occ. eigenvalues --   -0.44092  -0.43312  -0.43195  -0.42936  -0.42836
 Alpha  occ. eigenvalues --   -0.42408  -0.42008  -0.39732  -0.39018  -0.38477
 Alpha  occ. eigenvalues --   -0.38219  -0.37357  -0.36805  -0.36569  -0.36444
 Alpha  occ. eigenvalues --   -0.36236  -0.36014  -0.34862  -0.34019  -0.33718
 Alpha  occ. eigenvalues --   -0.33137  -0.32956  -0.32745  -0.31982  -0.31316
 Alpha  occ. eigenvalues --   -0.30497  -0.29361
 Alpha virt. eigenvalues --   -0.09946  -0.09639  -0.09199  -0.08983  -0.08615
 Alpha virt. eigenvalues --   -0.08056  -0.07217  -0.07146  -0.05734  -0.04689
 Alpha virt. eigenvalues --   -0.03910  -0.01574  -0.01232  -0.00779  -0.00115

 Mulliken charges:
               1
     1  N   -0.754419
     2  H    0.420560
     3  H    0.429715
     4  H    0.407756
     5  C   -0.116245
     6  H    0.220378
     7  C    0.684109
     8  C   -0.376099
     9  H    0.178587
    10  H    0.179158
    11  O   -0.562920
    12  C    0.147458
    13  C   -0.167159
    14  H    0.140868
    15  C   -0.193187
    16  H    0.133822
    17  C   -0.130939
    18  H    0.153483
    19  C   -0.113697
    20  H    0.153694
    21  C   -0.113106
    22  H    0.150877
    23  N   -0.583259
    24  H    0.391297
    25  C   -0.075005
    26  H    0.178822
    27  C    0.645798
    28  C   -0.031811
    29  H    0.152390
    30  H    0.163059
    31  O   -0.553762
    32  O   -0.657937
    33  H    0.433423
    34  N   -0.604660
    35  H    0.351932
    36  C   -0.074826
    37  H    0.190935
    38  C    0.651714
    39  C   -0.065242
    40  H    0.162758
    41  H    0.155870
    42  O   -0.577227
    43  O   -0.629265
    44  H    0.412900
    45  N   -0.571157
    46  H    0.383022
    47  C   -0.084433
    48  H    0.167252
    49  C    0.626459
    50  C   -0.389712
    51  H    0.171170
    52  H    0.160811
    53  O   -0.511285
    54  C    0.634710
    55  O   -0.597089
    56  O   -0.617219
    57  N   -0.612909
    58  H    0.335198
    59  C   -0.064388
    60  H    0.226806
    61  C    0.587949
    62  C   -0.272077
    63  H    0.197614
    64  H    0.114509
    65  O   -0.445445
    66  C   -0.282299
    67  H    0.193078
    68  H    0.169507
    69  C   -0.170057
    70  H    0.158922
    71  H    0.188126
    72  N   -0.584810
    73  H    0.399217
    74  N   -0.743784
    75  H    0.382401
    76  H    0.369551
    77  N   -0.754280
    78  H    0.363281
    79  H    0.418482
    80  C    0.690675
    81  O   -0.572437
    82  H    0.424047
 Sum of Mulliken charges =   1.00000

 Dipole moment (field-independent basis, Debye):
    X=             -1.0590    Y=             -1.0366    Z=             -7.4890  Tot=              7.6342
 Quadrupole moment (field-independent basis, Debye-Ang):
   XX=           -152.1241   YY=           -236.1107   ZZ=           -107.5992
   XY=            -10.5961   XZ=             63.2418   YZ=            -37.0183

 Normal termination of Gaussian 16 at Mon May 16 19:20:12 2022.
