 Gaussian 16, Revision C.01,
 Gaussian 16:  ES64L-G16RevC.01  3-Jul-2019

 ----------------------------------------------------------------------
 # B3LYP/6-31G* empiricaldispersion=gd3 guess=read geom=check nosymm in
 tegral(ultrafinegrid)
 ----------------------------------------------------------------------

 ------------------------------------------------------
 Candidate Structure: Conf:472 Charge calc in gas phase
 ------------------------------------------------------
 Structure from the checkpoint file:  "conf-472.chk"
 Charge =  1 Multiplicity = 1

                          Input orientation:
 ---------------------------------------------------------------------
 Center     Atomic      Atomic             Coordinates (Angstroms)
 Number     Number       Type             X           Y           Z
 ---------------------------------------------------------------------
      1          7           0       -2.987854    0.100014   -5.022786
      2          1           0       -2.452936   -0.160599   -5.855234
      3          1           0       -3.417807   -0.769796   -4.625690
      4          1           0       -3.687592    0.808019   -5.288057
      5          6           0       -2.107071    0.603034   -3.901041
      6          1           0       -1.193091    1.027462   -4.318222
      7          6           0       -1.827194   -0.649559   -3.050760
      8          6           0       -2.856408    1.681106   -3.092801
      9          1           0       -3.739312    1.234592   -2.619057
     10          1           0       -2.162312    1.985772   -2.307225
     11          8           0       -2.564455   -1.637283   -3.171254
     12          6           0       -3.219752    2.848098   -3.979926
     13          6           0       -2.213982    3.736380   -4.393348
     14          1           0       -1.202925    3.600749   -4.013585
     15          6           0       -4.524463    3.011299   -4.467242
     16          1           0       -5.318752    2.352000   -4.118498
     17          6           0       -2.517307    4.773130   -5.273674
     18          1           0       -1.736748    5.462943   -5.581804
     19          6           0       -4.824354    4.050916   -5.355219
     20          1           0       -5.840675    4.176596   -5.717470
     21          6           0       -3.820671    4.930410   -5.759076
     22          1           0       -4.051494    5.740702   -6.444433
     23          7           0       -0.783836   -0.497271   -2.237746
     24          1           0       -0.344128    0.449783   -2.245106
     25          6           0       -0.403883   -1.427262   -1.199803
     26          1           0       -0.790227   -2.423126   -1.439494
     27          6           0       -0.993958   -0.953388    0.147413
     28          6           0        1.160843   -1.456720   -1.204590
     29          1           0        1.530327   -0.423273   -1.162246
     30          1           0        1.465012   -1.873118   -2.169386
     31          8           0       -1.716855    0.029989    0.233823
     32          8           0        1.734912   -2.245165   -0.172297
     33          1           0        2.086096   -1.632762    0.505598
     34          7           0       -0.556155   -1.659973    1.254689
     35          1           0        0.201662   -2.303730    1.017024
     36          6           0       -0.282556   -0.870499    2.467928
     37          1           0       -1.201481   -0.356610    2.763818
     38          6           0        0.812654    0.121454    2.038470
     39          6           0        0.218068   -1.763816    3.600027
     40          1           0        1.158748   -2.232669    3.302526
     41          1           0       -0.511890   -2.546705    3.829784
     42          8           0        1.976879   -0.279285    1.855573
     43          8           0        0.529427   -0.982904    4.770731
     44          1           0       -0.300552   -0.740571    5.210322
     45          7           0        0.396651    1.361886    1.738513
     46          1           0       -0.595270    1.546887    1.818736
     47          6           0        1.144226    2.208675    0.816530
     48          1           0        1.892970    1.556577    0.358039
     49          6           0        1.947961    3.282625    1.558015
     50          6           0        0.231105    2.759140   -0.310094
     51          1           0       -0.729546    2.238142   -0.291347
     52          1           0        0.042186    3.829373   -0.169826
     53          8           0        1.850394    3.457029    2.786185
     54          6           0        0.923232    2.546648   -1.684247
     55          8           0        0.208015    2.031431   -2.603111
     56          8           0        2.128546    2.863630   -1.748686
     57          7           0        2.819660    3.931254    0.778240
     58          1           0        2.775849    3.753018   -0.244106
     59          6           0        3.767186    4.878977    1.340210
     60          1           0        3.302840    5.337846    2.220362
     61          6           0        4.013095    5.984867    0.318277
     62          6           0        5.103869    4.228470    1.781968
     63          1           0        5.763474    5.043991    2.089870
     64          1           0        5.573923    3.750459    0.911434
     65          8           0        3.598390    5.983600   -0.815950
     66          6           0        4.988680    3.219310    2.948755
     67          1           0        4.235150    3.562300    3.664822
     68          1           0        5.947056    3.190012    3.481568
     69          6           0        4.658512    1.787936    2.496427
     70          1           0        3.710608    1.718804    1.966611
     71          1           0        5.420641    1.433728    1.794588
     72          7           0        4.615978    0.802001    3.589059
     73          1           0        5.479394    0.331436    3.823354
     74          7           0        2.458464    1.216902    4.391845
     75          1           0        1.594904    0.737829    4.635355
     76          1           0        2.348800    2.089291    3.851003
     77          7           0        3.577741   -0.703818    5.016941
     78          1           0        4.127540   -1.463405    4.637319
     79          1           0        2.708516   -0.998114    5.451719
     80          6           0        3.533537    0.453120    4.299939
     81          8           0        4.766992    6.973187    0.846809
     82          1           0        4.889829    7.642221    0.146750
 ---------------------------------------------------------------------

 SCF Done:  E(RB3LYP) =  -2166.41134564     A.U. after    1 cycles

 Alpha  occ. eigenvalues --  -19.29194 -19.27001 -19.24054 -19.23362 -19.22888
 Alpha  occ. eigenvalues --  -19.22504 -19.21291 -19.20587 -19.15672 -19.15244
 Alpha  occ. eigenvalues --  -14.56683 -14.48929 -14.48215 -14.47155 -14.46666
 Alpha  occ. eigenvalues --  -14.45690 -14.44951 -14.43368 -10.44475 -10.39994
 Alpha  occ. eigenvalues --  -10.39458 -10.39407 -10.38951 -10.37326 -10.35985
 Alpha  occ. eigenvalues --  -10.35742 -10.34658 -10.33771 -10.33143 -10.32999
 Alpha  occ. eigenvalues --  -10.32716 -10.32169 -10.31765 -10.29287 -10.28506
 Alpha  occ. eigenvalues --  -10.27880 -10.27760 -10.27747 -10.27265 -10.26909
 Alpha  occ. eigenvalues --  -10.26851 -10.26572 -10.26038  -1.17915  -1.15937
 Alpha  occ. eigenvalues --   -1.15219  -1.14931  -1.13881  -1.13046  -1.12114
 Alpha  occ. eigenvalues --   -1.11320  -1.10542  -1.09057  -1.08537  -1.03592
 Alpha  occ. eigenvalues --   -1.02854  -1.02761  -1.02630  -1.00963  -1.00586
 Alpha  occ. eigenvalues --   -0.99741  -0.94186  -0.89905  -0.89280  -0.88162
 Alpha  occ. eigenvalues --   -0.86234  -0.85070  -0.83612  -0.82590  -0.82040
 Alpha  occ. eigenvalues --   -0.78408  -0.77351  -0.75900  -0.74746  -0.74236
 Alpha  occ. eigenvalues --   -0.73194  -0.70814  -0.70507  -0.70369  -0.70013
 Alpha  occ. eigenvalues --   -0.69719  -0.68632  -0.68549  -0.68301  -0.67214
 Alpha  occ. eigenvalues --   -0.66660  -0.66631  -0.65606  -0.65272  -0.64141
 Alpha  occ. eigenvalues --   -0.61849  -0.61660  -0.60969  -0.60851  -0.60459
 Alpha  occ. eigenvalues --   -0.59742  -0.59512  -0.58478  -0.58264  -0.57879
 Alpha  occ. eigenvalues --   -0.57707  -0.56779  -0.56549  -0.56170  -0.55439
 Alpha  occ. eigenvalues --   -0.55299  -0.54965  -0.54289  -0.54083  -0.53984
 Alpha  occ. eigenvalues --   -0.53561  -0.53137  -0.53030  -0.52620  -0.52068
 Alpha  occ. eigenvalues --   -0.51479  -0.51259  -0.50881  -0.50760  -0.50515
 Alpha  occ. eigenvalues --   -0.50072  -0.49699  -0.49624  -0.49221  -0.49118
 Alpha  occ. eigenvalues --   -0.48314  -0.47831  -0.47645  -0.47045  -0.46628
 Alpha  occ. eigenvalues --   -0.46528  -0.46434  -0.46215  -0.45153  -0.44839
 Alpha  occ. eigenvalues --   -0.44074  -0.43819  -0.43279  -0.43060  -0.42928
 Alpha  occ. eigenvalues --   -0.42307  -0.42241  -0.41754  -0.41483  -0.39607
 Alpha  occ. eigenvalues --   -0.39093  -0.38980  -0.37855  -0.37456  -0.37386
 Alpha  occ. eigenvalues --   -0.37125  -0.36412  -0.35872  -0.35142  -0.34340
 Alpha  occ. eigenvalues --   -0.33935  -0.33709  -0.33428  -0.32751  -0.31364
 Alpha  occ. eigenvalues --   -0.29751  -0.29499
 Alpha virt. eigenvalues --   -0.10995  -0.09785  -0.09453  -0.09062  -0.08580
 Alpha virt. eigenvalues --   -0.07251  -0.07158  -0.06722  -0.06374  -0.06119
 Alpha virt. eigenvalues --   -0.03919  -0.02086  -0.01138  -0.00711  -0.00667

 Mulliken charges:
               1
     1  N   -0.747417
     2  H    0.411726
     3  H    0.415942
     4  H    0.401457
     5  C   -0.129206
     6  H    0.244855
     7  C    0.630409
     8  C   -0.377736
     9  H    0.170515
    10  H    0.232515
    11  O   -0.547893
    12  C    0.120980
    13  C   -0.191808
    14  H    0.191258
    15  C   -0.228827
    16  H    0.136901
    17  C   -0.130045
    18  H    0.158665
    19  C   -0.125706
    20  H    0.152646
    21  C   -0.126008
    22  H    0.154797
    23  N   -0.612517
    24  H    0.417118
    25  C   -0.113182
    26  H    0.211819
    27  C    0.599916
    28  C   -0.067166
    29  H    0.170479
    30  H    0.182554
    31  O   -0.506567
    32  O   -0.646250
    33  H    0.436752
    34  N   -0.594765
    35  H    0.357492
    36  C   -0.072331
    37  H    0.172347
    38  C    0.599535
    39  C   -0.064078
    40  H    0.175389
    41  H    0.183718
    42  O   -0.593433
    43  O   -0.635259
    44  H    0.422687
    45  N   -0.555763
    46  H    0.361014
    47  C   -0.077985
    48  H    0.207339
    49  C    0.592304
    50  C   -0.422700
    51  H    0.179322
    52  H    0.181122
    53  O   -0.581329
    54  C    0.602857
    55  O   -0.616845
    56  O   -0.541719
    57  N   -0.601012
    58  H    0.412786
    59  C   -0.042598
    60  H    0.202910
    61  C    0.580058
    62  C   -0.281579
    63  H    0.184868
    64  H    0.156992
    65  O   -0.437139
    66  C   -0.270151
    67  H    0.174820
    68  H    0.151063
    69  C   -0.179220
    70  H    0.203816
    71  H    0.176794
    72  N   -0.600767
    73  H    0.356025
    74  N   -0.788290
    75  H    0.371041
    76  H    0.437863
    77  N   -0.760387
    78  H    0.359467
    79  H    0.380702
    80  C    0.784169
    81  O   -0.566886
    82  H    0.424760
 Sum of Mulliken charges =   1.00000

 Dipole moment (field-independent basis, Debye):
    X=              1.1137    Y=              1.6846    Z=              2.2057  Tot=              2.9906
 Quadrupole moment (field-independent basis, Debye-Ang):
   XX=           -164.3569   YY=           -218.8379   ZZ=           -123.4298
   XY=              1.5839   XZ=             81.8147   YZ=            -16.0018

 Normal termination of Gaussian 16 at Mon May 16 19:20:15 2022.
