 Gaussian 16, Revision C.01,
 Gaussian 16:  ES64L-G16RevC.01  3-Jul-2019

 ----------------------------------------------------------------------
 # B3LYP/6-31G* empiricaldispersion=gd3 guess=read geom=check nosymm in
 tegral(ultrafinegrid)
 ----------------------------------------------------------------------

 ------------------------------------------------------
 Candidate Structure: Conf:448 Charge calc in gas phase
 ------------------------------------------------------
 Structure from the checkpoint file:  "conf-448.chk"
 Charge =  1 Multiplicity = 1

                          Input orientation:
 ---------------------------------------------------------------------
 Center     Atomic      Atomic             Coordinates (Angstroms)
 Number     Number       Type             X           Y           Z
 ---------------------------------------------------------------------
      1          7           0       -6.921778   -2.083334   -3.320388
      2          1           0       -7.503151   -2.663010   -3.929484
      3          1           0       -6.649244   -2.619655   -2.455985
      4          1           0       -7.441518   -1.240901   -3.012763
      5          6           0       -5.586739   -1.698829   -3.920576
      6          1           0       -5.561178   -2.044819   -4.956648
      7          6           0       -4.568857   -2.475811   -3.056106
      8          6           0       -5.377834   -0.147372   -3.856742
      9          1           0       -4.302334    0.043714   -3.913817
     10          1           0       -5.843816    0.283646   -4.749223
     11          8           0       -4.958256   -2.962072   -1.992493
     12          6           0       -5.959091    0.479454   -2.605807
     13          6           0       -7.298416    0.913930   -2.604887
     14          1           0       -7.869472    0.917235   -3.534371
     15          6           0       -5.209493    0.589306   -1.426033
     16          1           0       -4.161978    0.312851   -1.421289
     17          6           0       -7.880415    1.422778   -1.438758
     18          1           0       -8.910302    1.767309   -1.455519
     19          6           0       -5.786544    1.112916   -0.268559
     20          1           0       -5.173138    1.211318    0.622535
     21          6           0       -7.125381    1.515615   -0.268826
     22          1           0       -7.571929    1.921597    0.633962
     23          7           0       -3.301078   -2.560679   -3.517740
     24          1           0       -3.065554   -1.916314   -4.266743
     25          6           0       -2.231787   -2.694722   -2.521152
     26          1           0       -2.530703   -3.458601   -1.801930
     27          6           0       -2.062853   -1.314582   -1.867085
     28          6           0       -0.880506   -3.098239   -3.151224
     29          1           0       -0.580146   -2.339391   -3.890821
     30          1           0       -0.990723   -4.057724   -3.665572
     31          8           0       -2.311155   -0.305386   -2.529248
     32          8           0        0.086137   -3.257464   -2.131307
     33          1           0        0.328907   -2.371137   -1.719425
     34          7           0       -1.615434   -1.310281   -0.594139
     35          1           0       -1.282101   -2.198275   -0.232481
     36          6           0       -0.980177   -0.119250   -0.025789
     37          1           0       -1.250899    0.709343   -0.685661
     38          6           0        0.553335   -0.286419   -0.042987
     39          6           0       -1.577708    0.158159    1.361191
     40          1           0       -1.205325    1.111955    1.733922
     41          1           0       -1.262631   -0.621745    2.071104
     42          8           0        1.039693   -1.190312   -0.822850
     43          8           0       -2.997757    0.260250    1.287703
     44          1           0       -3.323234   -0.591403    0.954496
     45          7           0        1.181318    0.549712    0.727421
     46          1           0        0.982079    2.294251    0.592876
     47          6           0        2.628573    0.531572    0.754956
     48          1           0        3.058672    0.456706   -0.259464
     49          6           0        3.174829   -0.653152    1.577393
     50          6           0        3.123794    1.849289    1.413430
     51          1           0        2.716420    1.883114    2.432374
     52          1           0        4.210917    1.891626    1.490121
     53          8           0        2.479550   -1.405635    2.233158
     54          6           0        2.682299    3.123921    0.683392
     55          8           0        3.449801    4.025093    0.436790
     56          8           0        1.375855    3.185743    0.378874
     57          7           0        4.565577   -0.840704    1.481962
     58          1           0        5.070005   -0.043597    1.108014
     59          6           0        5.253959   -1.512429    2.590781
     60          1           0        4.462151   -1.959525    3.201435
     61          6           0        6.009270   -0.553127    3.512445
     62          6           0        6.202717   -2.645768    2.145251
     63          1           0        6.628577   -3.079832    3.052913
     64          1           0        7.047204   -2.219757    1.586046
     65          8           0        6.651951   -0.922822    4.465675
     66          6           0        5.475216   -3.713917    1.301126
     67          1           0        4.391678   -3.580181    1.403408
     68          1           0        5.695694   -4.717988    1.678823
     69          6           0        5.854395   -3.651452   -0.193578
     70          1           0        6.009407   -2.615718   -0.515613
     71          1           0        6.800759   -4.166462   -0.378417
     72          7           0        4.853423   -4.253884   -1.078562
     73          1           0        4.950975   -5.231969   -1.309531
     74          7           0        3.458445   -2.409839   -0.940077
     75          1           0        2.524651   -1.947071   -0.973794
     76          1           0        4.080394   -2.003860   -0.246642
     77          7           0        2.752997   -4.299608   -2.084684
     78          1           0        2.926595   -5.243505   -2.394161
     79          1           0        1.797059   -3.934827   -2.188809
     80          6           0        3.672903   -3.653394   -1.351998
     81          8           0        5.892750    0.743937    3.142113
     82          1           0        6.399341    1.275011    3.786424
 ---------------------------------------------------------------------

 SCF Done:  E(RB3LYP) =  -2166.36786590     A.U. after    1 cycles

 Alpha  occ. eigenvalues --  -19.27788 -19.27735 -19.24695 -19.22505 -19.21878
 Alpha  occ. eigenvalues --  -19.21486 -19.20475 -19.20254 -19.19292 -19.15734
 Alpha  occ. eigenvalues --  -14.59071 -14.50093 -14.48334 -14.46782 -14.46173
 Alpha  occ. eigenvalues --  -14.44889 -14.44448 -14.36381 -10.44147 -10.43525
 Alpha  occ. eigenvalues --  -10.40784 -10.39818 -10.39289 -10.36669 -10.34955
 Alpha  occ. eigenvalues --  -10.34860 -10.34561 -10.33876 -10.33216 -10.33105
 Alpha  occ. eigenvalues --  -10.31925 -10.30968 -10.30053 -10.29970 -10.29928
 Alpha  occ. eigenvalues --  -10.29642 -10.29201 -10.28549 -10.28379 -10.28182
 Alpha  occ. eigenvalues --  -10.28133 -10.27737 -10.25212  -1.19964  -1.18378
 Alpha  occ. eigenvalues --   -1.14705  -1.13458  -1.12333  -1.12024  -1.11832
 Alpha  occ. eigenvalues --   -1.11728  -1.09394  -1.09171  -1.08286  -1.06612
 Alpha  occ. eigenvalues --   -1.03762  -1.02240  -1.01749  -1.00731  -0.99455
 Alpha  occ. eigenvalues --   -0.96309  -0.95409  -0.92527  -0.89009  -0.88154
 Alpha  occ. eigenvalues --   -0.85684  -0.85092  -0.84360  -0.83418  -0.81316
 Alpha  occ. eigenvalues --   -0.78832  -0.77826  -0.75729  -0.74449  -0.73974
 Alpha  occ. eigenvalues --   -0.72984  -0.72842  -0.72429  -0.70971  -0.70598
 Alpha  occ. eigenvalues --   -0.70024  -0.69803  -0.68886  -0.68575  -0.67889
 Alpha  occ. eigenvalues --   -0.66856  -0.66128  -0.65708  -0.63281  -0.63077
 Alpha  occ. eigenvalues --   -0.62742  -0.61939  -0.61226  -0.60925  -0.60736
 Alpha  occ. eigenvalues --   -0.59975  -0.59505  -0.58219  -0.58148  -0.57804
 Alpha  occ. eigenvalues --   -0.57487  -0.57282  -0.56302  -0.56026  -0.55870
 Alpha  occ. eigenvalues --   -0.55726  -0.55537  -0.55149  -0.54395  -0.54150
 Alpha  occ. eigenvalues --   -0.54053  -0.53393  -0.53052  -0.52781  -0.52074
 Alpha  occ. eigenvalues --   -0.51783  -0.51567  -0.50852  -0.50723  -0.50441
 Alpha  occ. eigenvalues --   -0.49911  -0.49855  -0.49571  -0.48688  -0.48549
 Alpha  occ. eigenvalues --   -0.48243  -0.47742  -0.47415  -0.47269  -0.46990
 Alpha  occ. eigenvalues --   -0.46202  -0.45831  -0.44978  -0.44484  -0.44091
 Alpha  occ. eigenvalues --   -0.43890  -0.43621  -0.43401  -0.43022  -0.42473
 Alpha  occ. eigenvalues --   -0.41959  -0.41711  -0.40849  -0.40393  -0.40223
 Alpha  occ. eigenvalues --   -0.39348  -0.38292  -0.37611  -0.37334  -0.36909
 Alpha  occ. eigenvalues --   -0.36714  -0.36179  -0.35324  -0.35231  -0.34895
 Alpha  occ. eigenvalues --   -0.34154  -0.33581  -0.33304  -0.33231  -0.31556
 Alpha  occ. eigenvalues --   -0.30038  -0.29322
 Alpha virt. eigenvalues --   -0.13696  -0.11519  -0.11066  -0.09164  -0.09022
 Alpha virt. eigenvalues --   -0.07554  -0.07076  -0.06333  -0.04938  -0.04510
 Alpha virt. eigenvalues --   -0.03803  -0.02994  -0.01897  -0.01153  -0.00950

 Mulliken charges:
               1
     1  N   -0.761216
     2  H    0.409753
     3  H    0.431447
     4  H    0.403935
     5  C   -0.106722
     6  H    0.213148
     7  C    0.644066
     8  C   -0.396914
     9  H    0.233643
    10  H    0.188075
    11  O   -0.517668
    12  C    0.116661
    13  C   -0.251926
    14  H    0.144468
    15  C   -0.192582
    16  H    0.191477
    17  C   -0.117209
    18  H    0.160982
    19  C   -0.141349
    20  H    0.198868
    21  C   -0.125471
    22  H    0.165709
    23  N   -0.569946
    24  H    0.352892
    25  C   -0.099112
    26  H    0.202839
    27  C    0.606829
    28  C   -0.039575
    29  H    0.155770
    30  H    0.169644
    31  O   -0.538040
    32  O   -0.689750
    33  H    0.460512
    34  N   -0.597570
    35  H    0.342859
    36  C   -0.093579
    37  H    0.213814
    38  C    0.602266
    39  C   -0.038652
    40  H    0.189559
    41  H    0.143098
    42  O   -0.674813
    43  O   -0.617340
    44  H    0.393383
    45  N   -0.560216
    46  H    0.430651
    47  C   -0.063729
    48  H    0.146750
    49  C    0.588701
    50  C   -0.402511
    51  H    0.186136
    52  H    0.171396
    53  O   -0.482533
    54  C    0.592731
    55  O   -0.457974
    56  O   -0.590002
    57  N   -0.640927
    58  H    0.348135
    59  C   -0.079702
    60  H    0.226331
    61  C    0.595406
    62  C   -0.282827
    63  H    0.196216
    64  H    0.149764
    65  O   -0.442656
    66  C   -0.282714
    67  H    0.176887
    68  H    0.163415
    69  C   -0.184638
    70  H    0.182140
    71  H    0.186742
    72  N   -0.600175
    73  H    0.347462
    74  N   -0.838435
    75  H    0.430889
    76  H    0.402576
    77  N   -0.810196
    78  H    0.351253
    79  H    0.418977
    80  C    0.804244
    81  O   -0.574489
    82  H    0.430659
 Sum of Mulliken charges =   1.00000

 Dipole moment (field-independent basis, Debye):
    X=            -13.1407    Y=            -20.5386    Z=            -15.4952  Tot=             28.8897
 Quadrupole moment (field-independent basis, Debye-Ang):
   XX=            -19.5269   YY=           -206.3403   ZZ=           -190.6372
   XY=            -16.5006   XZ=             79.0236   YZ=             51.1269

 Normal termination of Gaussian 16 at Mon May 16 19:20:05 2022.
