 Gaussian 16, Revision C.01,
 Gaussian 16:  ES64L-G16RevC.01  3-Jul-2019

 ----------------------------------------------------------------------
 # B3LYP/6-31G* empiricaldispersion=gd3 guess=read geom=check nosymm in
 tegral(ultrafinegrid)
 ----------------------------------------------------------------------

 ------------------------------------------------------
 Candidate Structure: Conf:364 Charge calc in gas phase
 ------------------------------------------------------
 Structure from the checkpoint file:  "conf-364.chk"
 Charge =  1 Multiplicity = 1

                          Input orientation:
 ---------------------------------------------------------------------
 Center     Atomic      Atomic             Coordinates (Angstroms)
 Number     Number       Type             X           Y           Z
 ---------------------------------------------------------------------
      1          7           0       -4.419633   -0.135125   -7.391966
      2          1           0       -3.886894   -0.032793   -8.260106
      3          1           0       -4.323031   -1.126523   -7.063310
      4          1           0       -5.402521    0.124230   -7.572952
      5          6           0       -3.846442    0.677113   -6.250375
      6          1           0       -3.299055    1.519091   -6.679337
      7          6           0       -2.919504   -0.316095   -5.513567
      8          6           0       -4.995212    1.179380   -5.343269
      9          1           0       -5.424632    0.320135   -4.814666
     10          1           0       -4.539160    1.825678   -4.586320
     11          8           0       -3.114072   -1.529260   -5.718902
     12          6           0       -6.051768    1.910946   -6.140888
     13          6           0       -5.825978    3.219370   -6.591439
     14          1           0       -4.918461    3.743363   -6.299182
     15          6           0       -7.236483    1.256007   -6.513870
     16          1           0       -7.447252    0.258372   -6.130877
     17          6           0       -6.767095    3.860954   -7.395069
     18          1           0       -6.587905    4.879226   -7.727028
     19          6           0       -8.177737    1.898955   -7.325034
     20          1           0       -9.096679    1.387223   -7.594734
     21          6           0       -7.941626    3.199869   -7.767993
     22          1           0       -8.673284    3.703315   -8.392461
     23          7           0       -2.037079    0.232678   -4.697013
     24          1           0       -1.888802    1.251866   -4.659000
     25          6           0       -1.085121   -0.435714   -3.804558
     26          1           0       -1.628575   -0.933236   -2.992334
     27          6           0       -0.258926    0.746715   -3.226646
     28          6           0       -0.217588   -1.514911   -4.504499
     29          1           0        0.686801   -1.674076   -3.910922
     30          1           0        0.101041   -1.121308   -5.484673
     31          8           0       -0.484674    1.899025   -3.617166
     32          8           0       -0.856341   -2.762080   -4.582700
     33          1           0       -1.682739   -2.642004   -5.084521
     34          7           0        0.670354    0.412453   -2.328798
     35          1           0        0.839333   -0.554173   -2.052683
     36          6           0        1.604428    1.342527   -1.716508
     37          1           0        1.978539    2.046641   -2.466060
     38          6           0        2.740041    0.479331   -1.154760
     39          6           0        0.945183    2.159357   -0.563795
     40          1           0        0.544013    1.453390    0.177218
     41          1           0        0.113683    2.722213   -0.998197
     42          8           0        2.603978   -0.736205   -1.019089
     43          8           0        1.856948    3.065805    0.009641
     44          1           0        2.283545    2.601537    0.765577
     45          7           0        3.854589    1.168993   -0.798176
     46          1           0        3.729688    2.175647   -0.746341
     47          6           0        4.754194    0.598022    0.191015
     48          1           0        4.975264   -0.430600   -0.106407
     49          6           0        4.066760    0.625823    1.578198
     50          6           0        6.076424    1.408293    0.243651
     51          1           0        6.441404    1.534231   -0.778683
     52          1           0        5.902117    2.386883    0.700833
     53          8           0        3.078513    1.326971    1.806641
     54          6           0        7.127726    0.603718    1.022293
     55          8           0        7.395957    1.020392    2.261019
     56          8           0        7.682774   -0.353237    0.524845
     57          7           0        4.652595   -0.127934    2.539767
     58          1           0        5.509178   -0.607343    2.280940
     59          6           0        4.556219    0.296655    3.934398
     60          1           0        3.539018    0.106971    4.288833
     61          6           0        4.791258    1.826245    4.128478
     62          6           0        5.554292   -0.523884    4.781899
     63          1           0        6.564200   -0.386907    4.370523
     64          1           0        5.303627   -1.583767    4.665052
     65          8           0        4.278062    2.284538    5.175503
     66          6           0        5.536028   -0.129216    6.274673
     67          1           0        5.732730   -1.004144    6.905067
     68          1           0        4.549324    0.265334    6.533187
     69          6           0        6.605455    0.935879    6.568399
     70          1           0        7.604351    0.500687    6.464302
     71          1           0        6.554272    1.762249    5.858124
     72          7           0        6.539962    1.493595    7.928885
     73          1           0        6.928139    0.925206    8.670129
     74          7           0        4.911140    3.113910    7.490584
     75          1           0        4.481995    3.978927    7.790054
     76          1           0        4.717977    2.820400    6.490008
     77          7           0        5.821145    2.897438    9.617077
     78          1           0        6.639710    2.699002   10.172530
     79          1           0        5.195983    3.606935    9.968158
     80          6           0        5.748776    2.504568    8.317993
     81          8           0        5.572244    2.455333    3.364195
     82          1           0        6.699663    1.667449    2.646263
 ---------------------------------------------------------------------

 SCF Done:  E(RB3LYP) =  -2166.37714342     A.U. after    1 cycles

 Alpha  occ. eigenvalues --  -19.27032 -19.21593 -19.21345 -19.19528 -19.18886
 Alpha  occ. eigenvalues --  -19.18658 -19.18119 -19.15593 -19.14772 -19.14470
 Alpha  occ. eigenvalues --  -14.59970 -14.49276 -14.47261 -14.47024 -14.44757
 Alpha  occ. eigenvalues --  -14.44171 -14.41737 -14.41127 -10.43754 -10.42811
 Alpha  occ. eigenvalues --  -10.40878 -10.38611 -10.35259 -10.34456 -10.34368
 Alpha  occ. eigenvalues --  -10.34161 -10.33917 -10.32654 -10.32460 -10.32371
 Alpha  occ. eigenvalues --  -10.31130 -10.30736 -10.30461 -10.30325 -10.30163
 Alpha  occ. eigenvalues --  -10.30063 -10.30019 -10.29347 -10.29211 -10.27292
 Alpha  occ. eigenvalues --  -10.25308 -10.25002 -10.24707  -1.19142  -1.14162
 Alpha  occ. eigenvalues --   -1.13440  -1.11299  -1.11207  -1.10720  -1.09524
 Alpha  occ. eigenvalues --   -1.09416  -1.08144  -1.06577  -1.05821  -1.03131
 Alpha  occ. eigenvalues --   -1.01336  -1.00908  -0.99729  -0.98820  -0.98333
 Alpha  occ. eigenvalues --   -0.97866  -0.97829  -0.93400  -0.88292  -0.86529
 Alpha  occ. eigenvalues --   -0.86112  -0.85810  -0.84187  -0.81465  -0.80203
 Alpha  occ. eigenvalues --   -0.79524  -0.75764  -0.74937  -0.74145  -0.73486
 Alpha  occ. eigenvalues --   -0.72842  -0.72080  -0.71865  -0.71364  -0.70321
 Alpha  occ. eigenvalues --   -0.69349  -0.68725  -0.67133  -0.66670  -0.66184
 Alpha  occ. eigenvalues --   -0.65539  -0.64786  -0.63454  -0.63244  -0.63141
 Alpha  occ. eigenvalues --   -0.62773  -0.61191  -0.60731  -0.60323  -0.59554
 Alpha  occ. eigenvalues --   -0.59128  -0.58513  -0.57629  -0.57539  -0.57062
 Alpha  occ. eigenvalues --   -0.56885  -0.56603  -0.55248  -0.54819  -0.54417
 Alpha  occ. eigenvalues --   -0.54284  -0.53617  -0.53426  -0.53354  -0.53028
 Alpha  occ. eigenvalues --   -0.52761  -0.52645  -0.52058  -0.51608  -0.51358
 Alpha  occ. eigenvalues --   -0.51031  -0.50464  -0.50131  -0.49704  -0.49203
 Alpha  occ. eigenvalues --   -0.48756  -0.48111  -0.47900  -0.47622  -0.47068
 Alpha  occ. eigenvalues --   -0.46621  -0.46058  -0.45932  -0.45597  -0.45557
 Alpha  occ. eigenvalues --   -0.45168  -0.44977  -0.44593  -0.43645  -0.43239
 Alpha  occ. eigenvalues --   -0.43159  -0.42752  -0.41876  -0.41258  -0.40722
 Alpha  occ. eigenvalues --   -0.40510  -0.39222  -0.38499  -0.38171  -0.37887
 Alpha  occ. eigenvalues --   -0.37331  -0.36856  -0.36503  -0.36360  -0.35937
 Alpha  occ. eigenvalues --   -0.35299  -0.34195  -0.33538  -0.33243  -0.32621
 Alpha  occ. eigenvalues --   -0.32523  -0.31587  -0.30878  -0.30481  -0.29427
 Alpha  occ. eigenvalues --   -0.28597  -0.28334
 Alpha virt. eigenvalues --   -0.13400  -0.12538  -0.11186  -0.10035  -0.07148
 Alpha virt. eigenvalues --   -0.06853  -0.04901  -0.04559  -0.04256  -0.04149
 Alpha virt. eigenvalues --   -0.02676  -0.01959  -0.01876  -0.01517  -0.00595

 Mulliken charges:
               1
     1  N   -0.747965
     2  H    0.418042
     3  H    0.427831
     4  H    0.406446
     5  C   -0.116656
     6  H    0.217085
     7  C    0.668117
     8  C   -0.381344
     9  H    0.196020
    10  H    0.212721
    11  O   -0.569696
    12  C    0.136382
    13  C   -0.181893
    14  H    0.150970
    15  C   -0.232851
    16  H    0.153277
    17  C   -0.122209
    18  H    0.170018
    19  C   -0.119472
    20  H    0.168975
    21  C   -0.123828
    22  H    0.170772
    23  N   -0.625764
    24  H    0.377970
    25  C   -0.070831
    26  H    0.206472
    27  C    0.624073
    28  C   -0.032541
    29  H    0.181184
    30  H    0.135077
    31  O   -0.550076
    32  O   -0.622734
    33  H    0.424658
    34  N   -0.626499
    35  H    0.371128
    36  C   -0.068187
    37  H    0.189169
    38  C    0.608235
    39  C   -0.035361
    40  H    0.149315
    41  H    0.164728
    42  O   -0.535359
    43  O   -0.647433
    44  H    0.445680
    45  N   -0.595577
    46  H    0.347109
    47  C   -0.092593
    48  H    0.212384
    49  C    0.652849
    50  C   -0.370251
    51  H    0.191752
    52  H    0.185143
    53  O   -0.556420
    54  C    0.555467
    55  O   -0.620238
    56  O   -0.468233
    57  N   -0.617012
    58  H    0.357519
    59  C   -0.017746
    60  H    0.176221
    61  C    0.628089
    62  C   -0.335772
    63  H    0.176493
    64  H    0.164863
    65  O   -0.608568
    66  C   -0.264169
    67  H    0.138662
    68  H    0.176867
    69  C   -0.182920
    70  H    0.177853
    71  H    0.215647
    72  N   -0.603436
    73  H    0.349061
    74  N   -0.776241
    75  H    0.350487
    76  H    0.463967
    77  N   -0.776117
    78  H    0.366736
    79  H    0.367957
    80  C    0.804880
    81  O   -0.602834
    82  H    0.464476
 Sum of Mulliken charges =   1.00000

 Dipole moment (field-independent basis, Debye):
    X=            -12.0131    Y=              7.8995    Z=             -7.4974  Tot=             16.2150
 Quadrupole moment (field-independent basis, Debye-Ang):
   XX=           -103.9515   YY=           -238.6325   ZZ=            174.5549
   XY=              7.4203   XZ=            273.3512   YZ=             17.6863

 Normal termination of Gaussian 16 at Mon May 16 19:18:05 2022.
