 Gaussian 16, Revision C.01,
 Gaussian 16:  ES64L-G16RevC.01  3-Jul-2019

 ----------------------------------------------------------------------
 # B3LYP/6-31G* empiricaldispersion=gd3 guess=read geom=check nosymm in
 tegral(ultrafinegrid)
 ----------------------------------------------------------------------

 ------------------------------------------------------
 Candidate Structure: Conf:231 Charge calc in gas phase
 ------------------------------------------------------
 Structure from the checkpoint file:  "conf-231.chk"
 Charge =  1 Multiplicity = 1

                          Input orientation:
 ---------------------------------------------------------------------
 Center     Atomic      Atomic             Coordinates (Angstroms)
 Number     Number       Type             X           Y           Z
 ---------------------------------------------------------------------
      1          7           0       -3.808490   -2.967698   -3.865318
      2          1           0       -3.581007   -3.163908   -4.845161
      3          1           0       -2.922936   -3.148465   -3.290510
      4          1           0       -4.591771   -3.561361   -3.577851
      5          6           0       -4.051793   -1.491193   -3.599217
      6          1           0       -4.432319   -1.034427   -4.513857
      7          6           0       -2.652013   -0.972189   -3.183333
      8          6           0       -5.045490   -1.340841   -2.423435
      9          1           0       -6.002148   -1.811167   -2.689388
     10          1           0       -4.637572   -1.865603   -1.550842
     11          8           0       -1.859892   -1.808222   -2.699897
     12          6           0       -5.219804    0.135167   -2.111928
     13          6           0       -4.449658    0.731762   -1.104310
     14          1           0       -3.793581    0.124730   -0.489839
     15          6           0       -6.023525    0.942404   -2.927479
     16          1           0       -6.632283    0.492310   -3.709796
     17          6           0       -4.443462    2.117267   -0.943256
     18          1           0       -3.795029    2.571488   -0.200270
     19          6           0       -6.036933    2.329191   -2.752623
     20          1           0       -6.662192    2.947749   -3.389692
     21          6           0       -5.235977    2.918400   -1.770456
     22          1           0       -5.228422    3.997792   -1.651973
     23          7           0       -2.417080    0.306414   -3.347883
     24          1           0       -3.156570    0.885293   -3.705722
     25          6           0       -1.161233    0.950295   -2.965064
     26          1           0       -0.334567    0.253092   -3.151871
     27          6           0       -1.152036    1.240134   -1.450347
     28          6           0       -0.895628    2.191792   -3.778555
     29          1           0       -0.037691    2.651708   -3.275974
     30          1           0       -1.726471    2.909187   -3.734135
     31          8           0       -1.170195    2.370362   -0.973821
     32          8           0       -0.634876    1.863462   -5.130375
     33          1           0        0.310727    1.637475   -5.195253
     34          7           0       -1.095044    0.104909   -0.674648
     35          1           0       -0.640522   -0.658858   -1.175485
     36          6           0       -0.728305    0.186625    0.736050
     37          1           0       -1.045299    1.164042    1.110464
     38          6           0        0.815165    0.095382    0.908117
     39          6           0       -1.458045   -0.960952    1.470200
     40          1           0       -1.426064   -1.854253    0.831955
     41          1           0       -2.507879   -0.698375    1.632699
     42          8           0        1.337001   -0.791076    1.632027
     43          8           0       -0.883834   -1.277457    2.741946
     44          1           0        0.061952   -1.444421    2.509654
     45          7           0        1.524826    1.005563    0.239400
     46          1           0        1.019301    1.711369   -0.282726
     47          6           0        2.940627    0.796040   -0.132070
     48          1           0        3.093337   -0.286390   -0.138726
     49          6           0        3.820450    1.474507    0.912016
     50          6           0        3.151083    1.321934   -1.555308
     51          1           0        3.007826    2.410328   -1.561725
     52          1           0        4.180696    1.141793   -1.882708
     53          8           0        3.520621    2.554652    1.406689
     54          6           0        2.145882    0.640559   -2.545143
     55          8           0        1.942776    1.246651   -3.620274
     56          8           0        1.600997   -0.417511   -2.114723
     57          7           0        4.925524    0.759243    1.307857
     58          1           0        5.115845   -0.150924    0.911484
     59          6           0        5.657955    1.194396    2.482505
     60          1           0        5.465437    2.269246    2.567312
     61          6           0        7.173996    1.021883    2.382310
     62          6           0        5.164477    0.511395    3.790791
     63          1           0        5.616623    1.052913    4.629488
     64          1           0        5.541086   -0.520230    3.837368
     65          8           0        7.947803    1.211336    3.292635
     66          6           0        3.636401    0.501282    3.860151
     67          1           0        3.277731   -0.086319    3.008690
     68          1           0        3.233814    1.511505    3.723241
     69          6           0        3.037466   -0.120170    5.120823
     70          1           0        3.499560   -1.086914    5.358955
     71          1           0        3.172856    0.545406    5.980714
     72          7           0        1.600216   -0.305213    4.849385
     73          1           0        1.394736   -0.467613    3.862778
     74          7           0        0.809133   -0.269375    7.045084
     75          1           0        0.046913   -0.025447    7.660307
     76          1           0        1.730288   -0.052537    7.392850
     77          7           0       -0.668881   -0.415188    5.267077
     78          1           0       -0.826032   -0.662855    4.283221
     79          1           0       -1.397283   -0.689364    5.910593
     80          6           0        0.591580   -0.333466    5.716998
     81          8           0        7.559881    0.583997    1.161668
     82          1           0        8.532861    0.501838    1.189219
 ---------------------------------------------------------------------

 SCF Done:  E(RB3LYP) =  -2166.34768233     A.U. after    1 cycles

 Alpha  occ. eigenvalues --  -19.26352 -19.25184 -19.24752 -19.22034 -19.20937
 Alpha  occ. eigenvalues --  -19.20495 -19.18225 -19.17769 -19.10653 -19.10489
 Alpha  occ. eigenvalues --  -14.60089 -14.50416 -14.49732 -14.48451 -14.47810
 Alpha  occ. eigenvalues --  -14.44019 -14.43995 -14.42924 -10.46015 -10.41888
 Alpha  occ. eigenvalues --  -10.40300 -10.38851 -10.38210 -10.37378 -10.34975
 Alpha  occ. eigenvalues --  -10.34207 -10.33876 -10.33553 -10.32545 -10.31008
 Alpha  occ. eigenvalues --  -10.30678 -10.30097 -10.29352 -10.29208 -10.29133
 Alpha  occ. eigenvalues --  -10.28833 -10.28732 -10.28402 -10.28377 -10.28328
 Alpha  occ. eigenvalues --  -10.27496 -10.27297 -10.22567  -1.17748  -1.17167
 Alpha  occ. eigenvalues --   -1.14680  -1.13809  -1.13390  -1.12444  -1.11028
 Alpha  occ. eigenvalues --   -1.09885  -1.08151  -1.06319  -1.04705  -1.04136
 Alpha  occ. eigenvalues --   -1.03824  -1.02371  -1.01592  -0.99771  -0.99376
 Alpha  occ. eigenvalues --   -0.96521  -0.95055  -0.92368  -0.89187  -0.86899
 Alpha  occ. eigenvalues --   -0.85309  -0.84535  -0.84287  -0.83054  -0.81963
 Alpha  occ. eigenvalues --   -0.79020  -0.78185  -0.76081  -0.74560  -0.73343
 Alpha  occ. eigenvalues --   -0.73077  -0.72343  -0.71664  -0.71418  -0.70573
 Alpha  occ. eigenvalues --   -0.70329  -0.69705  -0.68270  -0.68027  -0.67817
 Alpha  occ. eigenvalues --   -0.66747  -0.66607  -0.64997  -0.64673  -0.63033
 Alpha  occ. eigenvalues --   -0.62741  -0.62147  -0.61705  -0.60785  -0.60487
 Alpha  occ. eigenvalues --   -0.59586  -0.59113  -0.58886  -0.58072  -0.57412
 Alpha  occ. eigenvalues --   -0.56888  -0.56418  -0.55955  -0.55521  -0.55385
 Alpha  occ. eigenvalues --   -0.55189  -0.54898  -0.54500  -0.53726  -0.53398
 Alpha  occ. eigenvalues --   -0.52798  -0.52529  -0.52061  -0.51629  -0.51541
 Alpha  occ. eigenvalues --   -0.51270  -0.50949  -0.50277  -0.49964  -0.49701
 Alpha  occ. eigenvalues --   -0.49519  -0.49225  -0.48228  -0.47890  -0.47282
 Alpha  occ. eigenvalues --   -0.47155  -0.47105  -0.46067  -0.45781  -0.45741
 Alpha  occ. eigenvalues --   -0.45243  -0.45074  -0.44477  -0.44236  -0.44020
 Alpha  occ. eigenvalues --   -0.43953  -0.43493  -0.42736  -0.42374  -0.42210
 Alpha  occ. eigenvalues --   -0.41073  -0.40025  -0.39622  -0.39187  -0.38487
 Alpha  occ. eigenvalues --   -0.38269  -0.38125  -0.37931  -0.37698  -0.37059
 Alpha  occ. eigenvalues --   -0.34904  -0.34861  -0.34729  -0.34523  -0.34007
 Alpha  occ. eigenvalues --   -0.33030  -0.32057  -0.31213  -0.31170  -0.26315
 Alpha  occ. eigenvalues --   -0.25385  -0.24614
 Alpha virt. eigenvalues --   -0.11688  -0.11048  -0.10420  -0.10100  -0.09950
 Alpha virt. eigenvalues --   -0.09008  -0.06466  -0.06054  -0.05759  -0.05496
 Alpha virt. eigenvalues --   -0.04530  -0.02857  -0.02341  -0.02146  -0.00724

 Mulliken charges:
               1
     1  N   -0.751919
     2  H    0.421508
     3  H    0.428461
     4  H    0.412330
     5  C   -0.112446
     6  H    0.216559
     7  C    0.664494
     8  C   -0.376506
     9  H    0.178352
    10  H    0.184098
    11  O   -0.558241
    12  C    0.128888
    13  C   -0.182184
    14  H    0.150756
    15  C   -0.196153
    16  H    0.136053
    17  C   -0.128894
    18  H    0.170835
    19  C   -0.127736
    20  H    0.162376
    21  C   -0.129109
    22  H    0.165779
    23  N   -0.555665
    24  H    0.361081
    25  C   -0.113110
    26  H    0.257945
    27  C    0.608553
    28  C   -0.039863
    29  H    0.183134
    30  H    0.135756
    31  O   -0.524684
    32  O   -0.650569
    33  H    0.429289
    34  N   -0.604783
    35  H    0.391140
    36  C   -0.113108
    37  H    0.202877
    38  C    0.649318
    39  C   -0.039043
    40  H    0.155246
    41  H    0.159161
    42  O   -0.608334
    43  O   -0.678517
    44  H    0.441688
    45  N   -0.543950
    46  H    0.369546
    47  C   -0.063313
    48  H    0.178697
    49  C    0.640027
    50  C   -0.401205
    51  H    0.166631
    52  H    0.170025
    53  O   -0.526386
    54  C    0.593693
    55  O   -0.602519
    56  O   -0.624649
    57  N   -0.609156
    58  H    0.341295
    59  C   -0.060401
    60  H    0.226190
    61  C    0.591327
    62  C   -0.274534
    63  H    0.176325
    64  H    0.145862
    65  O   -0.455151
    66  C   -0.332313
    67  H    0.184081
    68  H    0.193844
    69  C   -0.138710
    70  H    0.184472
    71  H    0.164480
    72  N   -0.629011
    73  H    0.383656
    74  N   -0.752742
    75  H    0.374336
    76  H    0.378659
    77  N   -0.784345
    78  H    0.425685
    79  H    0.356911
    80  C    0.790318
    81  O   -0.564234
    82  H    0.421745
 Sum of Mulliken charges =   1.00000

 Dipole moment (field-independent basis, Debye):
    X=            -15.5369    Y=            -11.0005    Z=              8.8246  Tot=             20.9829
 Quadrupole moment (field-independent basis, Debye-Ang):
   XX=           -146.3369   YY=           -227.2402   ZZ=           -101.6727
   XY=             20.6415   XZ=             78.1885   YZ=             33.1200

 Normal termination of Gaussian 16 at Mon May 16 19:16:09 2022.
