 Gaussian 16, Revision C.01,
 Gaussian 16:  ES64L-G16RevC.01  3-Jul-2019

 ----------------------------------------------------------------------
 # B3LYP/6-31G* empiricaldispersion=gd3 guess=read geom=check nosymm in
 tegral(ultrafinegrid)
 ----------------------------------------------------------------------

 ------------------------------------------------------
 Candidate Structure: Conf:883 Charge calc in gas phase
 ------------------------------------------------------
 Structure from the checkpoint file:  "conf-883.chk"
 Charge =  1 Multiplicity = 1

                          Input orientation:
 ---------------------------------------------------------------------
 Center     Atomic      Atomic             Coordinates (Angstroms)
 Number     Number       Type             X           Y           Z
 ---------------------------------------------------------------------
      1          7           0       -3.764914   -0.486668   -4.815458
      2          1           0       -3.709387   -1.378704   -5.357322
      3          1           0       -4.697235   -0.051134   -4.875533
      4          1           0       -3.073828    0.170376   -5.185843
      5          6           0       -3.461067   -0.886373   -3.386045
      6          1           0       -2.806518   -0.128532   -2.930582
      7          6           0       -2.776957   -2.255794   -3.512313
      8          6           0       -4.774054   -0.970662   -2.571136
      9          1           0       -5.319381   -1.884391   -2.836263
     10          1           0       -4.461757   -1.054321   -1.525510
     11          8           0       -2.876310   -2.856280   -4.602088
     12          6           0       -5.644804    0.247706   -2.797341
     13          6           0       -5.221359    1.517449   -2.368156
     14          1           0       -4.271404    1.618440   -1.849593
     15          6           0       -6.851672    0.134951   -3.504488
     16          1           0       -7.194824   -0.845113   -3.830671
     17          6           0       -6.005765    2.640494   -2.626379
     18          1           0       -5.673475    3.616593   -2.284093
     19          6           0       -7.635656    1.264676   -3.761753
     20          1           0       -8.573958    1.159482   -4.298728
     21          6           0       -7.213994    2.518305   -3.320715
     22          1           0       -7.821626    3.397106   -3.516214
     23          7           0       -2.166097   -2.693818   -2.412657
     24          1           0       -2.209176   -2.046355   -1.593783
     25          6           0       -1.659182   -4.069415   -2.239557
     26          1           0       -2.494614   -4.775511   -2.241070
     27          6           0       -0.983857   -4.210719   -0.873159
     28          6           0       -0.662603   -4.532177   -3.346346
     29          1           0       -0.026978   -5.313835   -2.917295
     30          1           0       -0.011715   -3.676563   -3.600684
     31          8           0       -1.221935   -5.138786   -0.115031
     32          8           0       -1.284929   -5.103280   -4.462056
     33          1           0       -1.895783   -4.429908   -4.817449
     34          7           0       -0.021351   -3.274477   -0.594654
     35          1           0        0.095262   -2.485218   -1.216428
     36          6           0        0.606779   -3.233216    0.721743
     37          1           0       -0.144911   -3.575779    1.444793
     38          6           0        0.988233   -1.774007    1.037454
     39          6           0        1.807604   -4.171518    0.832012
     40          1           0        2.691312   -3.715512    0.383409
     41          1           0        1.582600   -5.119600    0.336532
     42          8           0        2.155573   -1.401278    1.169849
     43          8           0        2.123697   -4.393426    2.224492
     44          1           0        1.590714   -5.136834    2.547961
     45          7           0       -0.083533   -0.965138    1.116671
     46          1           0       -1.002459   -1.314170    0.821316
     47          6           0        0.030665    0.476013    1.065530
     48          1           0        0.745157    0.750012    0.275813
     49          6           0        0.564785    1.033267    2.399954
     50          6           0       -1.358302    1.069560    0.722163
     51          1           0       -2.034619    0.894800    1.566658
     52          1           0       -1.264471    2.144022    0.553897
     53          8           0        0.521892    0.385836    3.449257
     54          6           0       -1.943742    0.394024   -0.540069
     55          8           0       -1.998624    1.052327   -1.597042
     56          8           0       -2.303681   -0.828866   -0.381446
     57          7           0        1.069507    2.283804    2.289379
     58          1           0        1.148191    2.695668    1.364978
     59          6           0        1.617519    3.117292    3.353742
     60          1           0        0.803269    3.653753    3.863024
     61          6           0        2.459032    4.192313    2.662283
     62          6           0        2.400405    2.348909    4.440151
     63          1           0        1.664838    1.790283    5.020925
     64          1           0        2.858185    3.088499    5.103949
     65          8           0        2.556633    4.319100    1.460901
     66          6           0        3.450007    1.377109    3.886294
     67          1           0        4.340400    1.916344    3.538983
     68          1           0        3.050171    0.847215    3.017382
     69          6           0        3.841013    0.333120    4.945752
     70          1           0        4.576009    0.727650    5.653124
     71          1           0        2.966960    0.038437    5.534588
     72          7           0        4.403272   -0.890982    4.369933
     73          1           0        5.374257   -0.870658    4.089212
     74          7           0        2.324957   -1.903595    4.008716
     75          1           0        1.869926   -2.696517    3.565757
     76          1           0        1.801158   -1.030006    3.904353
     77          7           0        4.272831   -3.003556    3.424539
     78          1           0        5.267692   -3.136640    3.523578
     79          1           0        3.716865   -3.707873    2.937466
     80          6           0        3.661948   -1.914006    3.910002
     81          8           0        3.054767    5.002482    3.553584
     82          1           0        3.538662    5.684476    3.049437
 ---------------------------------------------------------------------

 SCF Done:  E(RB3LYP) =  -2166.41979868     A.U. after    1 cycles

 Alpha  occ. eigenvalues --  -19.29567 -19.27914 -19.24142 -19.23926 -19.21249
 Alpha  occ. eigenvalues --  -19.21149 -19.20608 -19.19735 -19.18102 -19.17411
 Alpha  occ. eigenvalues --  -14.55840 -14.49199 -14.47754 -14.46456 -14.45807
 Alpha  occ. eigenvalues --  -14.45753 -14.45747 -14.43850 -10.44429 -10.42099
 Alpha  occ. eigenvalues --  -10.40151 -10.38478 -10.37887 -10.37818 -10.35777
 Alpha  occ. eigenvalues --  -10.34808 -10.34114 -10.33532 -10.33507 -10.32792
 Alpha  occ. eigenvalues --  -10.32545 -10.31924 -10.31153 -10.29313 -10.28576
 Alpha  occ. eigenvalues --  -10.28546 -10.28452 -10.27653 -10.27193 -10.27082
 Alpha  occ. eigenvalues --  -10.26987 -10.26929 -10.26688  -1.20652  -1.15656
 Alpha  occ. eigenvalues --   -1.14349  -1.13343  -1.12980  -1.12759  -1.12242
 Alpha  occ. eigenvalues --   -1.11733  -1.10795  -1.10069  -1.07860  -1.03290
 Alpha  occ. eigenvalues --   -1.02929  -1.02390  -1.02291  -1.01893  -1.00500
 Alpha  occ. eigenvalues --   -1.00347  -0.94116  -0.90447  -0.89341  -0.87644
 Alpha  occ. eigenvalues --   -0.86245  -0.84623  -0.83806  -0.82545  -0.81823
 Alpha  occ. eigenvalues --   -0.79291  -0.76471  -0.75754  -0.74824  -0.74490
 Alpha  occ. eigenvalues --   -0.72878  -0.71859  -0.70619  -0.70493  -0.70034
 Alpha  occ. eigenvalues --   -0.69187  -0.68599  -0.68365  -0.67553  -0.66925
 Alpha  occ. eigenvalues --   -0.66751  -0.66627  -0.65955  -0.64725  -0.63119
 Alpha  occ. eigenvalues --   -0.62215  -0.61325  -0.60356  -0.60293  -0.59770
 Alpha  occ. eigenvalues --   -0.59432  -0.59172  -0.58882  -0.58687  -0.58599
 Alpha  occ. eigenvalues --   -0.57721  -0.57354  -0.57065  -0.56744  -0.56042
 Alpha  occ. eigenvalues --   -0.55293  -0.54901  -0.54814  -0.53917  -0.53631
 Alpha  occ. eigenvalues --   -0.53495  -0.52880  -0.52661  -0.52195  -0.51953
 Alpha  occ. eigenvalues --   -0.51412  -0.51015  -0.50585  -0.50197  -0.50092
 Alpha  occ. eigenvalues --   -0.49799  -0.49713  -0.49423  -0.49260  -0.49079
 Alpha  occ. eigenvalues --   -0.48765  -0.48302  -0.47789  -0.47497  -0.47330
 Alpha  occ. eigenvalues --   -0.46804  -0.46272  -0.46124  -0.45689  -0.45100
 Alpha  occ. eigenvalues --   -0.44708  -0.44520  -0.44044  -0.43947  -0.43055
 Alpha  occ. eigenvalues --   -0.42458  -0.41752  -0.41720  -0.40900  -0.40730
 Alpha  occ. eigenvalues --   -0.38984  -0.37815  -0.37791  -0.37551  -0.36300
 Alpha  occ. eigenvalues --   -0.36020  -0.35475  -0.35337  -0.34860  -0.34574
 Alpha  occ. eigenvalues --   -0.34221  -0.33458  -0.33193  -0.32935  -0.32549
 Alpha  occ. eigenvalues --   -0.32098  -0.31186
 Alpha virt. eigenvalues --   -0.10035  -0.09210  -0.08951  -0.08781  -0.08112
 Alpha virt. eigenvalues --   -0.07660  -0.07474  -0.06637  -0.06234  -0.05299
 Alpha virt. eigenvalues --   -0.03647  -0.03516  -0.01775  -0.00396  -0.00080

 Mulliken charges:
               1
     1  N   -0.751670
     2  H    0.417521
     3  H    0.402118
     4  H    0.412253
     5  C   -0.146649
     6  H    0.269590
     7  C    0.651368
     8  C   -0.376654
     9  H    0.168509
    10  H    0.227232
    11  O   -0.586523
    12  C    0.088291
    13  C   -0.186652
    14  H    0.186130
    15  C   -0.211366
    16  H    0.143109
    17  C   -0.134439
    18  H    0.152778
    19  C   -0.124106
    20  H    0.154671
    21  C   -0.126115
    22  H    0.154545
    23  N   -0.678895
    24  H    0.428572
    25  C   -0.053902
    26  H    0.206298
    27  C    0.574676
    28  C   -0.017780
    29  H    0.167883
    30  H    0.117482
    31  O   -0.506062
    32  O   -0.625590
    33  H    0.427770
    34  N   -0.615167
    35  H    0.344290
    36  C   -0.044931
    37  H    0.185266
    38  C    0.566809
    39  C   -0.056640
    40  H    0.182409
    41  H    0.181789
    42  O   -0.550445
    43  O   -0.646668
    44  H    0.429836
    45  N   -0.600225
    46  H    0.385035
    47  C   -0.066876
    48  H    0.173056
    49  C    0.654918
    50  C   -0.362191
    51  H    0.178210
    52  H    0.166578
    53  O   -0.559304
    54  C    0.596253
    55  O   -0.552930
    56  O   -0.620756
    57  N   -0.627638
    58  H    0.365584
    59  C   -0.016661
    60  H    0.203221
    61  C    0.585163
    62  C   -0.293110
    63  H    0.186469
    64  H    0.179525
    65  O   -0.458375
    66  C   -0.290414
    67  H    0.154578
    68  H    0.182761
    69  C   -0.173642
    70  H    0.185281
    71  H    0.195087
    72  N   -0.596857
    73  H    0.351954
    74  N   -0.783597
    75  H    0.371726
    76  H    0.425000
    77  N   -0.793630
    78  H    0.360099
    79  H    0.419607
    80  C    0.804089
    81  O   -0.560004
    82  H    0.431076
 Sum of Mulliken charges =   1.00000

 Dipole moment (field-independent basis, Debye):
    X=              3.9792    Y=              0.7806    Z=              2.6577  Tot=              4.8484
 Quadrupole moment (field-independent basis, Debye-Ang):
   XX=           -134.2360   YY=           -217.6062   ZZ=           -156.5923
   XY=            -22.3298   XZ=            101.5448   YZ=            -13.2489

 Normal termination of Gaussian 16 at Mon May 16 19:20:00 2022.
