 Gaussian 16, Revision C.01,
 Gaussian 16:  ES64L-G16RevC.01  3-Jul-2019

 ----------------------------------------------------------------------
 # B3LYP/6-31G* empiricaldispersion=gd3 guess=read geom=check nosymm in
 tegral(ultrafinegrid)
 ----------------------------------------------------------------------

 ------------------------------------------------------
 Candidate Structure: Conf:817 Charge calc in gas phase
 ------------------------------------------------------
 Structure from the checkpoint file:  "conf-817.chk"
 Charge =  1 Multiplicity = 1

                          Input orientation:
 ---------------------------------------------------------------------
 Center     Atomic      Atomic             Coordinates (Angstroms)
 Number     Number       Type             X           Y           Z
 ---------------------------------------------------------------------
      1          7           0       -4.605250   -0.326190   -3.653871
      2          1           0       -5.538555    0.054558   -3.828051
      3          1           0       -4.599822   -1.354795   -3.604589
      4          1           0       -4.255502    0.004814   -2.719614
      5          6           0       -3.623848    0.090758   -4.726205
      6          1           0       -4.094793   -0.152268   -5.684329
      7          6           0       -2.393245   -0.822762   -4.469983
      8          6           0       -3.346821    1.606109   -4.612981
      9          1           0       -2.633666    1.780130   -3.800612
     10          1           0       -2.859837    1.924538   -5.541742
     11          8           0       -2.564049   -1.835620   -3.789153
     12          6           0       -4.621464    2.392561   -4.392944
     13          6           0       -5.512355    2.631161   -5.449244
     14          1           0       -5.253085    2.310610   -6.456459
     15          6           0       -4.963595    2.824405   -3.103577
     16          1           0       -4.275101    2.644409   -2.280880
     17          6           0       -6.718304    3.295868   -5.222531
     18          1           0       -7.394834    3.484786   -6.050999
     19          6           0       -6.170193    3.490055   -2.876290
     20          1           0       -6.419106    3.828728   -1.874668
     21          6           0       -7.049639    3.725531   -3.934711
     22          1           0       -7.986339    4.246362   -3.759476
     23          7           0       -1.203103   -0.402864   -4.949471
     24          1           0       -1.193934    0.546414   -5.311958
     25          6           0        0.045220   -0.659080   -4.155338
     26          1           0        0.027147   -1.684884   -3.789730
     27          6           0       -0.106550    0.369359   -3.020976
     28          6           0        1.258565   -0.438857   -5.057049
     29          1           0        2.146765   -0.621248   -4.452808
     30          1           0        1.273658    0.611174   -5.394511
     31          8           0       -0.192298    1.568282   -3.296855
     32          8           0        1.272673   -1.353697   -6.139271
     33          1           0        0.448850   -1.238145   -6.638707
     34          7           0       -0.394040   -0.159144   -1.796735
     35          1           0        0.059137   -1.085076   -1.582106
     36          6           0       -0.778796    0.731591   -0.705610
     37          1           0       -0.645174    1.754643   -1.074016
     38          6           0        0.119591    0.497008    0.519863
     39          6           0       -2.274378    0.488969   -0.350439
     40          1           0       -2.745759    1.401973    0.018089
     41          1           0       -2.358746   -0.281044    0.422126
     42          8           0       -0.357996    0.308427    1.644519
     43          8           0       -2.990122    0.078188   -1.528325
     44          1           0       -2.420165   -0.614767   -1.921254
     45          7           0        1.453081    0.436964    0.270893
     46          1           0        1.743591    0.565892   -0.699976
     47          6           0        2.249160   -0.605300    0.967542
     48          1           0        1.525480   -1.322137    1.370866
     49          6           0        2.995772    0.014270    2.149202
     50          6           0        3.140425   -1.337522   -0.049769
     51          1           0        4.039594   -0.756935   -0.264980
     52          1           0        3.426522   -2.305873    0.370080
     53          8           0        4.219712    0.065502    2.260576
     54          6           0        2.264320   -1.484531   -1.318682
     55          8           0        2.505243   -0.666220   -2.243682
     56          8           0        1.252563   -2.241600   -1.218502
     57          7           0        2.172619    0.525751    3.111645
     58          1           0        1.169533    0.560563    2.924820
     59          6           0        2.762396    1.181823    4.259297
     60          1           0        1.973532    1.774499    4.741499
     61          6           0        3.814554    2.205771    3.808970
     62          6           0        3.304305    0.135506    5.256937
     63          1           0        4.020740   -0.481546    4.705189
     64          1           0        2.459722   -0.514027    5.502614
     65          8           0        4.862467    2.462338    4.387162
     66          6           0        3.947772    0.689428    6.549707
     67          1           0        3.454063    0.275867    7.436720
     68          1           0        3.832553    1.776670    6.609063
     69          6           0        5.441023    0.336897    6.594847
     70          1           0        5.580517   -0.738929    6.733276
     71          1           0        5.922607    0.601539    5.651407
     72          7           0        6.173634    1.002553    7.685767
     73          1           0        6.099706    0.598114    8.610424
     74          7           0        6.581600    2.972976    6.517444
     75          1           0        7.189657    3.765259    6.366760
     76          1           0        5.923382    2.739608    5.763731
     77          7           0        7.458697    2.671311    8.645170
     78          1           0        7.846853    2.034150    9.325576
     79          1           0        7.792018    3.623909    8.667549
     80          6           0        6.732640    2.214303    7.601282
     81          8           0        3.407479    2.905434    2.749407
     82          1           0        4.124224    3.521529    2.507253
 ---------------------------------------------------------------------

 SCF Done:  E(RB3LYP) =  -2166.35465817     A.U. after    1 cycles

 Alpha  occ. eigenvalues --  -19.28712 -19.24280 -19.24147 -19.22818 -19.19013
 Alpha  occ. eigenvalues --  -19.18290 -19.18253 -19.17810 -19.11150 -19.11075
 Alpha  occ. eigenvalues --  -14.55069 -14.51678 -14.51546 -14.50315 -14.45347
 Alpha  occ. eigenvalues --  -14.42067 -14.40815 -14.40585 -10.47719 -10.42329
 Alpha  occ. eigenvalues --  -10.39857 -10.36940 -10.35350 -10.34687 -10.34663
 Alpha  occ. eigenvalues --  -10.34308 -10.32964 -10.30780 -10.30037 -10.29538
 Alpha  occ. eigenvalues --  -10.29295 -10.29258 -10.29117 -10.28785 -10.28396
 Alpha  occ. eigenvalues --  -10.27948 -10.27811 -10.27799 -10.27623 -10.27593
 Alpha  occ. eigenvalues --  -10.27385 -10.26656 -10.21197  -1.20412  -1.16107
 Alpha  occ. eigenvalues --   -1.15210  -1.11233  -1.11201  -1.10448  -1.09911
 Alpha  occ. eigenvalues --   -1.09664  -1.09141  -1.05741  -1.05431  -1.04592
 Alpha  occ. eigenvalues --   -1.04009  -1.01555  -0.99432  -0.98394  -0.96820
 Alpha  occ. eigenvalues --   -0.95344  -0.94688  -0.90074  -0.89556  -0.85362
 Alpha  occ. eigenvalues --   -0.84330  -0.83143  -0.82871  -0.81187  -0.80020
 Alpha  occ. eigenvalues --   -0.79521  -0.77202  -0.76107  -0.73707  -0.72944
 Alpha  occ. eigenvalues --   -0.72599  -0.71043  -0.70214  -0.69839  -0.69372
 Alpha  occ. eigenvalues --   -0.69030  -0.68194  -0.67673  -0.67339  -0.66413
 Alpha  occ. eigenvalues --   -0.65334  -0.64509  -0.64472  -0.63856  -0.63157
 Alpha  occ. eigenvalues --   -0.61800  -0.60207  -0.60174  -0.59901  -0.59750
 Alpha  occ. eigenvalues --   -0.59000  -0.58652  -0.58519  -0.57344  -0.56846
 Alpha  occ. eigenvalues --   -0.55509  -0.55430  -0.55071  -0.54678  -0.54433
 Alpha  occ. eigenvalues --   -0.54112  -0.53902  -0.53790  -0.53227  -0.52655
 Alpha  occ. eigenvalues --   -0.52491  -0.51273  -0.50698  -0.50583  -0.50423
 Alpha  occ. eigenvalues --   -0.50244  -0.49760  -0.49511  -0.48968  -0.48811
 Alpha  occ. eigenvalues --   -0.48624  -0.48186  -0.48002  -0.46692  -0.46516
 Alpha  occ. eigenvalues --   -0.46043  -0.45342  -0.44899  -0.44728  -0.44606
 Alpha  occ. eigenvalues --   -0.44432  -0.44343  -0.43803  -0.43452  -0.43266
 Alpha  occ. eigenvalues --   -0.43019  -0.42690  -0.42653  -0.42329  -0.42188
 Alpha  occ. eigenvalues --   -0.41522  -0.41265  -0.39831  -0.38875  -0.38138
 Alpha  occ. eigenvalues --   -0.38088  -0.37277  -0.36775  -0.36300  -0.35777
 Alpha  occ. eigenvalues --   -0.33861  -0.33830  -0.33459  -0.33370  -0.32268
 Alpha  occ. eigenvalues --   -0.32232  -0.31258  -0.30308  -0.29946  -0.27277
 Alpha  occ. eigenvalues --   -0.25724  -0.24878
 Alpha virt. eigenvalues --   -0.11672  -0.10520  -0.09095  -0.08950  -0.08828
 Alpha virt. eigenvalues --   -0.07871  -0.05562  -0.04496  -0.04303  -0.04255
 Alpha virt. eigenvalues --   -0.03885  -0.03116  -0.00660  -0.00621  -0.00238

 Mulliken charges:
               1
     1  N   -0.759096
     2  H    0.404150
     3  H    0.414364
     4  H    0.451064
     5  C   -0.111460
     6  H    0.215419
     7  C    0.632271
     8  C   -0.410595
     9  H    0.228150
    10  H    0.185324
    11  O   -0.519330
    12  C    0.123285
    13  C   -0.190995
    14  H    0.140095
    15  C   -0.207241
    16  H    0.156541
    17  C   -0.126808
    18  H    0.157847
    19  C   -0.127384
    20  H    0.154667
    21  C   -0.126640
    22  H    0.157656
    23  N   -0.605802
    24  H    0.353289
    25  C   -0.090444
    26  H    0.220549
    27  C    0.625124
    28  C   -0.057274
    29  H    0.232458
    30  H    0.124496
    31  O   -0.553590
    32  O   -0.608224
    33  H    0.386328
    34  N   -0.682735
    35  H    0.415107
    36  C   -0.079732
    37  H    0.202747
    38  C    0.600025
    39  C   -0.041121
    40  H    0.160733
    41  H    0.180070
    42  O   -0.544363
    43  O   -0.696545
    44  H    0.444022
    45  N   -0.601951
    46  H    0.371764
    47  C   -0.092274
    48  H    0.192441
    49  C    0.643939
    50  C   -0.327163
    51  H    0.166290
    52  H    0.156452
    53  O   -0.541488
    54  C    0.536755
    55  O   -0.574424
    56  O   -0.598354
    57  N   -0.613675
    58  H    0.377312
    59  C   -0.043144
    60  H    0.181852
    61  C    0.633093
    62  C   -0.277348
    63  H    0.193440
    64  H    0.169405
    65  O   -0.532811
    66  C   -0.266555
    67  H    0.154726
    68  H    0.148753
    69  C   -0.190806
    70  H    0.192971
    71  H    0.214583
    72  N   -0.595400
    73  H    0.360894
    74  N   -0.793227
    75  H    0.369725
    76  H    0.458690
    77  N   -0.768339
    78  H    0.379918
    79  H    0.379316
    80  C    0.814642
    81  O   -0.530782
    82  H    0.424382
 Sum of Mulliken charges =   1.00000

 Dipole moment (field-independent basis, Debye):
    X=              5.4450    Y=             13.9872    Z=             21.0368  Tot=             25.8425
 Quadrupole moment (field-independent basis, Debye-Ang):
   XX=            -12.5385   YY=           -221.6529   ZZ=             39.3486
   XY=             54.8066   XZ=            272.6565   YZ=             45.6662

 Normal termination of Gaussian 16 at Mon May 16 19:20:01 2022.
