 Gaussian 16, Revision C.01,
 Gaussian 16:  ES64L-G16RevC.01  3-Jul-2019

 ----------------------------------------------------------------------
 # B3LYP/6-31G* empiricaldispersion=gd3 guess=read geom=check nosymm in
 tegral(ultrafinegrid)
 ----------------------------------------------------------------------

 ------------------------------------------------------
 Candidate Structure: Conf:242 Charge calc in gas phase
 ------------------------------------------------------
 Structure from the checkpoint file:  "conf-242.chk"
 Charge =  1 Multiplicity = 1

                          Input orientation:
 ---------------------------------------------------------------------
 Center     Atomic      Atomic             Coordinates (Angstroms)
 Number     Number       Type             X           Y           Z
 ---------------------------------------------------------------------
      1          7           0       -3.537911   -3.167788   -3.865151
      2          1           0       -3.495497   -3.063029   -4.882641
      3          1           0       -2.534726   -3.252431   -3.492455
      4          1           0       -4.105283   -3.988218   -3.638245
      5          6           0       -3.988987   -1.904909   -3.158821
      6          1           0       -4.518924   -1.270851   -3.872432
      7          6           0       -2.625974   -1.293593   -2.724161
      8          6           0       -4.906100   -2.254549   -1.963689
      9          1           0       -5.711376   -2.905857   -2.328973
     10          1           0       -4.322811   -2.823407   -1.229190
     11          8           0       -1.646698   -2.060095   -2.739821
     12          6           0       -5.499637   -1.007039   -1.343858
     13          6           0       -4.841691   -0.344931   -0.300603
     14          1           0       -3.917231   -0.743848    0.106027
     15          6           0       -6.672314   -0.451524   -1.875746
     16          1           0       -7.194158   -0.959873   -2.684318
     17          6           0       -5.333071    0.864858    0.191304
     18          1           0       -4.775166    1.381784    0.963895
     19          6           0       -7.178310    0.744747   -1.369063
     20          1           0       -8.091709    1.162479   -1.781962
     21          6           0       -6.505359    1.406778   -0.337801
     22          1           0       -6.893260    2.345557    0.046689
     23          7           0       -2.604680   -0.015592   -2.375518
     24          1           0       -3.481301    0.482424   -2.277964
     25          6           0       -1.386040    0.678135   -1.937215
     26          1           0       -0.544381    0.232580   -2.469594
     27          6           0       -1.201028    0.513489   -0.424620
     28          6           0       -1.475695    2.179683   -2.335669
     29          1           0       -0.997632    2.764761   -1.540314
     30          1           0       -2.529308    2.488691   -2.376902
     31          8           0       -2.007259    0.964072    0.393200
     32          8           0       -0.914546    2.419704   -3.590796
     33          1           0        0.052108    2.380182   -3.420725
     34          7           0       -0.067046   -0.146879   -0.088988
     35          1           0        0.606925   -0.363397   -0.852634
     36          6           0        0.410906   -0.167607    1.284650
     37          1           0       -0.015248    0.705903    1.794749
     38          6           0        1.945086   -0.057330    1.264895
     39          6           0       -0.043775   -1.437944    2.022417
     40          1           0        0.196767   -2.318729    1.415859
     41          1           0       -1.124257   -1.399333    2.176212
     42          8           0        2.671151   -0.903358    1.816445
     43          8           0        0.577711   -1.549667    3.316117
     44          1           0        1.526064   -1.645444    3.069016
     45          7           0        2.431446    0.985310    0.570217
     46          1           0        1.761725    1.599412    0.112853
     47          6           0        3.731831    0.875701   -0.120982
     48          1           0        3.946835   -0.193757   -0.188051
     49          6           0        4.773639    1.593465    0.735550
     50          6           0        3.579008    1.448175   -1.545715
     51          1           0        3.700177    2.533646   -1.542253
     52          1           0        4.338377    0.993959   -2.189176
     53          8           0        4.576595    2.729813    1.153660
     54          6           0        2.140955    1.082333   -2.007533
     55          8           0        1.353247    2.056806   -2.137607
     56          8           0        1.842659   -0.145130   -2.024677
     57          7           0        5.879755    0.862068    1.066461
     58          1           0        5.990460   -0.076687    0.708795
     59          6           0        6.792897    1.317531    2.098134
     60          1           0        6.728463    2.409755    2.103136
     61          6           0        8.247470    0.957983    1.835775
     62          6           0        6.397032    0.799056    3.512076
     63          1           0        6.978082    1.364563    4.248538
     64          1           0        6.693692   -0.254025    3.613812
     65          8           0        9.147076    1.285420    2.573534
     66          6           0        4.888077    0.921723    3.740972
     67          1           0        4.367219    0.267855    3.035168
     68          1           0        4.563936    1.940954    3.508887
     69          6           0        4.429135    0.520727    5.142861
     70          1           0        4.870818   -0.433534    5.441983
     71          1           0        4.721487    1.246955    5.911352
     72          7           0        2.964475    0.313263    5.191479
     73          1           0        2.638719   -0.644111    5.217850
     74          7           0        2.325183    2.547586    5.012928
     75          1           0        1.804170    3.218858    4.466393
     76          1           0        3.241597    2.842359    5.315613
     77          7           0        0.804425    0.851655    4.563856
     78          1           0        0.622848   -0.105063    4.196583
     79          1           0        0.049068    1.523281    4.565641
     80          6           0        2.038363    1.235060    4.903795
     81          8           0        8.419839    0.203986    0.726888
     82          1           0        9.376379    0.019470    0.658772
 ---------------------------------------------------------------------

 SCF Done:  E(RB3LYP) =  -2166.36175567     A.U. after    1 cycles

 Alpha  occ. eigenvalues --  -19.27413 -19.25325 -19.25083 -19.21945 -19.21183
 Alpha  occ. eigenvalues --  -19.19135 -19.18506 -19.17240 -19.14172 -19.13908
 Alpha  occ. eigenvalues --  -14.58560 -14.50402 -14.50330 -14.48491 -14.47829
 Alpha  occ. eigenvalues --  -14.44064 -14.43756 -14.42580 -10.46297 -10.41653
 Alpha  occ. eigenvalues --  -10.39628 -10.39506 -10.38166 -10.35977 -10.35858
 Alpha  occ. eigenvalues --  -10.34501 -10.33178 -10.32568 -10.32302 -10.31999
 Alpha  occ. eigenvalues --  -10.31796 -10.30551 -10.29958 -10.29838 -10.28807
 Alpha  occ. eigenvalues --  -10.28592 -10.28034 -10.28018 -10.27959 -10.27781
 Alpha  occ. eigenvalues --  -10.27739 -10.27552 -10.23950  -1.18106  -1.17721
 Alpha  occ. eigenvalues --   -1.14833  -1.13823  -1.12289  -1.11539  -1.10767
 Alpha  occ. eigenvalues --   -1.10606  -1.09086  -1.07566  -1.05774  -1.04230
 Alpha  occ. eigenvalues --   -1.03982  -1.02519  -1.01429  -1.00304  -0.99325
 Alpha  occ. eigenvalues --   -0.98330  -0.95738  -0.91547  -0.89549  -0.86443
 Alpha  occ. eigenvalues --   -0.85363  -0.84458  -0.83531  -0.82985  -0.81632
 Alpha  occ. eigenvalues --   -0.79378  -0.78323  -0.76175  -0.74733  -0.72662
 Alpha  occ. eigenvalues --   -0.72281  -0.72075  -0.71963  -0.70888  -0.70422
 Alpha  occ. eigenvalues --   -0.70383  -0.69626  -0.68075  -0.67829  -0.67457
 Alpha  occ. eigenvalues --   -0.67323  -0.65939  -0.65628  -0.64411  -0.63781
 Alpha  occ. eigenvalues --   -0.62871  -0.61953  -0.61256  -0.60620  -0.60179
 Alpha  occ. eigenvalues --   -0.60110  -0.59283  -0.57877  -0.57796  -0.57319
 Alpha  occ. eigenvalues --   -0.57121  -0.56586  -0.56186  -0.55675  -0.55510
 Alpha  occ. eigenvalues --   -0.54947  -0.54775  -0.54425  -0.54102  -0.53762
 Alpha  occ. eigenvalues --   -0.53183  -0.52287  -0.52027  -0.51648  -0.51022
 Alpha  occ. eigenvalues --   -0.50782  -0.50669  -0.50544  -0.50292  -0.49445
 Alpha  occ. eigenvalues --   -0.49293  -0.48933  -0.48549  -0.48312  -0.48056
 Alpha  occ. eigenvalues --   -0.47634  -0.46794  -0.46543  -0.46495  -0.46136
 Alpha  occ. eigenvalues --   -0.45748  -0.45180  -0.44897  -0.44561  -0.44319
 Alpha  occ. eigenvalues --   -0.44163  -0.43827  -0.43544  -0.43106  -0.42839
 Alpha  occ. eigenvalues --   -0.41611  -0.41060  -0.40783  -0.39804  -0.39264
 Alpha  occ. eigenvalues --   -0.38904  -0.38610  -0.37969  -0.37273  -0.35832
 Alpha  occ. eigenvalues --   -0.35561  -0.34971  -0.34287  -0.34036  -0.32977
 Alpha  occ. eigenvalues --   -0.32809  -0.32672  -0.31859  -0.30359  -0.30073
 Alpha  occ. eigenvalues --   -0.28480  -0.27887
 Alpha virt. eigenvalues --   -0.11029  -0.10885  -0.10265  -0.09712  -0.09229
 Alpha virt. eigenvalues --   -0.08305  -0.06618  -0.06455  -0.05652  -0.05421
 Alpha virt. eigenvalues --   -0.04878  -0.03594  -0.03001  -0.01689  -0.00701

 Mulliken charges:
               1
     1  N   -0.759117
     2  H    0.416726
     3  H    0.434622
     4  H    0.407572
     5  C   -0.108484
     6  H    0.217685
     7  C    0.654422
     8  C   -0.378607
     9  H    0.173990
    10  H    0.187295
    11  O   -0.537938
    12  C    0.136436
    13  C   -0.195736
    14  H    0.154131
    15  C   -0.182128
    16  H    0.131940
    17  C   -0.123168
    18  H    0.170208
    19  C   -0.125514
    20  H    0.157512
    21  C   -0.126965
    22  H    0.157830
    23  N   -0.578600
    24  H    0.364358
    25  C   -0.095339
    26  H    0.226992
    27  C    0.600684
    28  C   -0.022123
    29  H    0.156756
    30  H    0.125410
    31  O   -0.559892
    32  O   -0.639859
    33  H    0.432270
    34  N   -0.640710
    35  H    0.421643
    36  C   -0.061576
    37  H    0.166579
    38  C    0.601996
    39  C   -0.052589
    40  H    0.170350
    41  H    0.171939
    42  O   -0.576192
    43  O   -0.658378
    44  H    0.428833
    45  N   -0.575183
    46  H    0.361698
    47  C   -0.068546
    48  H    0.176370
    49  C    0.640474
    50  C   -0.346891
    51  H    0.179377
    52  H    0.165918
    53  O   -0.533251
    54  C    0.546336
    55  O   -0.587940
    56  O   -0.590328
    57  N   -0.603462
    58  H    0.345972
    59  C   -0.059418
    60  H    0.220250
    61  C    0.593406
    62  C   -0.273943
    63  H    0.176905
    64  H    0.148930
    65  O   -0.450104
    66  C   -0.313093
    67  H    0.198370
    68  H    0.169010
    69  C   -0.178128
    70  H    0.188113
    71  H    0.176498
    72  N   -0.587143
    73  H    0.369428
    74  N   -0.742024
    75  H    0.381465
    76  H    0.382070
    77  N   -0.798128
    78  H    0.424679
    79  H    0.366218
    80  C    0.795316
    81  O   -0.569719
    82  H    0.425237
 Sum of Mulliken charges =   1.00000

 Dipole moment (field-independent basis, Debye):
    X=             -7.1500    Y=             -8.2161    Z=              5.2070  Tot=             12.0723
 Quadrupole moment (field-independent basis, Debye-Ang):
   XX=           -131.3920   YY=           -214.0327   ZZ=           -144.7877
   XY=             27.4674   XZ=             85.2870   YZ=             65.1322

 Normal termination of Gaussian 16 at Mon May 16 19:16:13 2022.
