 Gaussian 16, Revision C.01,
 Gaussian 16:  ES64L-G16RevC.01  3-Jul-2019

 ----------------------------------------------------------------------
 # B3LYP/6-31G* empiricaldispersion=gd3 guess=read geom=check nosymm in
 tegral(ultrafinegrid)
 ----------------------------------------------------------------------

 ------------------------------------------------------
 Candidate Structure: Conf:962 Charge calc in gas phase
 ------------------------------------------------------
 Structure from the checkpoint file:  "conf-962.chk"
 Charge =  1 Multiplicity = 1

                          Input orientation:
 ---------------------------------------------------------------------
 Center     Atomic      Atomic             Coordinates (Angstroms)
 Number     Number       Type             X           Y           Z
 ---------------------------------------------------------------------
      1          7           0       -6.139978   -3.187335   -4.513632
      2          1           0       -6.181736   -2.850295   -5.479575
      3          1           0       -5.517729   -4.031902   -4.491846
      4          1           0       -7.098860   -3.393180   -4.190252
      5          6           0       -5.452482   -2.215153   -3.582049
      6          1           0       -5.561122   -1.211884   -3.999196
      7          6           0       -3.984486   -2.694897   -3.556721
      8          6           0       -6.100786   -2.294509   -2.178135
      9          1           0       -5.844472   -3.261424   -1.728857
     10          1           0       -5.625556   -1.521610   -1.565394
     11          8           0       -3.763087   -3.859912   -3.938393
     12          6           0       -7.600329   -2.110232   -2.247956
     13          6           0       -8.155036   -0.834477   -2.425528
     14          1           0       -7.507586    0.039875   -2.434877
     15          6           0       -8.451650   -3.227007   -2.222387
     16          1           0       -8.039257   -4.218101   -2.037490
     17          6           0       -9.532938   -0.678271   -2.568147
     18          1           0       -9.952882    0.315674   -2.690419
     19          6           0       -9.833879   -3.069430   -2.371762
     20          1           0      -10.483063   -3.939131   -2.335175
     21          6           0      -10.374019   -1.795693   -2.546783
     22          1           0      -11.446922   -1.669945   -2.655564
     23          7           0       -3.112039   -1.828100   -3.074632
     24          1           0       -3.370132   -0.857940   -2.847109
     25          6           0       -1.683440   -2.034877   -2.820334
     26          1           0       -1.555292   -2.789180   -2.034501
     27          6           0       -1.219183   -0.653335   -2.288372
     28          6           0       -0.893417   -2.529697   -4.060561
     29          1           0        0.161366   -2.269186   -3.935250
     30          1           0       -1.261947   -1.982124   -4.944372
     31          8           0       -2.017937    0.292256   -2.261845
     32          8           0       -0.937400   -3.925300   -4.212149
     33          1           0       -1.871892   -4.188446   -4.288464
     34          7           0        0.048764   -0.585458   -1.877614
     35          1           0        0.687745   -1.378354   -1.920716
     36          6           0        0.672021    0.627816   -1.373791
     37          1           0        0.388957    1.478216   -2.002195
     38          6           0        2.182736    0.378995   -1.415069
     39          6           0        0.220004    0.931643    0.087445
     40          1           0        0.451407    0.055159    0.708373
     41          1           0       -0.865250    1.071992    0.068161
     42          8           0        2.630318   -0.758767   -1.552468
     43          8           0        0.816210    2.106642    0.586315
     44          1           0        1.643830    1.833867    1.041771
     45          7           0        2.946842    1.489964   -1.244294
     46          1           0        2.435155    2.300981   -0.906854
     47          6           0        4.302290    1.348320   -0.737187
     48          1           0        4.816124    0.580252   -1.318711
     49          6           0        4.251818    0.927238    0.755314
     50          6           0        5.071410    2.680792   -0.876431
     51          1           0        4.952333    3.034060   -1.908128
     52          1           0        4.643033    3.448689   -0.222119
     53          8           0        3.231167    1.007336    1.437851
     54          6           0        6.587400    2.559736   -0.598942
     55          8           0        7.159006    1.475398   -0.839922
     56          8           0        7.154322    3.600124   -0.106735
     57          7           0        5.462149    0.552645    1.248344
     58          1           0        6.217704    0.587700    0.559803
     59          6           0        5.888300    0.781589    2.641083
     60          1           0        5.149926    0.353014    3.321506
     61          6           0        5.827524    2.316988    2.795608
     62          6           0        7.279768    0.131004    2.768856
     63          1           0        7.790690    0.304729    1.815274
     64          1           0        7.134850   -0.951751    2.840699
     65          8           0        4.832325    2.910895    3.117138
     66          6           0        8.204262    0.632268    3.902163
     67          1           0        8.290171   -0.109112    4.702989
     68          1           0        7.811072    1.541623    4.371230
     69          6           0        9.621454    0.928716    3.372974
     70          1           0       10.277871    1.235702    4.196398
     71          1           0       10.043905    0.024281    2.918668
     72          7           0        9.552254    1.990345    2.359250
     73          1           0        8.682701    2.531281    2.381748
     74          7           0       11.348318    1.288298    1.062203
     75          1           0       11.872588    1.342406    0.201309
     76          1           0       11.879219    1.038614    1.883855
     77          7           0        9.788961    2.810002    0.213074
     78          1           0        8.776485    3.100673    0.122322
     79          1           0       10.319208    2.842553   -0.646417
     80          6           0       10.220814    2.033527    1.203163
     81          8           0        6.969470    2.946291    2.374136
     82          1           0        6.818383    3.542105    1.580761
 ---------------------------------------------------------------------

 SCF Done:  E(RB3LYP) =  -2166.37842354     A.U. after    2 cycles

 Alpha  occ. eigenvalues --  -19.27127 -19.23015 -19.21663 -19.21617 -19.19469
 Alpha  occ. eigenvalues --  -19.18930 -19.18607 -19.18533 -19.15716 -19.14730
 Alpha  occ. eigenvalues --  -14.60037 -14.49374 -14.46529 -14.44885 -14.44502
 Alpha  occ. eigenvalues --  -14.43383 -14.41694 -14.41289 -10.43832 -10.41518
 Alpha  occ. eigenvalues --  -10.40940 -10.38703 -10.37177 -10.35238 -10.34734
 Alpha  occ. eigenvalues --  -10.34216 -10.34061 -10.33335 -10.32654 -10.32404
 Alpha  occ. eigenvalues --  -10.31207 -10.31168 -10.30760 -10.30491 -10.30348
 Alpha  occ. eigenvalues --  -10.30088 -10.30033 -10.29947 -10.29223 -10.28797
 Alpha  occ. eigenvalues --  -10.26821 -10.26004 -10.24339  -1.19255  -1.14432
 Alpha  occ. eigenvalues --   -1.14258  -1.13538  -1.10749  -1.10077  -1.09642
 Alpha  occ. eigenvalues --   -1.09580  -1.08506  -1.06599  -1.06376  -1.05955
 Alpha  occ. eigenvalues --   -1.01393  -0.99839  -0.99645  -0.98705  -0.98390
 Alpha  occ. eigenvalues --   -0.97885  -0.97754  -0.93461  -0.88377  -0.87243
 Alpha  occ. eigenvalues --   -0.86146  -0.85848  -0.84049  -0.81857  -0.80457
 Alpha  occ. eigenvalues --   -0.79568  -0.75887  -0.75102  -0.74222  -0.73599
 Alpha  occ. eigenvalues --   -0.72731  -0.72311  -0.71909  -0.71513  -0.70350
 Alpha  occ. eigenvalues --   -0.69582  -0.69262  -0.67527  -0.66763  -0.66306
 Alpha  occ. eigenvalues --   -0.65831  -0.64547  -0.63913  -0.63520  -0.63022
 Alpha  occ. eigenvalues --   -0.62875  -0.61246  -0.60517  -0.59443  -0.59229
 Alpha  occ. eigenvalues --   -0.58525  -0.58114  -0.57666  -0.57575  -0.57141
 Alpha  occ. eigenvalues --   -0.56673  -0.56575  -0.55288  -0.55067  -0.54680
 Alpha  occ. eigenvalues --   -0.54385  -0.54169  -0.53701  -0.53593  -0.53386
 Alpha  occ. eigenvalues --   -0.52809  -0.52703  -0.52529  -0.51900  -0.51335
 Alpha  occ. eigenvalues --   -0.51173  -0.50851  -0.50253  -0.49934  -0.49324
 Alpha  occ. eigenvalues --   -0.49128  -0.49000  -0.48471  -0.47913  -0.47651
 Alpha  occ. eigenvalues --   -0.47579  -0.47334  -0.46997  -0.46058  -0.45990
 Alpha  occ. eigenvalues --   -0.45710  -0.45618  -0.45258  -0.44850  -0.43356
 Alpha  occ. eigenvalues --   -0.43004  -0.42793  -0.42444  -0.41359  -0.41043
 Alpha  occ. eigenvalues --   -0.40951  -0.40699  -0.40209  -0.38638  -0.38221
 Alpha  occ. eigenvalues --   -0.37376  -0.37056  -0.36879  -0.36604  -0.36383
 Alpha  occ. eigenvalues --   -0.36033  -0.34434  -0.34384  -0.33898  -0.33303
 Alpha  occ. eigenvalues --   -0.32768  -0.32004  -0.31359  -0.30844  -0.30130
 Alpha  occ. eigenvalues --   -0.29688  -0.28789
 Alpha virt. eigenvalues --   -0.13450  -0.12588  -0.11236  -0.10081  -0.07290
 Alpha virt. eigenvalues --   -0.06949  -0.06003  -0.04954  -0.04548  -0.03459
 Alpha virt. eigenvalues --   -0.02759  -0.02493  -0.01988  -0.01581  -0.01149

 Mulliken charges:
               1
     1  N   -0.747567
     2  H    0.417787
     3  H    0.427678
     4  H    0.406484
     5  C   -0.117016
     6  H    0.217416
     7  C    0.667297
     8  C   -0.382599
     9  H    0.196009
    10  H    0.213378
    11  O   -0.568946
    12  C    0.137148
    13  C   -0.181488
    14  H    0.151198
    15  C   -0.233385
    16  H    0.152915
    17  C   -0.122151
    18  H    0.170351
    19  C   -0.119446
    20  H    0.169037
    21  C   -0.123720
    22  H    0.170992
    23  N   -0.624443
    24  H    0.378369
    25  C   -0.070986
    26  H    0.205794
    27  C    0.623758
    28  C   -0.030892
    29  H    0.180154
    30  H    0.135815
    31  O   -0.550098
    32  O   -0.621847
    33  H    0.423292
    34  N   -0.625130
    35  H    0.369288
    36  C   -0.069571
    37  H    0.188951
    38  C    0.608938
    39  C   -0.035546
    40  H    0.147582
    41  H    0.166055
    42  O   -0.535867
    43  O   -0.646884
    44  H    0.445766
    45  N   -0.600473
    46  H    0.345828
    47  C   -0.075382
    48  H    0.211384
    49  C    0.631956
    50  C   -0.374559
    51  H    0.188866
    52  H    0.168711
    53  O   -0.536648
    54  C    0.585717
    55  O   -0.565801
    56  O   -0.631180
    57  N   -0.641062
    58  H    0.388700
    59  C   -0.007191
    60  H    0.189462
    61  C    0.573685
    62  C   -0.307680
    63  H    0.165297
    64  H    0.173205
    65  O   -0.412104
    66  C   -0.306487
    67  H    0.169279
    68  H    0.176636
    69  C   -0.156654
    70  H    0.172901
    71  H    0.169816
    72  N   -0.617421
    73  H    0.418418
    74  N   -0.753483
    75  H    0.364171
    76  H    0.368376
    77  N   -0.772483
    78  H    0.430652
    79  H    0.347273
    80  C    0.763158
    81  O   -0.662050
    82  H    0.453297
 Sum of Mulliken charges =   1.00000

 Dipole moment (field-independent basis, Debye):
    X=             -7.4775    Y=             -9.4469    Z=            -11.8632  Tot=             16.9084
 Quadrupole moment (field-independent basis, Debye-Ang):
   XX=            201.6408   YY=           -238.4096   ZZ=           -175.6916
   XY=             87.8463   XZ=            146.7683   YZ=             23.8871

 Normal termination of Gaussian 16 at Mon May 16 19:20:09 2022.
