 Gaussian 16, Revision C.01,
 Gaussian 16:  ES64L-G16RevC.01  3-Jul-2019

 ----------------------------------------------------------------------
 # B3LYP/6-31G* empiricaldispersion=gd3 guess=read geom=check nosymm in
 tegral(ultrafinegrid)
 ----------------------------------------------------------------------

 ------------------------------------------------------
 Candidate Structure: Conf:156 Charge calc in gas phase
 ------------------------------------------------------
 Structure from the checkpoint file:  "conf-156.chk"
 Charge =  1 Multiplicity = 1

                          Input orientation:
 ---------------------------------------------------------------------
 Center     Atomic      Atomic             Coordinates (Angstroms)
 Number     Number       Type             X           Y           Z
 ---------------------------------------------------------------------
      1          7           0       -1.946243   -0.192121   -6.118496
      2          1           0       -1.166940   -0.810965   -5.804748
      3          1           0       -2.693337   -0.813924   -6.459816
      4          1           0       -1.641641    0.462497   -6.843499
      5          6           0       -2.470337    0.483264   -4.858875
      6          1           0       -1.606966    0.971006   -4.400327
      7          6           0       -2.903698   -0.758004   -4.047170
      8          6           0       -3.609159    1.467677   -5.128434
      9          1           0       -3.250600    2.295571   -5.754602
     10          1           0       -4.415177    0.956493   -5.668156
     11          8           0       -3.507381   -1.651880   -4.643740
     12          6           0       -4.098921    1.964752   -3.780693
     13          6           0       -5.268673    1.444257   -3.216158
     14          1           0       -5.877304    0.745598   -3.785053
     15          6           0       -3.309081    2.845138   -3.029608
     16          1           0       -2.389406    3.243875   -3.452074
     17          6           0       -5.645843    1.801513   -1.921401
     18          1           0       -6.556190    1.390778   -1.494670
     19          6           0       -3.681099    3.195920   -1.733028
     20          1           0       -3.054386    3.869503   -1.156154
     21          6           0       -4.850779    2.673797   -1.176463
     22          1           0       -5.138403    2.943409   -0.164431
     23          7           0       -2.456300   -0.796085   -2.782381
     24          1           0       -1.902704    0.007806   -2.445438
     25          6           0       -1.922587   -2.050936   -2.301199
     26          1           0       -2.636469   -2.848629   -2.528253
     27          6           0       -1.775971   -1.915958   -0.771736
     28          6           0       -0.542473   -2.348482   -3.049823
     29          1           0       -0.482763   -3.416828   -3.282721
     30          1           0        0.291119   -2.093277   -2.383568
     31          8           0       -2.405543   -1.094392   -0.134627
     32          8           0       -0.368956   -1.616848   -4.248831
     33          1           0        0.100713   -0.762780   -3.996253
     34          7           0       -0.853400   -2.758181   -0.157429
     35          1           0       -0.255116   -3.312743   -0.758237
     36          6           0       -0.241329   -2.344526    1.114214
     37          1           0       -0.944743   -1.647121    1.577013
     38          6           0        1.096978   -1.636749    0.821988
     39          6           0       -0.075727   -3.562268    2.027657
     40          1           0        0.413302   -3.257797    2.957959
     41          1           0        0.581296   -4.299559    1.528543
     42          8           0        2.193325   -2.118134    1.191844
     43          8           0       -1.318715   -4.121747    2.373360
     44          1           0       -1.821819   -4.227763    1.546637
     45          7           0        1.021236   -0.529725    0.084416
     46          1           0        0.116144   -0.130298   -0.209586
     47          6           0        2.193893    0.106046   -0.512278
     48          1           0        2.700144   -0.638778   -1.140389
     49          6           0        3.148804    0.600958    0.585712
     50          6           0        1.760895    1.304066   -1.392511
     51          1           0        1.434223    2.116260   -0.736635
     52          1           0        2.620362    1.627342   -1.984324
     53          8           0        2.727291    1.144821    1.600901
     54          6           0        0.589707    0.888420   -2.300485
     55          8           0        0.837115    0.558082   -3.493950
     56          8           0       -0.533864    0.842802   -1.717846
     57          7           0        4.464608    0.410301    0.311284
     58          1           0        4.743063    0.009241   -0.577608
     59          6           0        5.557263    0.960962    1.098907
     60          1           0        5.267732    1.945851    1.483235
     61          6           0        6.739856    1.142113    0.151320
     62          6           0        5.952369    0.040192    2.283417
     63          1           0        6.981505    0.254577    2.590073
     64          1           0        5.938593   -0.988018    1.900218
     65          8           0        6.795343    0.684840   -0.969909
     66          6           0        5.010065    0.191045    3.497565
     67          1           0        4.031478    0.560521    3.178372
     68          1           0        5.410605    0.943331    4.185491
     69          6           0        4.814835   -1.111434    4.271641
     70          1           0        5.785428   -1.576950    4.491236
     71          1           0        4.301927   -0.915898    5.222201
     72          7           0        4.013635   -2.046892    3.465406
     73          1           0        3.471018   -1.674194    2.682088
     74          7           0        4.385901   -3.897073    4.830295
     75          1           0        4.451395   -4.900788    4.918127
     76          1           0        4.898571   -3.344011    5.499849
     77          7           0        3.187613   -4.120761    2.852024
     78          1           0        2.699944   -3.641287    2.084700
     79          1           0        2.797961   -4.996687    3.173615
     80          6           0        3.858609   -3.342839    3.721480
     81          8           0        7.725891    1.849317    0.728984
     82          1           0        8.456572    1.916800    0.083944
 ---------------------------------------------------------------------

 SCF Done:  E(RB3LYP) =  -2166.39654324     A.U. after    1 cycles

 Alpha  occ. eigenvalues --  -19.29300 -19.23903 -19.23753 -19.22855 -19.22423
 Alpha  occ. eigenvalues --  -19.20677 -19.20466 -19.20390 -19.17846 -19.17634
 Alpha  occ. eigenvalues --  -14.55248 -14.51068 -14.49858 -14.48873 -14.45858
 Alpha  occ. eigenvalues --  -14.45750 -14.45241 -14.42013 -10.46478 -10.41868
 Alpha  occ. eigenvalues --  -10.39820 -10.37943 -10.37819 -10.37334 -10.35741
 Alpha  occ. eigenvalues --  -10.34893 -10.34635 -10.33707 -10.33020 -10.32990
 Alpha  occ. eigenvalues --  -10.32884 -10.32604 -10.31744 -10.29198 -10.29078
 Alpha  occ. eigenvalues --  -10.28779 -10.26803 -10.26594 -10.25248 -10.25118
 Alpha  occ. eigenvalues --  -10.24875 -10.24790 -10.24699  -1.20342  -1.15215
 Alpha  occ. eigenvalues --   -1.14608  -1.13462  -1.12823  -1.12455  -1.11473
 Alpha  occ. eigenvalues --   -1.11180  -1.10677  -1.09347  -1.08839  -1.04409
 Alpha  occ. eigenvalues --   -1.03250  -1.02872  -1.02093  -1.01971  -1.01181
 Alpha  occ. eigenvalues --   -1.00148  -0.92477  -0.90755  -0.88226  -0.87782
 Alpha  occ. eigenvalues --   -0.86183  -0.84742  -0.82663  -0.80455  -0.80162
 Alpha  occ. eigenvalues --   -0.79531  -0.77156  -0.75937  -0.74975  -0.74109
 Alpha  occ. eigenvalues --   -0.73150  -0.72662  -0.71426  -0.70521  -0.69626
 Alpha  occ. eigenvalues --   -0.68488  -0.68330  -0.68151  -0.67655  -0.67506
 Alpha  occ. eigenvalues --   -0.66708  -0.65661  -0.64511  -0.63945  -0.63602
 Alpha  occ. eigenvalues --   -0.62903  -0.61990  -0.60746  -0.60285  -0.59960
 Alpha  occ. eigenvalues --   -0.59392  -0.58936  -0.58781  -0.58534  -0.58000
 Alpha  occ. eigenvalues --   -0.57793  -0.57161  -0.56869  -0.56316  -0.56087
 Alpha  occ. eigenvalues --   -0.55880  -0.54963  -0.54400  -0.53884  -0.53432
 Alpha  occ. eigenvalues --   -0.53055  -0.52973  -0.52131  -0.51743  -0.51623
 Alpha  occ. eigenvalues --   -0.51140  -0.50863  -0.50589  -0.50454  -0.50238
 Alpha  occ. eigenvalues --   -0.49878  -0.49492  -0.48970  -0.48680  -0.48503
 Alpha  occ. eigenvalues --   -0.47967  -0.47709  -0.47242  -0.47099  -0.46965
 Alpha  occ. eigenvalues --   -0.46071  -0.45850  -0.45574  -0.45410  -0.44948
 Alpha  occ. eigenvalues --   -0.44611  -0.43973  -0.43262  -0.42313  -0.41898
 Alpha  occ. eigenvalues --   -0.41655  -0.41530  -0.41389  -0.40492  -0.40186
 Alpha  occ. eigenvalues --   -0.39217  -0.38810  -0.37625  -0.36990  -0.36678
 Alpha  occ. eigenvalues --   -0.36318  -0.35075  -0.34751  -0.34374  -0.34349
 Alpha  occ. eigenvalues --   -0.33661  -0.33350  -0.32883  -0.31836  -0.31428
 Alpha  occ. eigenvalues --   -0.30859  -0.30688
 Alpha virt. eigenvalues --   -0.10666  -0.10363  -0.08854  -0.08149  -0.06958
 Alpha virt. eigenvalues --   -0.06635  -0.06441  -0.06286  -0.06220  -0.05240
 Alpha virt. eigenvalues --   -0.03296  -0.03107  -0.01675  -0.01378  -0.00835

 Mulliken charges:
               1
     1  N   -0.751632
     2  H    0.437289
     3  H    0.409635
     4  H    0.398227
     5  C   -0.128530
     6  H    0.224963
     7  C    0.645331
     8  C   -0.360498
     9  H    0.163838
    10  H    0.172309
    11  O   -0.549591
    12  C    0.140502
    13  C   -0.168278
    14  H    0.141010
    15  C   -0.172715
    16  H    0.128920
    17  C   -0.120741
    18  H    0.146002
    19  C   -0.115048
    20  H    0.143670
    21  C   -0.119768
    22  H    0.144952
    23  N   -0.582262
    24  H    0.414203
    25  C   -0.098525
    26  H    0.210623
    27  C    0.592515
    28  C   -0.049443
    29  H    0.156372
    30  H    0.128030
    31  O   -0.463761
    32  O   -0.695281
    33  H    0.458595
    34  N   -0.630100
    35  H    0.331673
    36  C   -0.115245
    37  H    0.232798
    38  C    0.640731
    39  C   -0.008437
    40  H    0.149153
    41  H    0.101495
    42  O   -0.608939
    43  O   -0.606672
    44  H    0.407772
    45  N   -0.611530
    46  H    0.414881
    47  C   -0.053537
    48  H    0.163971
    49  C    0.640402
    50  C   -0.348737
    51  H    0.190046
    52  H    0.170591
    53  O   -0.528786
    54  C    0.588310
    55  O   -0.613498
    56  O   -0.588010
    57  N   -0.621969
    58  H    0.358319
    59  C   -0.035636
    60  H    0.206784
    61  C    0.577014
    62  C   -0.278747
    63  H    0.178798
    64  H    0.155531
    65  O   -0.455890
    66  C   -0.341033
    67  H    0.228703
    68  H    0.174252
    69  C   -0.155927
    70  H    0.166255
    71  H    0.184820
    72  N   -0.626431
    73  H    0.414860
    74  N   -0.763487
    75  H    0.378641
    76  H    0.384970
    77  N   -0.792954
    78  H    0.426525
    79  H    0.362585
    80  C    0.801603
    81  O   -0.557308
    82  H    0.430480
 Sum of Mulliken charges =   1.00000

 Dipole moment (field-independent basis, Debye):
    X=             13.8695    Y=             -9.1526    Z=              0.6997  Tot=             16.6320
 Quadrupole moment (field-independent basis, Debye-Ang):
   XX=           -147.1279   YY=           -193.6830   ZZ=           -114.9823
   XY=            -36.2020   XZ=             89.1640   YZ=            -46.6435

 Normal termination of Gaussian 16 at Mon May 16 19:16:10 2022.
