 Gaussian 16, Revision C.01,
 Gaussian 16:  ES64L-G16RevC.01  3-Jul-2019

 ----------------------------------------------------------------------
 # B3LYP/6-31G* empiricaldispersion=gd3 guess=read geom=check nosymm in
 tegral(ultrafinegrid)
 ----------------------------------------------------------------------

 ------------------------------------------------------
 Candidate Structure: Conf:684 Charge calc in gas phase
 ------------------------------------------------------
 Structure from the checkpoint file:  "conf-684.chk"
 Charge =  1 Multiplicity = 1

                          Input orientation:
 ---------------------------------------------------------------------
 Center     Atomic      Atomic             Coordinates (Angstroms)
 Number     Number       Type             X           Y           Z
 ---------------------------------------------------------------------
      1          7           0       -1.348740   -2.508290   -2.948331
      2          1           0       -1.169174   -2.849823   -3.902135
      3          1           0       -0.551174   -1.870329   -2.704871
      4          1           0       -1.413179   -3.267554   -2.265447
      5          6           0       -2.614473   -1.685360   -2.980720
      6          1           0       -3.437686   -2.392641   -3.127574
      7          6           0       -2.443325   -0.818499   -4.246127
      8          6           0       -2.779796   -0.929149   -1.646531
      9          1           0       -2.081384   -0.087643   -1.633734
     10          1           0       -3.801437   -0.531921   -1.611730
     11          8           0       -1.694168   -1.228645   -5.137139
     12          6           0       -2.523041   -1.841293   -0.464543
     13          6           0       -3.456301   -2.822257   -0.099107
     14          1           0       -4.415933   -2.874395   -0.609999
     15          6           0       -1.297320   -1.774042    0.212083
     16          1           0       -0.580439   -1.002890   -0.053698
     17          6           0       -3.170414   -3.721438    0.929121
     18          1           0       -3.905016   -4.469404    1.212641
     19          6           0       -1.010656   -2.680035    1.235249
     20          1           0       -0.055006   -2.620698    1.744927
     21          6           0       -1.943208   -3.654468    1.594448
     22          1           0       -1.720156   -4.356576    2.392571
     23          7           0       -3.091999    0.358578   -4.289655
     24          1           0       -3.586097    0.674751   -3.464183
     25          6           0       -2.738696    1.401751   -5.268317
     26          1           0       -2.421815    0.901987   -6.186332
     27          6           0       -1.568055    2.230112   -4.666341
     28          6           0       -3.949583    2.300383   -5.562021
     29          1           0       -4.326803    2.720352   -4.615173
     30          1           0       -4.743241    1.691136   -6.005015
     31          8           0       -1.727006    3.403910   -4.348354
     32          8           0       -3.613713    3.302024   -6.489184
     33          1           0       -3.047537    3.933264   -6.012065
     34          7           0       -0.434530    1.503144   -4.471808
     35          1           0       -0.450085    0.554466   -4.828762
     36          6           0        0.695696    1.809616   -3.604875
     37          1           0        1.565995    2.107978   -4.203982
     38          6           0        1.049241    0.537343   -2.821525
     39          6           0        0.439781    2.966608   -2.577384
     40          1           0       -0.463070    2.737594   -1.997777
     41          1           0        0.262267    3.885722   -3.132641
     42          8           0        0.223684   -0.380466   -2.660407
     43          8           0        1.568644    3.148632   -1.748642
     44          1           0        1.441821    2.572960   -0.964329
     45          7           0        2.289478    0.509617   -2.303615
     46          1           0        2.767133    1.408058   -2.319683
     47          6           0        2.631343   -0.370327   -1.193435
     48          1           0        2.345368   -1.392767   -1.453224
     49          6           0        1.822017    0.066697    0.061815
     50          6           0        4.155170   -0.314814   -0.952655
     51          1           0        4.662186   -0.358161   -1.923186
     52          1           0        4.433111    0.642645   -0.496400
     53          8           0        1.112566    1.080274    0.078946
     54          6           0        4.765428   -1.429805   -0.076386
     55          8           0        5.981361   -1.318170    0.173852
     56          8           0        3.994969   -2.367719    0.334305
     57          7           0        1.991553   -0.745420    1.117806
     58          1           0        2.668661   -1.505946    0.954176
     59          6           0        1.694876   -0.374315    2.496050
     60          1           0        0.643627   -0.561131    2.738981
     61          6           0        1.927741    1.112215    2.781090
     62          6           0        2.632263   -1.186053    3.419667
     63          1           0        2.489421   -0.843278    4.450377
     64          1           0        3.660163   -0.931409    3.136409
     65          8           0        1.213398    1.780515    3.486178
     66          6           0        2.432542   -2.712758    3.354923
     67          1           0        2.167396   -3.039256    2.342334
     68          1           0        1.600975   -3.011117    4.003332
     69          6           0        3.688423   -3.486799    3.784284
     70          1           0        4.035827   -3.122650    4.759419
     71          1           0        3.443791   -4.552883    3.891235
     72          7           0        4.752202   -3.305471    2.795589
     73          1           0        4.483990   -3.036142    1.820645
     74          7           0        6.495087   -3.876413    4.233048
     75          1           0        7.485148   -3.908140    4.427520
     76          1           0        5.921218   -4.529497    4.745456
     77          7           0        6.926721   -2.940356    2.137591
     78          1           0        6.598556   -2.353791    1.325691
     79          1           0        7.912523   -3.133178    2.236215
     80          6           0        6.059147   -3.382726    3.044727
     81          8           0        3.090686    1.552100    2.243024
     82          1           0        3.177941    2.490836    2.495006
 ---------------------------------------------------------------------

 SCF Done:  E(RB3LYP) =  -2166.42704814     A.U. after    1 cycles

 Alpha  occ. eigenvalues --  -19.27513 -19.25242 -19.24458 -19.22112 -19.21814
 Alpha  occ. eigenvalues --  -19.21647 -19.21570 -19.21283 -19.19308 -19.18371
 Alpha  occ. eigenvalues --  -14.56891 -14.49344 -14.48445 -14.46613 -14.46202
 Alpha  occ. eigenvalues --  -14.45687 -14.45432 -14.44352 -10.43433 -10.42652
 Alpha  occ. eigenvalues --  -10.40455 -10.39964 -10.39242 -10.38787 -10.38473
 Alpha  occ. eigenvalues --  -10.36955 -10.33599 -10.33327 -10.33320 -10.33214
 Alpha  occ. eigenvalues --  -10.33029 -10.32597 -10.31786 -10.31689 -10.31030
 Alpha  occ. eigenvalues --  -10.29851 -10.29713 -10.29467 -10.29394 -10.29340
 Alpha  occ. eigenvalues --  -10.29296 -10.29150 -10.27927  -1.18336  -1.17789
 Alpha  occ. eigenvalues --   -1.15733  -1.13512  -1.13378  -1.12410  -1.11692
 Alpha  occ. eigenvalues --   -1.11639  -1.09507  -1.09438  -1.09046  -1.05524
 Alpha  occ. eigenvalues --   -1.03748  -1.03544  -1.02081  -1.01849  -1.01457
 Alpha  occ. eigenvalues --   -0.99807  -0.96644  -0.92008  -0.90423  -0.88342
 Alpha  occ. eigenvalues --   -0.87049  -0.85250  -0.84969  -0.84331  -0.83023
 Alpha  occ. eigenvalues --   -0.78465  -0.78185  -0.76419  -0.74766  -0.74062
 Alpha  occ. eigenvalues --   -0.73493  -0.72151  -0.71890  -0.71186  -0.71049
 Alpha  occ. eigenvalues --   -0.70957  -0.70082  -0.69234  -0.68757  -0.68289
 Alpha  occ. eigenvalues --   -0.67014  -0.66541  -0.66004  -0.64983  -0.63664
 Alpha  occ. eigenvalues --   -0.62548  -0.61883  -0.61454  -0.61369  -0.61020
 Alpha  occ. eigenvalues --   -0.60529  -0.59490  -0.59351  -0.58793  -0.58567
 Alpha  occ. eigenvalues --   -0.57363  -0.57319  -0.56998  -0.56908  -0.56662
 Alpha  occ. eigenvalues --   -0.56089  -0.55725  -0.55450  -0.55245  -0.54843
 Alpha  occ. eigenvalues --   -0.54668  -0.53502  -0.53127  -0.52767  -0.52677
 Alpha  occ. eigenvalues --   -0.52025  -0.51951  -0.51774  -0.51671  -0.51465
 Alpha  occ. eigenvalues --   -0.51003  -0.50894  -0.50065  -0.49698  -0.49651
 Alpha  occ. eigenvalues --   -0.49578  -0.49185  -0.48910  -0.48389  -0.48196
 Alpha  occ. eigenvalues --   -0.47818  -0.47412  -0.46577  -0.46321  -0.45608
 Alpha  occ. eigenvalues --   -0.45088  -0.44929  -0.44805  -0.44666  -0.44048
 Alpha  occ. eigenvalues --   -0.43351  -0.41254  -0.41047  -0.40078  -0.39524
 Alpha  occ. eigenvalues --   -0.39402  -0.39054  -0.38659  -0.38083  -0.36687
 Alpha  occ. eigenvalues --   -0.36238  -0.36053  -0.35680  -0.35331  -0.35235
 Alpha  occ. eigenvalues --   -0.34945  -0.34522  -0.34389  -0.34108  -0.33984
 Alpha  occ. eigenvalues --   -0.33548  -0.32719
 Alpha virt. eigenvalues --   -0.12748  -0.11044  -0.10901  -0.09924  -0.08264
 Alpha virt. eigenvalues --   -0.07752  -0.07472  -0.06414  -0.05966  -0.04498
 Alpha virt. eigenvalues --   -0.03801  -0.03617  -0.02205  -0.01426  -0.01227

 Mulliken charges:
               1
     1  N   -0.753190
     2  H    0.414782
     3  H    0.450056
     4  H    0.404881
     5  C   -0.111715
     6  H    0.221012
     7  C    0.670394
     8  C   -0.395378
     9  H    0.209428
    10  H    0.182884
    11  O   -0.543864
    12  C    0.112835
    13  C   -0.191459
    14  H    0.142276
    15  C   -0.213161
    16  H    0.182184
    17  C   -0.127344
    18  H    0.161212
    19  C   -0.139909
    20  H    0.152327
    21  C   -0.129505
    22  H    0.152378
    23  N   -0.599042
    24  H    0.355437
    25  C   -0.114672
    26  H    0.217799
    27  C    0.624821
    28  C   -0.025845
    29  H    0.133655
    30  H    0.165597
    31  O   -0.518789
    32  O   -0.610625
    33  H    0.421294
    34  N   -0.628870
    35  H    0.363455
    36  C   -0.042395
    37  H    0.188767
    38  C    0.607237
    39  C   -0.046730
    40  H    0.147807
    41  H    0.206632
    42  O   -0.601560
    43  O   -0.651767
    44  H    0.438753
    45  N   -0.577165
    46  H    0.361887
    47  C   -0.073573
    48  H    0.185712
    49  C    0.658172
    50  C   -0.391491
    51  H    0.195639
    52  H    0.191000
    53  O   -0.576199
    54  C    0.625512
    55  O   -0.559621
    56  O   -0.630467
    57  N   -0.666248
    58  H    0.412028
    59  C    0.007073
    60  H    0.181009
    61  C    0.587993
    62  C   -0.322580
    63  H    0.179542
    64  H    0.182614
    65  O   -0.447688
    66  C   -0.318206
    67  H    0.174137
    68  H    0.167240
    69  C   -0.145474
    70  H    0.172329
    71  H    0.166589
    72  N   -0.639626
    73  H    0.422812
    74  N   -0.762227
    75  H    0.365772
    76  H    0.369756
    77  N   -0.794250
    78  H    0.436677
    79  H    0.349721
    80  C    0.780099
    81  O   -0.575200
    82  H    0.424624
 Sum of Mulliken charges =   1.00000

 Dipole moment (field-independent basis, Debye):
    X=              6.1837    Y=            -16.6962    Z=              2.6228  Tot=             17.9966
 Quadrupole moment (field-independent basis, Debye-Ang):
   XX=           -137.0570   YY=           -197.3116   ZZ=           -196.9206
   XY=            -27.8081   XZ=             69.4708   YZ=            -26.7565

 Normal termination of Gaussian 16 at Mon May 16 19:20:14 2022.
