 Gaussian 16, Revision C.01,
 Gaussian 16:  ES64L-G16RevC.01  3-Jul-2019

 ----------------------------------------------------------------------
 # B3LYP/6-31G* empiricaldispersion=gd3 guess=read geom=check nosymm in
 tegral(ultrafinegrid)
 ----------------------------------------------------------------------

 ------------------------------------------------------
 Candidate Structure: Conf:746 Charge calc in gas phase
 ------------------------------------------------------
 Structure from the checkpoint file:  "conf-746.chk"
 Charge =  1 Multiplicity = 1

                          Input orientation:
 ---------------------------------------------------------------------
 Center     Atomic      Atomic             Coordinates (Angstroms)
 Number     Number       Type             X           Y           Z
 ---------------------------------------------------------------------
      1          7           0       -4.358629   -0.401084   -6.289807
      2          1           0       -3.774902   -0.257232   -7.119545
      3          1           0       -4.289092   -1.421513   -6.005253
      4          1           0       -5.322755   -0.136877   -6.511533
      5          6           0       -3.815363    0.284832   -5.049843
      6          1           0       -3.245545    1.166896   -5.347874
      7          6           0       -2.945217   -0.824253   -4.416103
      8          6           0       -4.996780    0.658048   -4.120579
      9          1           0       -5.613196    1.407028   -4.635361
     10          1           0       -5.609614   -0.240857   -3.977385
     11          8           0       -3.262827   -1.996508   -4.677191
     12          6           0       -4.525849    1.183848   -2.780820
     13          6           0       -4.489850    0.341762   -1.660940
     14          1           0       -4.844330   -0.683368   -1.747190
     15          6           0       -4.066206    2.501172   -2.661944
     16          1           0       -4.101290    3.168561   -3.521287
     17          6           0       -4.000374    0.807105   -0.439923
     18          1           0       -3.948455    0.148130    0.421902
     19          6           0       -3.575764    2.968448   -1.441887
     20          1           0       -3.222651    3.991905   -1.358824
     21          6           0       -3.541133    2.121616   -0.333563
     22          1           0       -3.154687    2.483902    0.614453
     23          7           0       -1.977576   -0.430678   -3.602194
     24          1           0       -1.857376    0.556552   -3.365145
     25          6           0       -1.336667   -1.318392   -2.634572
     26          1           0       -2.090545   -2.015779   -2.254189
     27          6           0       -0.900131   -0.401846   -1.481818
     28          6           0       -0.178967   -2.155148   -3.238343
     29          1           0        0.503440   -1.480197   -3.765355
     30          1           0       -0.621835   -2.854301   -3.957787
     31          8           0       -0.895735    0.826183   -1.610170
     32          8           0        0.483226   -2.862582   -2.217530
     33          1           0        1.330503   -2.346803   -2.082206
     34          7           0       -0.649831   -1.043251   -0.316433
     35          1           0       -0.297187   -1.997066   -0.413366
     36          6           0       -0.478698   -0.307862    0.937937
     37          1           0       -1.031847    0.627314    0.812009
     38          6           0        0.996567    0.009852    1.204150
     39          6           0       -1.117577   -1.105115    2.079933
     40          1           0       -1.031512   -0.538962    3.009934
     41          1           0       -0.580400   -2.053052    2.220657
     42          8           0        1.621367   -0.593589    2.082877
     43          8           0       -2.505400   -1.307773    1.846389
     44          1           0       -2.579373   -1.852649    1.046690
     45          7           0        1.517105    0.957070    0.391296
     46          1           0        0.918997    1.316092   -0.347888
     47          6           0        2.947278    1.176726    0.303130
     48          1           0        3.374209    0.446880    0.981134
     49          6           0        3.379038    2.498985    0.955974
     50          6           0        3.463779    0.790256   -1.090171
     51          1           0        3.034832    1.417117   -1.876575
     52          1           0        4.556527    0.868762   -1.129237
     53          8           0        2.692420    3.053792    1.803464
     54          6           0        3.059533   -0.692141   -1.296072
     55          8           0        2.221564   -0.919384   -2.199961
     56          8           0        3.535555   -1.535141   -0.481904
     57          7           0        4.669837    2.864704    0.683755
     58          1           0        5.119443    2.547347   -0.165199
     59          6           0        5.341271    3.945285    1.382722
     60          1           0        4.585047    4.566708    1.870105
     61          6           0        6.111659    4.773051    0.363189
     62          6           0        6.334601    3.392773    2.439158
     63          1           0        6.922597    4.221236    2.847561
     64          1           0        7.036987    2.743011    1.899420
     65          8           0        6.400764    4.387661   -0.749286
     66          6           0        5.637454    2.609844    3.573262
     67          1           0        4.614510    2.358227    3.279182
     68          1           0        5.543908    3.243637    4.462606
     69          6           0        6.381122    1.325723    3.984194
     70          1           0        7.411287    1.549019    4.275567
     71          1           0        5.913594    0.867607    4.863664
     72          7           0        6.470443    0.320389    2.914161
     73          1           0        7.301355    0.351704    2.341413
     74          7           0        4.249488   -0.372921    3.040091
     75          1           0        3.370904   -0.676372    2.597180
     76          1           0        4.129520    0.178714    3.875187
     77          7           0        5.525011   -0.940957    1.195219
     78          1           0        6.403848   -0.871203    0.701051
     79          1           0        4.690684   -1.242584    0.597740
     80          6           0        5.406771   -0.322483    2.369315
     81          8           0        6.486308    5.960828    0.871749
     82          1           0        7.011126    6.419501    0.187570
 ---------------------------------------------------------------------

 SCF Done:  E(RB3LYP) =  -2166.39287955     A.U. after    1 cycles

 Alpha  occ. eigenvalues --  -19.28188 -19.25710 -19.22685 -19.22119 -19.21875
 Alpha  occ. eigenvalues --  -19.20400 -19.19122 -19.18875 -19.15483 -19.15277
 Alpha  occ. eigenvalues --  -14.60027 -14.48216 -14.47658 -14.45627 -14.44664
 Alpha  occ. eigenvalues --  -14.44599 -14.43899 -14.43703 -10.42798 -10.42357
 Alpha  occ. eigenvalues --  -10.40608 -10.40288 -10.38316 -10.37050 -10.36545
 Alpha  occ. eigenvalues --  -10.33594 -10.33519 -10.33182 -10.32361 -10.32212
 Alpha  occ. eigenvalues --  -10.31039 -10.30769 -10.30540 -10.30110 -10.29907
 Alpha  occ. eigenvalues --  -10.28650 -10.28443 -10.28441 -10.28053 -10.27956
 Alpha  occ. eigenvalues --  -10.27638 -10.27509 -10.25801  -1.19157  -1.18336
 Alpha  occ. eigenvalues --   -1.13818  -1.13298  -1.12018  -1.11270  -1.11123
 Alpha  occ. eigenvalues --   -1.10246  -1.09358  -1.08745  -1.06702  -1.04878
 Alpha  occ. eigenvalues --   -1.01402  -1.01075  -1.00625  -1.00285  -0.99895
 Alpha  occ. eigenvalues --   -0.98604  -0.95948  -0.92076  -0.89108  -0.87096
 Alpha  occ. eigenvalues --   -0.85858  -0.84507  -0.83621  -0.83290  -0.82045
 Alpha  occ. eigenvalues --   -0.78779  -0.77923  -0.74955  -0.73996  -0.73893
 Alpha  occ. eigenvalues --   -0.73151  -0.72933  -0.72382  -0.70565  -0.70110
 Alpha  occ. eigenvalues --   -0.69815  -0.68744  -0.68264  -0.67771  -0.67138
 Alpha  occ. eigenvalues --   -0.66592  -0.66380  -0.65373  -0.64299  -0.62585
 Alpha  occ. eigenvalues --   -0.62260  -0.60648  -0.60357  -0.60016  -0.59678
 Alpha  occ. eigenvalues --   -0.58678  -0.58343  -0.57781  -0.57710  -0.57354
 Alpha  occ. eigenvalues --   -0.56893  -0.56445  -0.55988  -0.55938  -0.55617
 Alpha  occ. eigenvalues --   -0.55481  -0.55234  -0.54962  -0.54775  -0.53968
 Alpha  occ. eigenvalues --   -0.52998  -0.52784  -0.52317  -0.51770  -0.51176
 Alpha  occ. eigenvalues --   -0.51037  -0.50840  -0.50749  -0.50460  -0.50186
 Alpha  occ. eigenvalues --   -0.49973  -0.49737  -0.49416  -0.49074  -0.48270
 Alpha  occ. eigenvalues --   -0.47988  -0.47851  -0.47239  -0.46654  -0.46436
 Alpha  occ. eigenvalues --   -0.46014  -0.45471  -0.45197  -0.44812  -0.44311
 Alpha  occ. eigenvalues --   -0.43799  -0.43740  -0.43617  -0.43301  -0.42582
 Alpha  occ. eigenvalues --   -0.41886  -0.40823  -0.40303  -0.40264  -0.39072
 Alpha  occ. eigenvalues --   -0.38982  -0.37319  -0.36686  -0.36513  -0.35908
 Alpha  occ. eigenvalues --   -0.35721  -0.35205  -0.34177  -0.34122  -0.33780
 Alpha  occ. eigenvalues --   -0.33601  -0.33006  -0.32483  -0.32421  -0.30797
 Alpha  occ. eigenvalues --   -0.30094  -0.29272
 Alpha virt. eigenvalues --   -0.11919  -0.10603  -0.10393  -0.09477  -0.07783
 Alpha virt. eigenvalues --   -0.07643  -0.07357  -0.06076  -0.05601  -0.05563
 Alpha virt. eigenvalues --   -0.04225  -0.02515  -0.01756  -0.01504  -0.01190

 Mulliken charges:
               1
     1  N   -0.750347
     2  H    0.418035
     3  H    0.430255
     4  H    0.413834
     5  C   -0.114552
     6  H    0.212827
     7  C    0.651160
     8  C   -0.381135
     9  H    0.181697
    10  H    0.184623
    11  O   -0.545392
    12  C    0.149697
    13  C   -0.189169
    14  H    0.140293
    15  C   -0.192825
    16  H    0.129727
    17  C   -0.142760
    18  H    0.178076
    19  C   -0.112114
    20  H    0.155226
    21  C   -0.114107
    22  H    0.156906
    23  N   -0.596031
    24  H    0.379808
    25  C   -0.071890
    26  H    0.183837
    27  C    0.639628
    28  C   -0.021348
    29  H    0.169367
    30  H    0.155442
    31  O   -0.555487
    32  O   -0.659828
    33  H    0.442440
    34  N   -0.625920
    35  H    0.371032
    36  C   -0.105207
    37  H    0.194591
    38  C    0.662259
    39  C   -0.045434
    40  H    0.175809
    41  H    0.159518
    42  O   -0.554866
    43  O   -0.607087
    44  H    0.395321
    45  N   -0.582847
    46  H    0.366985
    47  C   -0.076264
    48  H    0.162557
    49  C    0.610248
    50  C   -0.362356
    51  H    0.163647
    52  H    0.134253
    53  O   -0.515102
    54  C    0.620666
    55  O   -0.593007
    56  O   -0.594345
    57  N   -0.618544
    58  H    0.351938
    59  C   -0.050212
    60  H    0.213284
    61  C    0.582664
    62  C   -0.265097
    63  H    0.180338
    64  H    0.124781
    65  O   -0.461769
    66  C   -0.286138
    67  H    0.182482
    68  H    0.171555
    69  C   -0.189753
    70  H    0.185022
    71  H    0.180399
    72  N   -0.599888
    73  H    0.346539
    74  N   -0.776298
    75  H    0.435446
    76  H    0.365061
    77  N   -0.798923
    78  H    0.342568
    79  H    0.442915
    80  C    0.792117
    81  O   -0.556781
    82  H    0.425949
 Sum of Mulliken charges =   1.00000

 Dipole moment (field-independent basis, Debye):
    X=             -1.0064    Y=              7.7325    Z=            -12.7406  Tot=             14.9374
 Quadrupole moment (field-independent basis, Debye-Ang):
   XX=            -68.9582   YY=           -237.3298   ZZ=           -101.6790
   XY=             35.2708   XZ=            139.8660   YZ=             -2.9841

 Normal termination of Gaussian 16 at Mon May 16 19:20:00 2022.
