 Gaussian 16, Revision C.01,
 Gaussian 16:  ES64L-G16RevC.01  3-Jul-2019

 ----------------------------------------------------------------------
 # B3LYP/6-31G* empiricaldispersion=gd3 guess=read geom=check nosymm in
 tegral(ultrafinegrid)
 ----------------------------------------------------------------------

 ------------------------------------------------------
 Candidate Structure: Conf:742 Charge calc in gas phase
 ------------------------------------------------------
 Structure from the checkpoint file:  "conf-742.chk"
 Charge =  1 Multiplicity = 1

                          Input orientation:
 ---------------------------------------------------------------------
 Center     Atomic      Atomic             Coordinates (Angstroms)
 Number     Number       Type             X           Y           Z
 ---------------------------------------------------------------------
      1          7           0       -1.863676   -4.806980   -2.913431
      2          1           0       -2.091543   -5.336712   -3.757803
      3          1           0       -1.079302   -4.134429   -3.115862
      4          1           0       -1.545722   -5.440426   -2.154058
      5          6           0       -2.981371   -3.910407   -2.429890
      6          1           0       -3.855155   -4.080319   -3.064014
      7          6           0       -2.428183   -2.483012   -2.669673
      8          6           0       -3.319197   -4.211490   -0.933315
      9          1           0       -3.833597   -3.334351   -0.526553
     10          1           0       -4.028027   -5.045480   -0.901869
     11          8           0       -1.237078   -2.343415   -2.970555
     12          6           0       -2.063593   -4.536479   -0.160123
     13          6           0       -1.665068   -5.877141    0.003067
     14          1           0       -2.356390   -6.681851   -0.248160
     15          6           0       -1.195295   -3.513988    0.240445
     16          1           0       -1.492717   -2.472532    0.161683
     17          6           0       -0.405841   -6.181964    0.538098
     18          1           0       -0.116239   -7.220492    0.670506
     19          6           0        0.058572   -3.822501    0.761647
     20          1           0        0.743054   -3.037587    1.050582
     21          6           0        0.464420   -5.152692    0.900872
     22          1           0        1.455896   -5.346997    1.297528
     23          7           0       -3.287798   -1.465094   -2.535999
     24          1           0       -4.246167   -1.656952   -2.267564
     25          6           0       -2.967132   -0.089315   -2.947873
     26          1           0       -2.144940   -0.150548   -3.668018
     27          6           0       -2.495507    0.799874   -1.774925
     28          6           0       -4.188569    0.535702   -3.657978
     29          1           0       -5.012049    0.638176   -2.930260
     30          1           0       -4.515255   -0.149389   -4.447713
     31          8           0       -2.911767    1.949533   -1.644983
     32          8           0       -3.856404    1.749888   -4.270838
     33          1           0       -3.683901    2.377198   -3.546024
     34          7           0       -1.578913    0.250068   -0.938081
     35          1           0       -1.150483   -0.630319   -1.198988
     36          6           0       -0.868216    1.063138    0.056289
     37          1           0       -0.446108    1.946890   -0.438158
     38          6           0        0.225604    0.196826    0.690045
     39          6           0       -1.815894    1.515348    1.190744
     40          1           0       -2.269625    0.624500    1.629439
     41          1           0       -2.602918    2.152601    0.782508
     42          8           0       -0.101426   -0.812573    1.336566
     43          8           0       -1.092476    2.165221    2.238481
     44          1           0       -0.938068    3.088685    1.991777
     45          7           0        1.488613    0.602245    0.510330
     46          1           0        1.681724    1.531749    0.141267
     47          6           0        2.576758    0.061192    1.314635
     48          1           0        2.147393   -0.150717    2.295706
     49          6           0        3.565728    1.210664    1.554222
     50          6           0        3.198880   -1.263936    0.805873
     51          1           0        2.551969   -1.713726    0.049921
     52          1           0        4.176333   -1.079976    0.344571
     53          8           0        3.328491    2.348018    1.132494
     54          6           0        3.352080   -2.245405    1.998075
     55          8           0        2.899513   -3.390803    1.880616
     56          8           0        3.846340   -1.725725    3.069541
     57          7           0        4.608873    0.863287    2.333612
     58          1           0        4.609274   -0.120168    2.667573
     59          6           0        5.417725    1.877699    2.983622
     60          1           0        5.186789    2.820486    2.473596
     61          6           0        6.915705    1.646160    2.805689
     62          6           0        5.063740    2.017981    4.485263
     63          1           0        5.567860    2.906008    4.873884
     64          1           0        5.489483    1.169329    5.034177
     65          8           0        7.748762    2.001544    3.608651
     66          6           0        3.533342    2.083582    4.704660
     67          1           0        3.034181    2.382137    3.776739
     68          1           0        3.287703    2.848496    5.451341
     69          6           0        2.982888    0.724769    5.166687
     70          1           0        3.391908   -0.074080    4.548975
     71          1           0        3.286242    0.529651    6.201713
     72          7           0        1.514755    0.657264    5.068916
     73          1           0        0.995431    1.459413    5.400987
     74          7           0        1.296129   -1.485560    4.155154
     75          1           0        0.844451   -1.994058    3.404354
     76          1           0        2.315460   -1.671442    4.172074
     77          7           0       -0.502474   -0.003478    4.150149
     78          1           0       -0.688457    0.936920    3.803364
     79          1           0       -0.905006   -0.670302    3.501665
     80          6           0        0.798176   -0.277486    4.434215
     81          8           0        7.213545    1.035128    1.640451
     82          1           0        8.186896    0.963825    1.611259
 ---------------------------------------------------------------------

 SCF Done:  E(RB3LYP) =  -2166.37484099     A.U. after    1 cycles

 Alpha  occ. eigenvalues --  -19.29086 -19.27130 -19.25555 -19.24190 -19.23447
 Alpha  occ. eigenvalues --  -19.22764 -19.19836 -19.19466 -19.14974 -19.14200
 Alpha  occ. eigenvalues --  -14.60189 -14.52741 -14.48366 -14.48114 -14.46115
 Alpha  occ. eigenvalues --  -14.46031 -14.45778 -14.42113 -10.45859 -10.43222
 Alpha  occ. eigenvalues --  -10.42345 -10.41238 -10.39647 -10.38029 -10.36229
 Alpha  occ. eigenvalues --  -10.36209 -10.35147 -10.34692 -10.34578 -10.34400
 Alpha  occ. eigenvalues --  -10.32784 -10.31901 -10.31451 -10.31224 -10.30668
 Alpha  occ. eigenvalues --  -10.30516 -10.29661 -10.29577 -10.28305 -10.28124
 Alpha  occ. eigenvalues --  -10.27252 -10.26310 -10.25047  -1.21339  -1.16500
 Alpha  occ. eigenvalues --   -1.16213  -1.14735  -1.14607  -1.13533  -1.11952
 Alpha  occ. eigenvalues --   -1.11463  -1.11138  -1.08781  -1.07710  -1.07487
 Alpha  occ. eigenvalues --   -1.04300  -1.02470  -1.01663  -1.00058  -0.99476
 Alpha  occ. eigenvalues --   -0.98547  -0.97501  -0.93839  -0.89813  -0.88196
 Alpha  occ. eigenvalues --   -0.87369  -0.85854  -0.85078  -0.84798  -0.82105
 Alpha  occ. eigenvalues --   -0.79928  -0.77724  -0.76988  -0.76097  -0.75153
 Alpha  occ. eigenvalues --   -0.74767  -0.73702  -0.73189  -0.73002  -0.71024
 Alpha  occ. eigenvalues --   -0.70242  -0.69894  -0.69601  -0.69036  -0.67944
 Alpha  occ. eigenvalues --   -0.67665  -0.66633  -0.65415  -0.64799  -0.64335
 Alpha  occ. eigenvalues --   -0.64109  -0.62623  -0.62271  -0.61316  -0.61060
 Alpha  occ. eigenvalues --   -0.60539  -0.60072  -0.59570  -0.59492  -0.58709
 Alpha  occ. eigenvalues --   -0.58357  -0.57596  -0.57036  -0.56798  -0.56423
 Alpha  occ. eigenvalues --   -0.56140  -0.55542  -0.55313  -0.55135  -0.54520
 Alpha  occ. eigenvalues --   -0.54345  -0.53904  -0.53710  -0.53372  -0.53185
 Alpha  occ. eigenvalues --   -0.52709  -0.52043  -0.51857  -0.51585  -0.51249
 Alpha  occ. eigenvalues --   -0.51000  -0.50861  -0.50340  -0.49424  -0.49284
 Alpha  occ. eigenvalues --   -0.48886  -0.48558  -0.47539  -0.47179  -0.47103
 Alpha  occ. eigenvalues --   -0.47007  -0.45932  -0.45144  -0.45068  -0.44740
 Alpha  occ. eigenvalues --   -0.44425  -0.44007  -0.43811  -0.43567  -0.43245
 Alpha  occ. eigenvalues --   -0.43123  -0.43060  -0.42343  -0.41887  -0.41524
 Alpha  occ. eigenvalues --   -0.40659  -0.38262  -0.37627  -0.37598  -0.37374
 Alpha  occ. eigenvalues --   -0.36863  -0.36653  -0.36086  -0.35936  -0.35633
 Alpha  occ. eigenvalues --   -0.35601  -0.34671  -0.33605  -0.31616  -0.30573
 Alpha  occ. eigenvalues --   -0.29714  -0.27932
 Alpha virt. eigenvalues --   -0.14912  -0.12200  -0.11722  -0.11112  -0.10283
 Alpha virt. eigenvalues --   -0.09205  -0.08710  -0.06817  -0.05244  -0.05165
 Alpha virt. eigenvalues --   -0.04927  -0.04389  -0.02704  -0.02226  -0.01606

 Mulliken charges:
               1
     1  N   -0.760290
     2  H    0.413196
     3  H    0.436641
     4  H    0.410536
     5  C   -0.098550
     6  H    0.215099
     7  C    0.645307
     8  C   -0.382159
     9  H    0.191738
    10  H    0.194005
    11  O   -0.530377
    12  C    0.122706
    13  C   -0.251723
    14  H    0.147823
    15  C   -0.192816
    16  H    0.139281
    17  C   -0.118723
    18  H    0.165236
    19  C   -0.148042
    20  H    0.202513
    21  C   -0.133203
    22  H    0.209435
    23  N   -0.597786
    24  H    0.355729
    25  C   -0.109481
    26  H    0.228819
    27  C    0.643303
    28  C   -0.031257
    29  H    0.138594
    30  H    0.156597
    31  O   -0.524040
    32  O   -0.605650
    33  H    0.426066
    34  N   -0.637860
    35  H    0.369226
    36  C   -0.024228
    37  H    0.172064
    38  C    0.589612
    39  C   -0.060383
    40  H    0.161849
    41  H    0.193946
    42  O   -0.574197
    43  O   -0.632325
    44  H    0.421547
    45  N   -0.590177
    46  H    0.360696
    47  C   -0.059704
    48  H    0.180237
    49  C    0.591159
    50  C   -0.363658
    51  H    0.153446
    52  H    0.180641
    53  O   -0.561764
    54  C    0.578076
    55  O   -0.549493
    56  O   -0.625594
    57  N   -0.605397
    58  H    0.391069
    59  C   -0.072618
    60  H    0.216664
    61  C    0.593562
    62  C   -0.278477
    63  H    0.183915
    64  H    0.166934
    65  O   -0.456677
    66  C   -0.299741
    67  H    0.168646
    68  H    0.153170
    69  C   -0.179989
    70  H    0.213325
    71  H    0.184932
    72  N   -0.582163
    73  H    0.353378
    74  N   -0.734848
    75  H    0.375460
    76  H    0.416762
    77  N   -0.751414
    78  H    0.384837
    79  H    0.361172
    80  C    0.702783
    81  O   -0.556450
    82  H    0.419524
 Sum of Mulliken charges =   1.00000

 Dipole moment (field-independent basis, Debye):
    X=            -12.9958    Y=            -11.6075    Z=             -4.4148  Tot=             17.9754
 Quadrupole moment (field-independent basis, Debye-Ang):
   XX=           -216.8385   YY=           -166.2805   ZZ=           -197.7010
   XY=             54.9076   XZ=             19.5670   YZ=             72.2261

 Normal termination of Gaussian 16 at Mon May 16 19:20:03 2022.
