 Gaussian 16, Revision C.01,
 Gaussian 16:  ES64L-G16RevC.01  3-Jul-2019

 ----------------------------------------------------------------------
 # B3LYP/6-31G* empiricaldispersion=gd3 guess=read geom=check nosymm in
 tegral(ultrafinegrid)
 ----------------------------------------------------------------------

 -----------------------------------------------------
 Candidate Structure: Conf:34 Charge calc in gas phase
 -----------------------------------------------------
 Structure from the checkpoint file:  "conf-34.chk"
 Charge =  1 Multiplicity = 1

                          Input orientation:
 ---------------------------------------------------------------------
 Center     Atomic      Atomic             Coordinates (Angstroms)
 Number     Number       Type             X           Y           Z
 ---------------------------------------------------------------------
      1          7           0       -2.855890    3.985538   -3.164613
      2          1           0       -2.548501    4.783693   -2.601004
      3          1           0       -2.027881    3.641447   -3.734480
      4          1           0       -3.634920    4.276690   -3.761633
      5          6           0       -3.156244    2.747884   -2.338033
      6          1           0       -3.495407    3.047513   -1.344771
      7          6           0       -1.789331    2.027191   -2.336622
      8          6           0       -4.225868    1.905300   -3.082505
      9          1           0       -5.176590    2.453167   -3.043953
     10          1           0       -3.920646    1.834207   -4.134584
     11          8           0       -1.056231    2.246774   -3.316280
     12          6           0       -4.374528    0.516194   -2.500023
     13          6           0       -3.631806   -0.545193   -3.036594
     14          1           0       -3.002994   -0.376055   -3.908537
     15          6           0       -5.180082    0.289822   -1.378340
     16          1           0       -5.769361    1.103454   -0.958946
     17          6           0       -3.676141   -1.807421   -2.446613
     18          1           0       -3.073316   -2.621823   -2.833440
     19          6           0       -5.228017   -0.976507   -0.791290
     20          1           0       -5.846455   -1.138859    0.086370
     21          6           0       -4.468563   -2.022049   -1.317074
     22          1           0       -4.460289   -2.999752   -0.846878
     23          7           0       -1.562248    1.198542   -1.332032
     24          1           0       -2.277503    1.028404   -0.617406
     25          6           0       -0.597465    0.104502   -1.374653
     26          1           0       -0.519917   -0.258058   -2.404668
     27          6           0       -1.210082   -0.972158   -0.463534
     28          6           0        0.819250    0.502179   -0.917889
     29          1           0        0.818004    0.743570    0.153086
     30          1           0        1.108778    1.404827   -1.478537
     31          8           0       -2.086010   -0.658817    0.350056
     32          8           0        1.646123   -0.599619   -1.230581
     33          1           0        2.481738   -0.518122   -0.690438
     34          7           0       -0.728866   -2.221357   -0.615799
     35          1           0        0.149596   -2.294690   -1.124203
     36          6           0       -1.091003   -3.288238    0.323629
     37          1           0       -2.041611   -2.984178    0.769891
     38          6           0        0.011214   -3.381502    1.404181
     39          6           0       -1.274524   -4.620711   -0.385634
     40          1           0       -1.420665   -5.396478    0.376646
     41          1           0       -0.360112   -4.876823   -0.939932
     42          8           0        0.710381   -4.380788    1.522654
     43          8           0       -2.403325   -4.500190   -1.251768
     44          1           0       -2.554966   -5.365486   -1.660927
     45          7           0        0.192005   -2.229524    2.102669
     46          1           0       -0.412608   -1.432339    1.915778
     47          6           0        1.499583   -1.844266    2.618345
     48          1           0        1.725388   -2.400970    3.533218
     49          6           0        1.374832   -0.343443    2.979577
     50          6           0        2.631896   -2.147848    1.557327
     51          1           0        3.066991   -3.119322    1.797429
     52          1           0        2.162742   -2.216150    0.579201
     53          8           0        0.457640    0.354137    2.552237
     54          6           0        3.733079   -1.083784    1.526928
     55          8           0        3.721981   -0.290155    0.499369
     56          8           0        4.496239   -0.960945    2.499235
     57          7           0        2.344550    0.105441    3.829614
     58          1           0        3.169280   -0.498480    3.872330
     59          6           0        2.667355    1.526172    3.956642
     60          1           0        1.747691    2.077562    3.740178
     61          6           0        3.685952    1.858570    2.840306
     62          6           0        3.162811    1.809746    5.388374
     63          1           0        3.845564    1.000423    5.676388
     64          1           0        2.305928    1.718205    6.063183
     65          8           0        4.847680    2.182880    3.082012
     66          6           0        3.870504    3.174946    5.562740
     67          1           0        3.407929    3.751992    6.371683
     68          1           0        3.769219    3.772188    4.651531
     69          6           0        5.367386    2.985785    5.856231
     70          1           0        5.528288    2.659820    6.889486
     71          1           0        5.773870    2.214299    5.211843
     72          7           0        6.163410    4.204893    5.648634
     73          1           0        6.005163    4.971834    6.289340
     74          7           0        7.096512    3.644585    3.580645
     75          1           0        7.919486    3.655866    2.995236
     76          1           0        6.297319    3.077492    3.259434
     77          7           0        7.932648    5.427488    4.805899
     78          1           0        8.144400    5.817610    5.712545
     79          1           0        8.438201    5.792417    4.012292
     80          6           0        7.051749    4.408070    4.668946
     81          8           0        3.180061    1.739989    1.641006
     82          1           0        3.678358    1.005909    1.058706
 ---------------------------------------------------------------------

 SCF Done:  E(RB3LYP) =  -2166.36404425     A.U. after    1 cycles

 Alpha  occ. eigenvalues --  -19.24528 -19.21071 -19.20147 -19.19907 -19.19404
 Alpha  occ. eigenvalues --  -19.18343 -19.17860 -19.16628 -19.15852 -19.14098
 Alpha  occ. eigenvalues --  -14.58869 -14.50112 -14.49914 -14.48097 -14.46723
 Alpha  occ. eigenvalues --  -14.42920 -14.41103 -14.39903 -10.45981 -10.41083
 Alpha  occ. eigenvalues --  -10.39039 -10.37512 -10.36110 -10.34573 -10.33597
 Alpha  occ. eigenvalues --  -10.32567 -10.32315 -10.32264 -10.31060 -10.29523
 Alpha  occ. eigenvalues --  -10.29177 -10.28931 -10.28921 -10.28887 -10.28431
 Alpha  occ. eigenvalues --  -10.27433 -10.26971 -10.26700 -10.26356 -10.26163
 Alpha  occ. eigenvalues --  -10.25654 -10.25509 -10.22755  -1.17176  -1.14274
 Alpha  occ. eigenvalues --   -1.13940  -1.12392  -1.11408  -1.09629  -1.08464
 Alpha  occ. eigenvalues --   -1.08256  -1.07880  -1.05842  -1.05381  -1.03659
 Alpha  occ. eigenvalues --   -1.03555  -1.01998  -0.99535  -0.99386  -0.98004
 Alpha  occ. eigenvalues --   -0.96795  -0.94360  -0.90557  -0.88272  -0.85418
 Alpha  occ. eigenvalues --   -0.83688  -0.82958  -0.81878  -0.81460  -0.80168
 Alpha  occ. eigenvalues --   -0.77418  -0.77273  -0.74816  -0.72805  -0.72555
 Alpha  occ. eigenvalues --   -0.71952  -0.71769  -0.71734  -0.69784  -0.69262
 Alpha  occ. eigenvalues --   -0.68397  -0.68158  -0.67318  -0.66237  -0.65429
 Alpha  occ. eigenvalues --   -0.64799  -0.64168  -0.63746  -0.63195  -0.62632
 Alpha  occ. eigenvalues --   -0.61952  -0.61273  -0.60845  -0.58842  -0.58601
 Alpha  occ. eigenvalues --   -0.58371  -0.58107  -0.57474  -0.55914  -0.55570
 Alpha  occ. eigenvalues --   -0.55527  -0.54906  -0.54697  -0.54390  -0.53954
 Alpha  occ. eigenvalues --   -0.53517  -0.53329  -0.53278  -0.52370  -0.52148
 Alpha  occ. eigenvalues --   -0.51965  -0.50724  -0.50494  -0.50323  -0.49922
 Alpha  occ. eigenvalues --   -0.49523  -0.49100  -0.48919  -0.48651  -0.48350
 Alpha  occ. eigenvalues --   -0.48185  -0.47741  -0.47171  -0.47015  -0.46646
 Alpha  occ. eigenvalues --   -0.45965  -0.45526  -0.45368  -0.44984  -0.44569
 Alpha  occ. eigenvalues --   -0.44271  -0.43664  -0.43054  -0.42689  -0.42325
 Alpha  occ. eigenvalues --   -0.41903  -0.41893  -0.41530  -0.40787  -0.40426
 Alpha  occ. eigenvalues --   -0.40326  -0.39839  -0.39253  -0.39077  -0.38971
 Alpha  occ. eigenvalues --   -0.38066  -0.36455  -0.35786  -0.34318  -0.33918
 Alpha  occ. eigenvalues --   -0.33899  -0.33189  -0.32406  -0.32347  -0.31960
 Alpha  occ. eigenvalues --   -0.31816  -0.31270  -0.30449  -0.29775  -0.29380
 Alpha  occ. eigenvalues --   -0.29230  -0.27819
 Alpha virt. eigenvalues --   -0.10805  -0.10362  -0.09518  -0.08701  -0.07705
 Alpha virt. eigenvalues --   -0.06628  -0.06123  -0.05749  -0.04593  -0.03094
 Alpha virt. eigenvalues --   -0.02833  -0.02309  -0.01335  -0.01247  -0.00722

 Mulliken charges:
               1
     1  N   -0.751015
     2  H    0.413304
     3  H    0.428443
     4  H    0.411084
     5  C   -0.113100
     6  H    0.211063
     7  C    0.653164
     8  C   -0.381512
     9  H    0.177783
    10  H    0.179477
    11  O   -0.551189
    12  C    0.148819
    13  C   -0.188289
    14  H    0.139006
    15  C   -0.189436
    16  H    0.125562
    17  C   -0.135365
    18  H    0.165219
    19  C   -0.109561
    20  H    0.150318
    21  C   -0.112344
    22  H    0.164837
    23  N   -0.592618
    24  H    0.382315
    25  C   -0.065897
    26  H    0.189646
    27  C    0.630279
    28  C   -0.043419
    29  H    0.186890
    30  H    0.138163
    31  O   -0.555542
    32  O   -0.681864
    33  H    0.456044
    34  N   -0.584409
    35  H    0.367918
    36  C   -0.103892
    37  H    0.203890
    38  C    0.616848
    39  C   -0.032856
    40  H    0.161998
    41  H    0.145962
    42  O   -0.516767
    43  O   -0.622286
    44  H    0.405742
    45  N   -0.637328
    46  H    0.376451
    47  C   -0.021701
    48  H    0.181585
    49  C    0.592956
    50  C   -0.350970
    51  H    0.192123
    52  H    0.151684
    53  O   -0.537695
    54  C    0.584336
    55  O   -0.646132
    56  O   -0.548820
    57  N   -0.605859
    58  H    0.365242
    59  C   -0.044092
    60  H    0.191383
    61  C    0.621895
    62  C   -0.281963
    63  H    0.157872
    64  H    0.167082
    65  O   -0.523458
    66  C   -0.262647
    67  H    0.144300
    68  H    0.156461
    69  C   -0.170008
    70  H    0.178913
    71  H    0.215727
    72  N   -0.597264
    73  H    0.353989
    74  N   -0.769847
    75  H    0.367712
    76  H    0.446111
    77  N   -0.766734
    78  H    0.373785
    79  H    0.376092
    80  C    0.796616
    81  O   -0.613847
    82  H    0.463638
 Sum of Mulliken charges =   1.00000

 Dipole moment (field-independent basis, Debye):
    X=              5.0679    Y=             25.6451    Z=              4.9689  Tot=             26.6092
 Quadrupole moment (field-independent basis, Debye-Ang):
   XX=            -63.1466   YY=           -103.9355   ZZ=           -131.3799
   XY=             85.2649   XZ=            138.2872   YZ=             52.6761

 Normal termination of Gaussian 16 at Mon May 16 19:14:24 2022.
