 Gaussian 16, Revision C.01,
 Gaussian 16:  ES64L-G16RevC.01  3-Jul-2019

 ----------------------------------------------------------------------
 # B3LYP/6-31G* empiricaldispersion=gd3 guess=read geom=check nosymm in
 tegral(ultrafinegrid)
 ----------------------------------------------------------------------

 ------------------------------------------------------
 Candidate Structure: Conf:669 Charge calc in gas phase
 ------------------------------------------------------
 Structure from the checkpoint file:  "conf-669.chk"
 Charge =  1 Multiplicity = 1

                          Input orientation:
 ---------------------------------------------------------------------
 Center     Atomic      Atomic             Coordinates (Angstroms)
 Number     Number       Type             X           Y           Z
 ---------------------------------------------------------------------
      1          7           0       -3.614653    0.568694   -5.021313
      2          1           0       -2.703067    0.527996   -4.454766
      3          1           0       -3.510575   -0.115031   -5.781073
      4          1           0       -3.810452    1.487803   -5.429824
      5          6           0       -4.753802    0.084065   -4.143908
      6          1           0       -4.856276    0.822209   -3.345604
      7          6           0       -4.161783   -1.256011   -3.643437
      8          6           0       -6.040934   -0.042939   -4.962233
      9          1           0       -5.919020   -0.882868   -5.656867
     10          1           0       -6.835751   -0.326005   -4.262006
     11          8           0       -3.996761   -2.156840   -4.460649
     12          6           0       -6.383197    1.239660   -5.693921
     13          6           0       -6.947921    2.325435   -5.008866
     14          1           0       -7.202155    2.225882   -3.955623
     15          6           0       -6.081478    1.383860   -7.056466
     16          1           0       -5.669443    0.541309   -7.609351
     17          6           0       -7.209074    3.525045   -5.670730
     18          1           0       -7.656620    4.353639   -5.129588
     19          6           0       -6.341853    2.585069   -7.720849
     20          1           0       -6.115296    2.676573   -8.779228
     21          6           0       -6.904132    3.658122   -7.027872
     22          1           0       -7.111673    4.590951   -7.543713
     23          7           0       -3.681568   -1.246664   -2.383966
     24          1           0       -3.781199   -0.387993   -1.846580
     25          6           0       -2.401166   -1.869413   -2.065080
     26          1           0       -2.505423   -2.961601   -2.034904
     27          6           0       -2.046615   -1.336066   -0.660409
     28          6           0       -1.351670   -1.486344   -3.150091
     29          1           0       -1.495967   -2.143577   -4.014550
     30          1           0       -0.340700   -1.671398   -2.765604
     31          8           0       -2.565494   -0.316525   -0.227140
     32          8           0       -1.467326   -0.127996   -3.550228
     33          1           0       -0.552736    0.291854   -3.447524
     34          7           0       -1.140678   -2.089258    0.018109
     35          1           0       -0.746259   -2.904788   -0.438717
     36          6           0       -0.449478   -1.647791    1.224039
     37          1           0       -0.858019   -0.659379    1.448609
     38          6           0        1.035352   -1.565152    0.871154
     39          6           0       -0.653469   -2.567166    2.430437
     40          1           0       -0.198908   -3.543529    2.247261
     41          1           0       -1.722308   -2.700254    2.638717
     42          8           0        1.717794   -2.618903    0.836236
     43          8           0        0.038132   -2.022838    3.566450
     44          1           0       -0.474553   -1.260124    3.882968
     45          7           0        1.423189   -0.334051    0.591398
     46          1           0        0.739846    0.389401    0.069518
     47          6           0        2.704898   -0.073058   -0.005339
     48          1           0        3.289375   -1.002873   -0.024461
     49          6           0        3.479679    0.945149    0.847079
     50          6           0        2.489928    0.424205   -1.482022
     51          1           0        3.112290    1.299448   -1.700789
     52          1           0        2.793958   -0.355423   -2.186260
     53          8           0        2.981209    1.520201    1.818388
     54          6           0        1.031735    0.802213   -1.836467
     55          8           0        0.748296    0.878302   -3.048324
     56          8           0        0.228973    1.014817   -0.874584
     57          7           0        4.773985    1.129554    0.482948
     58          1           0        5.085738    0.696812   -0.377393
     59          6           0        5.629032    2.181971    1.020044
     60          1           0        4.981498    3.016196    1.320245
     61          6           0        6.573140    2.752975   -0.042388
     62          6           0        6.463991    1.761747    2.258288
     63          1           0        7.215423    2.540594    2.404287
     64          1           0        7.019232    0.848246    1.997966
     65          8           0        7.418697    3.578710    0.204375
     66          6           0        5.646040    1.570651    3.559554
     67          1           0        4.606425    1.843465    3.363288
     68          1           0        6.012520    2.240909    4.344036
     69          6           0        5.651582    0.146384    4.131021
     70          1           0        6.657450   -0.132149    4.465871
     71          1           0        4.987247    0.082958    4.997522
     72          7           0        5.235563   -0.903823    3.172556
     73          1           0        5.958257   -1.290448    2.581948
     74          7           0        2.954871   -0.850593    3.581662
     75          1           0        2.061558   -1.354751    3.607917
     76          1           0        2.866068    0.148448    3.382479
     77          7           0        3.856364   -2.660571    2.476198
     78          1           0        4.655839   -3.239638    2.270015
     79          1           0        2.982520   -2.812718    1.955070
     80          6           0        4.016773   -1.477276    3.077043
     81          8           0        6.363507    2.247161   -1.281573
     82          1           0        7.003645    2.683231   -1.876928
 ---------------------------------------------------------------------

 SCF Done:  E(RB3LYP) =  -2166.37490347     A.U. after    1 cycles

 Alpha  occ. eigenvalues --  -19.29482 -19.25121 -19.23039 -19.22658 -19.22637
 Alpha  occ. eigenvalues --  -19.21206 -19.21023 -19.20160 -19.18673 -19.18055
 Alpha  occ. eigenvalues --  -14.55228 -14.49000 -14.46786 -14.46361 -14.45903
 Alpha  occ. eigenvalues --  -14.45781 -14.45547 -14.40287 -10.43942 -10.41545
 Alpha  occ. eigenvalues --  -10.39685 -10.38246 -10.38210 -10.36843 -10.36641
 Alpha  occ. eigenvalues --  -10.36383 -10.33682 -10.33226 -10.33072 -10.32696
 Alpha  occ. eigenvalues --  -10.32139 -10.31670 -10.31265 -10.30283 -10.29422
 Alpha  occ. eigenvalues --  -10.28457 -10.28295 -10.28072 -10.27829 -10.27745
 Alpha  occ. eigenvalues --  -10.27738 -10.27548 -10.27539  -1.20060  -1.15150
 Alpha  occ. eigenvalues --   -1.13500  -1.13102  -1.12875  -1.12506  -1.11794
 Alpha  occ. eigenvalues --   -1.10994  -1.10797  -1.10219  -1.09317  -1.04525
 Alpha  occ. eigenvalues --   -1.02665  -1.02532  -1.02125  -1.01905  -1.00090
 Alpha  occ. eigenvalues --   -0.99168  -0.94897  -0.89791  -0.89642  -0.87402
 Alpha  occ. eigenvalues --   -0.85984  -0.84417  -0.83417  -0.83274  -0.82181
 Alpha  occ. eigenvalues --   -0.78738  -0.76727  -0.76205  -0.74966  -0.74325
 Alpha  occ. eigenvalues --   -0.72663  -0.71317  -0.70539  -0.69835  -0.69587
 Alpha  occ. eigenvalues --   -0.69228  -0.68496  -0.68286  -0.68077  -0.66995
 Alpha  occ. eigenvalues --   -0.66653  -0.66321  -0.65497  -0.64468  -0.62823
 Alpha  occ. eigenvalues --   -0.61898  -0.61724  -0.61194  -0.60657  -0.60418
 Alpha  occ. eigenvalues --   -0.59695  -0.59283  -0.58818  -0.58212  -0.57682
 Alpha  occ. eigenvalues --   -0.57327  -0.57030  -0.56436  -0.55856  -0.55191
 Alpha  occ. eigenvalues --   -0.55120  -0.54555  -0.54467  -0.54232  -0.53824
 Alpha  occ. eigenvalues --   -0.53518  -0.53372  -0.52525  -0.52360  -0.52181
 Alpha  occ. eigenvalues --   -0.51977  -0.51350  -0.51233  -0.50826  -0.50606
 Alpha  occ. eigenvalues --   -0.50351  -0.50107  -0.49408  -0.49214  -0.48721
 Alpha  occ. eigenvalues --   -0.48587  -0.48369  -0.47592  -0.47485  -0.46943
 Alpha  occ. eigenvalues --   -0.46409  -0.46077  -0.45230  -0.45067  -0.44661
 Alpha  occ. eigenvalues --   -0.44392  -0.43998  -0.43662  -0.43244  -0.43057
 Alpha  occ. eigenvalues --   -0.42951  -0.42930  -0.42583  -0.40971  -0.39260
 Alpha  occ. eigenvalues --   -0.38342  -0.37870  -0.37429  -0.37389  -0.36974
 Alpha  occ. eigenvalues --   -0.36278  -0.35523  -0.35075  -0.34833  -0.34530
 Alpha  occ. eigenvalues --   -0.34306  -0.34061  -0.33560  -0.33108  -0.32895
 Alpha  occ. eigenvalues --   -0.32225  -0.31694
 Alpha virt. eigenvalues --   -0.10703  -0.10292  -0.09456  -0.09296  -0.08488
 Alpha virt. eigenvalues --   -0.08003  -0.07218  -0.05626  -0.04954  -0.04874
 Alpha virt. eigenvalues --   -0.03821  -0.02238  -0.01945  -0.01730  -0.00691

 Mulliken charges:
               1
     1  N   -0.760360
     2  H    0.457248
     3  H    0.401732
     4  H    0.403166
     5  C   -0.101480
     6  H    0.199938
     7  C    0.610581
     8  C   -0.369161
     9  H    0.195070
    10  H    0.195645
    11  O   -0.511753
    12  C    0.132208
    13  C   -0.183565
    14  H    0.142192
    15  C   -0.216958
    16  H    0.138956
    17  C   -0.124347
    18  H    0.158488
    19  C   -0.122580
    20  H    0.157143
    21  C   -0.126262
    22  H    0.159191
    23  N   -0.587749
    24  H    0.365970
    25  C   -0.063155
    26  H    0.183974
    27  C    0.638555
    28  C   -0.056112
    29  H    0.176732
    30  H    0.148885
    31  O   -0.508578
    32  O   -0.703157
    33  H    0.475192
    34  N   -0.626810
    35  H    0.342736
    36  C   -0.060550
    37  H    0.196660
    38  C    0.582401
    39  C   -0.053038
    40  H    0.176735
    41  H    0.160171
    42  O   -0.612092
    43  O   -0.619877
    44  H    0.410962
    45  N   -0.589986
    46  H    0.465183
    47  C   -0.088423
    48  H    0.164045
    49  C    0.621623
    50  C   -0.408217
    51  H    0.188015
    52  H    0.176786
    53  O   -0.534064
    54  C    0.607695
    55  O   -0.589746
    56  O   -0.578130
    57  N   -0.609226
    58  H    0.352644
    59  C   -0.056696
    60  H    0.219499
    61  C    0.589884
    62  C   -0.270724
    63  H    0.199810
    64  H    0.123394
    65  O   -0.437174
    66  C   -0.291547
    67  H    0.193923
    68  H    0.170934
    69  C   -0.171647
    70  H    0.178189
    71  H    0.194395
    72  N   -0.583231
    73  H    0.345564
    74  N   -0.772399
    75  H    0.397757
    76  H    0.399055
    77  N   -0.771301
    78  H    0.350306
    79  H    0.429715
    80  C    0.732560
    81  O   -0.582898
    82  H    0.431486
 Sum of Mulliken charges =   1.00000

 Dipole moment (field-independent basis, Debye):
    X=              2.8025    Y=             -1.5583    Z=             -5.9866  Tot=              6.7913
 Quadrupole moment (field-independent basis, Debye-Ang):
   XX=           -101.0511   YY=           -233.8418   ZZ=           -143.2322
   XY=            -35.3155   XZ=             84.1052   YZ=            -30.8075

 Normal termination of Gaussian 16 at Mon May 16 19:20:04 2022.
