 Gaussian 16, Revision C.01,
 Gaussian 16:  ES64L-G16RevC.01  3-Jul-2019

 ----------------------------------------------------------------------
 # B3LYP/6-31G* empiricaldispersion=gd3 guess=read geom=check nosymm in
 tegral(ultrafinegrid)
 ----------------------------------------------------------------------

 ------------------------------------------------------
 Candidate Structure: Conf:797 Charge calc in gas phase
 ------------------------------------------------------
 Structure from the checkpoint file:  "conf-797.chk"
 Charge =  1 Multiplicity = 1

                          Input orientation:
 ---------------------------------------------------------------------
 Center     Atomic      Atomic             Coordinates (Angstroms)
 Number     Number       Type             X           Y           Z
 ---------------------------------------------------------------------
      1          7           0       -0.989816   -0.375170   -4.851335
      2          1           0       -0.426489    0.085128   -5.569981
      3          1           0       -0.352548   -0.971754   -4.216501
      4          1           0       -1.703555   -0.951925   -5.303482
      5          6           0       -1.565505    0.578539   -3.824200
      6          1           0       -1.448365    1.600035   -4.190376
      7          6           0       -0.678622    0.295767   -2.583877
      8          6           0       -3.052745    0.243548   -3.555998
      9          1           0       -3.583179    0.285214   -4.518143
     10          1           0       -3.116369   -0.780102   -3.166665
     11          8           0        0.034615   -0.723704   -2.631327
     12          6           0       -3.680206    1.216059   -2.574696
     13          6           0       -4.084237    0.788467   -1.304339
     14          1           0       -3.962267   -0.253463   -1.024793
     15          6           0       -3.820287    2.569417   -2.920274
     16          1           0       -3.527291    2.912272   -3.911653
     17          6           0       -4.613704    1.704467   -0.392985
     18          1           0       -4.904685    1.362984    0.595596
     19          6           0       -4.342109    3.483042   -2.005113
     20          1           0       -4.440361    4.528834   -2.280883
     21          6           0       -4.739090    3.050187   -0.737286
     22          1           0       -5.139130    3.762175   -0.021599
     23          7           0       -0.786908    1.124172   -1.554626
     24          1           0       -1.481018    1.869959   -1.576499
     25          6           0       -0.324291    0.792483   -0.195471
     26          1           0        0.668763    0.341785   -0.255741
     27          6           0       -1.350724   -0.191422    0.409712
     28          6           0       -0.282849    2.085468    0.617253
     29          1           0        0.502042    2.738797    0.225044
     30          1           0       -0.046660    1.825791    1.655975
     31          8           0       -2.185735    0.164500    1.244203
     32          8           0       -1.509857    2.791679    0.493864
     33          1           0       -2.172938    2.221545    0.927996
     34          7           0       -1.277341   -1.435642   -0.112893
     35          1           0       -0.416505   -1.674704   -0.597312
     36          6           0       -2.013023   -2.572663    0.414822
     37          1           0       -2.768193   -2.180096    1.101496
     38          6           0       -0.993721   -3.475217    1.157505
     39          6           0       -2.685439   -3.353319   -0.714108
     40          1           0       -3.216424   -4.209832   -0.287073
     41          1           0       -1.920056   -3.748149   -1.392701
     42          8           0       -0.839256   -4.645901    0.833936
     43          8           0       -3.571960   -2.480726   -1.433128
     44          1           0       -4.423013   -2.928986   -1.533632
     45          7           0       -0.277721   -2.809728    2.117233
     46          1           0       -0.569535   -1.845443    2.268273
     47          6           0        1.165644   -2.909126    2.352678
     48          1           0        1.343061   -3.253428    3.381104
     49          6           0        1.690790   -1.437836    2.276051
     50          6           0        1.920266   -3.879685    1.409408
     51          1           0        2.803264   -4.280968    1.912982
     52          1           0        1.259436   -4.725004    1.186453
     53          8           0        0.901443   -0.504805    2.430599
     54          6           0        2.390989   -3.228165    0.122445
     55          8           0        1.493020   -2.416054   -0.452378
     56          8           0        3.538942   -3.340590   -0.269137
     57          7           0        3.018695   -1.256797    2.059240
     58          1           0        3.570154   -2.052899    1.756776
     59          6           0        3.545781    0.041805    1.644212
     60          1           0        2.809659    0.784119    1.961218
     61          6           0        3.704630    0.124940    0.055751
     62          6           0        4.922340    0.325549    2.206244
     63          1           0        5.158348    1.308480    1.802632
     64          1           0        5.589955   -0.396680    1.719711
     65          8           0        4.795085    0.559364   -0.390443
     66          6           0        5.325599    0.358013    3.667189
     67          1           0        5.119737   -0.587425    4.182436
     68          1           0        4.825312    1.157247    4.227626
     69          6           0        6.853697    0.565324    3.645216
     70          1           0        7.275139    0.633439    4.652349
     71          1           0        7.331672   -0.279796    3.140435
     72          7           0        7.299737    1.796996    2.942081
     73          1           0        7.418232    2.608197    3.535081
     74          7           0        7.333006    1.211343    0.637358
     75          1           0        7.869981    1.305811   -0.216319
     76          1           0        6.363600    0.855662    0.476214
     77          7           0        8.596399    2.972163    1.446657
     78          1           0        9.139154    3.376933    2.196377
     79          1           0        8.702780    3.373437    0.525547
     80          6           0        7.713474    1.970462    1.671408
     81          8           0        2.708703   -0.247066   -0.626392
     82          1           0        2.017911   -1.592692   -0.761183
 ---------------------------------------------------------------------

 SCF Done:  E(RB3LYP) =  -2166.35741431     A.U. after    1 cycles

 Alpha  occ. eigenvalues --  -19.24444 -19.23130 -19.21903 -19.20236 -19.19201
 Alpha  occ. eigenvalues --  -19.19164 -19.18329 -19.18116 -19.15986 -19.15508
 Alpha  occ. eigenvalues --  -14.57457 -14.50619 -14.50532 -14.48019 -14.46689
 Alpha  occ. eigenvalues --  -14.43202 -14.42470 -14.41087 -10.46430 -10.40792
 Alpha  occ. eigenvalues --  -10.38350 -10.36530 -10.36219 -10.35898 -10.35251
 Alpha  occ. eigenvalues --  -10.34086 -10.34028 -10.31266 -10.31025 -10.30583
 Alpha  occ. eigenvalues --  -10.29910 -10.29715 -10.29381 -10.28966 -10.28458
 Alpha  occ. eigenvalues --  -10.28097 -10.27342 -10.26731 -10.26374 -10.26212
 Alpha  occ. eigenvalues --  -10.26175 -10.26111 -10.25555  -1.16898  -1.14304
 Alpha  occ. eigenvalues --   -1.13933  -1.11503  -1.11186  -1.10859  -1.09983
 Alpha  occ. eigenvalues --   -1.09561  -1.08768  -1.07638  -1.05089  -1.04014
 Alpha  occ. eigenvalues --   -1.03253  -1.01982  -1.00286  -1.00027  -0.99444
 Alpha  occ. eigenvalues --   -0.97827  -0.94225  -0.90238  -0.89610  -0.85680
 Alpha  occ. eigenvalues --   -0.84722  -0.83116  -0.82499  -0.82106  -0.81377
 Alpha  occ. eigenvalues --   -0.77967  -0.77144  -0.75663  -0.74222  -0.72233
 Alpha  occ. eigenvalues --   -0.71746  -0.71554  -0.70828  -0.70391  -0.69269
 Alpha  occ. eigenvalues --   -0.68628  -0.68138  -0.67440  -0.66431  -0.66018
 Alpha  occ. eigenvalues --   -0.65911  -0.65227  -0.63708  -0.63470  -0.62642
 Alpha  occ. eigenvalues --   -0.62018  -0.61520  -0.60423  -0.60052  -0.58782
 Alpha  occ. eigenvalues --   -0.58718  -0.58459  -0.57526  -0.57265  -0.56295
 Alpha  occ. eigenvalues --   -0.56004  -0.55686  -0.54955  -0.54752  -0.54514
 Alpha  occ. eigenvalues --   -0.53799  -0.53424  -0.53358  -0.52941  -0.52715
 Alpha  occ. eigenvalues --   -0.52159  -0.51019  -0.50823  -0.50711  -0.50212
 Alpha  occ. eigenvalues --   -0.49942  -0.49662  -0.49426  -0.49226  -0.48904
 Alpha  occ. eigenvalues --   -0.48560  -0.48404  -0.47949  -0.47849  -0.47619
 Alpha  occ. eigenvalues --   -0.47509  -0.46648  -0.46170  -0.45777  -0.45257
 Alpha  occ. eigenvalues --   -0.44353  -0.43969  -0.43738  -0.43365  -0.43264
 Alpha  occ. eigenvalues --   -0.42965  -0.42734  -0.42614  -0.42044  -0.41716
 Alpha  occ. eigenvalues --   -0.40740  -0.40688  -0.39893  -0.39801  -0.39242
 Alpha  occ. eigenvalues --   -0.38981  -0.37835  -0.36120  -0.35622  -0.34807
 Alpha  occ. eigenvalues --   -0.34291  -0.33764  -0.33238  -0.32606  -0.32505
 Alpha  occ. eigenvalues --   -0.32151  -0.31779  -0.31439  -0.30790  -0.30216
 Alpha  occ. eigenvalues --   -0.29749  -0.28974
 Alpha virt. eigenvalues --   -0.11819  -0.10349  -0.08993  -0.08552  -0.08045
 Alpha virt. eigenvalues --   -0.06731  -0.06223  -0.05734  -0.04211  -0.04006
 Alpha virt. eigenvalues --   -0.03082  -0.02949  -0.01666  -0.01361  -0.01224

 Mulliken charges:
               1
     1  N   -0.763138
     2  H    0.410701
     3  H    0.438159
     4  H    0.409507
     5  C   -0.111425
     6  H    0.210671
     7  C    0.674985
     8  C   -0.395060
     9  H    0.169631
    10  H    0.216049
    11  O   -0.554211
    12  C    0.112701
    13  C   -0.192434
    14  H    0.194073
    15  C   -0.194709
    16  H    0.121901
    17  C   -0.142192
    18  H    0.162245
    19  C   -0.117695
    20  H    0.150972
    21  C   -0.113526
    22  H    0.154971
    23  N   -0.583948
    24  H    0.375871
    25  C   -0.143535
    26  H    0.245322
    27  C    0.646788
    28  C   -0.064713
    29  H    0.152277
    30  H    0.184194
    31  O   -0.560440
    32  O   -0.646701
    33  H    0.426059
    34  N   -0.618312
    35  H    0.413726
    36  C   -0.099527
    37  H    0.197827
    38  C    0.615450
    39  C   -0.045940
    40  H    0.165567
    41  H    0.156826
    42  O   -0.511615
    43  O   -0.621634
    44  H    0.409448
    45  N   -0.616975
    46  H    0.374951
    47  C   -0.025414
    48  H    0.185066
    49  C    0.604480
    50  C   -0.416970
    51  H    0.170215
    52  H    0.245862
    53  O   -0.543984
    54  C    0.573043
    55  O   -0.635456
    56  O   -0.473593
    57  N   -0.600150
    58  H    0.347684
    59  C   -0.088753
    60  H    0.183492
    61  C    0.629774
    62  C   -0.290576
    63  H    0.148670
    64  H    0.147296
    65  O   -0.569001
    66  C   -0.255861
    67  H    0.168047
    68  H    0.154549
    69  C   -0.167558
    70  H    0.181386
    71  H    0.194261
    72  N   -0.590862
    73  H    0.357177
    74  N   -0.765127
    75  H    0.362321
    76  H    0.444687
    77  N   -0.757071
    78  H    0.372485
    79  H    0.377186
    80  C    0.769239
    81  O   -0.614665
    82  H    0.484980
 Sum of Mulliken charges =   1.00000

 Dipole moment (field-independent basis, Debye):
    X=             14.8559    Y=              8.4532    Z=             -5.8558  Tot=             18.0678
 Quadrupole moment (field-independent basis, Debye-Ang):
   XX=            -29.5179   YY=           -226.0207   ZZ=           -140.9155
   XY=             73.5199   XZ=             90.4425   YZ=              8.8063

 Normal termination of Gaussian 16 at Mon May 16 19:20:04 2022.
