 Gaussian 16, Revision C.01,
 Gaussian 16:  ES64L-G16RevC.01  3-Jul-2019

 ----------------------------------------------------------------------
 # B3LYP/6-31G* empiricaldispersion=gd3 guess=read geom=check nosymm in
 tegral(ultrafinegrid)
 ----------------------------------------------------------------------

 ------------------------------------------------------
 Candidate Structure: Conf:497 Charge calc in gas phase
 ------------------------------------------------------
 Structure from the checkpoint file:  "conf-497.chk"
 Charge =  1 Multiplicity = 1

                          Input orientation:
 ---------------------------------------------------------------------
 Center     Atomic      Atomic             Coordinates (Angstroms)
 Number     Number       Type             X           Y           Z
 ---------------------------------------------------------------------
      1          7           0       -4.824152   -0.084228   -3.766470
      2          1           0       -5.097292   -0.034668   -4.751421
      3          1           0       -4.909496   -1.081642   -3.447789
      4          1           0       -5.410329    0.561800   -3.220678
      5          6           0       -3.352008    0.196270   -3.551796
      6          1           0       -3.003657    0.916976   -4.290785
      7          6           0       -2.693805   -1.186937   -3.675565
      8          6           0       -3.154854    0.746391   -2.124990
      9          1           0       -3.526238    0.003806   -1.408084
     10          1           0       -2.075907    0.826624   -1.989467
     11          8           0       -3.385183   -2.176721   -3.385989
     12          6           0       -3.843767    2.080421   -1.965213
     13          6           0       -5.089021    2.181380   -1.327724
     14          1           0       -5.521708    1.304892   -0.845421
     15          6           0       -3.267489    3.228290   -2.533214
     16          1           0       -2.301510    3.136347   -3.026189
     17          6           0       -5.754340    3.410837   -1.257825
     18          1           0       -6.714069    3.479438   -0.753123
     19          6           0       -3.930223    4.451833   -2.456401
     20          1           0       -3.475094    5.337952   -2.890257
     21          6           0       -5.175364    4.545857   -1.823927
     22          1           0       -5.687024    5.502526   -1.768558
     23          7           0       -1.420426   -1.149735   -4.050958
     24          1           0       -1.016813   -0.203338   -4.190998
     25          6           0       -0.476967   -2.211294   -3.750233
     26          1           0       -1.048707   -3.125568   -3.552122
     27          6           0        0.189002   -1.841539   -2.398473
     28          6           0        0.439834   -2.453976   -4.972780
     29          1           0       -0.148967   -3.017413   -5.706195
     30          1           0        1.264929   -3.131450   -4.672569
     31          8           0       -0.455925   -1.221007   -1.543115
     32          8           0        0.882841   -1.292752   -5.604810
     33          1           0        1.150309   -0.611798   -4.932589
     34          7           0        1.445532   -2.277066   -2.167281
     35          1           0        1.986105   -2.665621   -2.926885
     36          6           0        2.136299   -2.040611   -0.899835
     37          1           0        1.384493   -2.148590   -0.110152
     38          6           0        2.724303   -0.612018   -0.855556
     39          6           0        3.237629   -3.074854   -0.697098
     40          1           0        3.757279   -2.844866    0.245178
     41          1           0        3.982205   -2.974503   -1.501068
     42          8           0        3.946722   -0.418787   -0.847329
     43          8           0        2.623126   -4.352987   -0.680987
     44          1           0        3.322145   -5.023773   -0.672167
     45          7           0        1.805751    0.381816   -0.839434
     46          1           0        0.836826    0.076045   -0.941670
     47          6           0        2.133359    1.716421   -1.382967
     48          1           0        2.956077    1.576090   -2.090745
     49          6           0        2.608143    2.590272   -0.216184
     50          6           0        0.931892    2.279368   -2.132041
     51          1           0        0.084374    2.431135   -1.455142
     52          1           0        1.182926    3.270256   -2.527584
     53          8           0        1.929010    3.447729    0.337968
     54          6           0        0.516487    1.355988   -3.298863
     55          8           0       -0.651183    1.502000   -3.761029
     56          8           0        1.364906    0.497796   -3.664710
     57          7           0        3.873329    2.263669    0.194083
     58          1           0        4.294553    1.430675   -0.221846
     59          6           0        4.346717    2.712599    1.481272
     60          1           0        4.199175    3.799549    1.548431
     61          6           0        5.845137    2.462466    1.543200
     62          6           0        3.555356    2.062002    2.638841
     63          1           0        2.519756    2.385530    2.511930
     64          1           0        3.900508    2.488770    3.587006
     65          8           0        6.561354    2.162851    0.627993
     66          6           0        3.648372    0.517133    2.639918
     67          1           0        4.459770    0.168881    1.985592
     68          1           0        2.740613    0.077326    2.215594
     69          6           0        3.862701   -0.065808    4.042106
     70          1           0        3.017753    0.173578    4.695504
     71          1           0        3.976609   -1.153452    4.007874
     72          7           0        5.081902    0.539880    4.627818
     73          1           0        5.770451    0.837166    3.941372
     74          7           0        4.379105    0.863995    6.819505
     75          1           0        4.238778    1.477573    7.609500
     76          1           0        3.980416   -0.062955    6.867530
     77          7           0        5.929142    2.304222    5.853980
     78          1           0        6.212899    2.776018    5.001046
     79          1           0        6.188950    2.707204    6.743171
     80          6           0        5.124896    1.233930    5.767616
     81          8           0        6.378987    2.607233    2.825649
     82          1           0        7.343916    2.526432    2.684597
 ---------------------------------------------------------------------

 SCF Done:  E(RB3LYP) =  -2166.37758738     A.U. after    1 cycles

 Alpha  occ. eigenvalues --  -19.32586 -19.25917 -19.21528 -19.20077 -19.19370
 Alpha  occ. eigenvalues --  -19.18553 -19.18297 -19.15613 -19.13943 -19.13915
 Alpha  occ. eigenvalues --  -14.54667 -14.53776 -14.53131 -14.52447 -14.43283
 Alpha  occ. eigenvalues --  -14.42345 -14.41824 -14.41783 -10.49541 -10.43633
 Alpha  occ. eigenvalues --  -10.36604 -10.36487 -10.35774 -10.35731 -10.34981
 Alpha  occ. eigenvalues --  -10.33915 -10.33800 -10.32015 -10.30728 -10.30701
 Alpha  occ. eigenvalues --  -10.30548 -10.29609 -10.29332 -10.28635 -10.28245
 Alpha  occ. eigenvalues --  -10.27073 -10.26910 -10.26337 -10.25975 -10.25592
 Alpha  occ. eigenvalues --  -10.25522 -10.24963 -10.23316  -1.22354  -1.18034
 Alpha  occ. eigenvalues --   -1.13605  -1.12563  -1.11169  -1.10325  -1.09871
 Alpha  occ. eigenvalues --   -1.08909  -1.08225  -1.07212  -1.07109  -1.06333
 Alpha  occ. eigenvalues --   -1.04077  -1.00284  -0.99826  -0.99189  -0.98531
 Alpha  occ. eigenvalues --   -0.97808  -0.92611  -0.91531  -0.87533  -0.86979
 Alpha  occ. eigenvalues --   -0.84740  -0.82566  -0.81783  -0.81135  -0.81077
 Alpha  occ. eigenvalues --   -0.79436  -0.79281  -0.75403  -0.73930  -0.73758
 Alpha  occ. eigenvalues --   -0.73514  -0.71838  -0.71285  -0.69990  -0.68643
 Alpha  occ. eigenvalues --   -0.68485  -0.68194  -0.67298  -0.66999  -0.66615
 Alpha  occ. eigenvalues --   -0.66357  -0.65159  -0.65049  -0.64458  -0.63996
 Alpha  occ. eigenvalues --   -0.61773  -0.61480  -0.60970  -0.60244  -0.59686
 Alpha  occ. eigenvalues --   -0.59551  -0.58189  -0.57897  -0.57327  -0.57135
 Alpha  occ. eigenvalues --   -0.56378  -0.56282  -0.55742  -0.55113  -0.54948
 Alpha  occ. eigenvalues --   -0.54589  -0.53861  -0.53538  -0.52626  -0.52377
 Alpha  occ. eigenvalues --   -0.52271  -0.51701  -0.51244  -0.51029  -0.50470
 Alpha  occ. eigenvalues --   -0.49852  -0.49316  -0.48844  -0.48644  -0.48580
 Alpha  occ. eigenvalues --   -0.48161  -0.47686  -0.47590  -0.47135  -0.46782
 Alpha  occ. eigenvalues --   -0.46639  -0.46181  -0.46044  -0.45815  -0.45437
 Alpha  occ. eigenvalues --   -0.45169  -0.44968  -0.44621  -0.44446  -0.44251
 Alpha  occ. eigenvalues --   -0.43834  -0.43273  -0.43022  -0.42331  -0.41762
 Alpha  occ. eigenvalues --   -0.41017  -0.40717  -0.40538  -0.40226  -0.39676
 Alpha  occ. eigenvalues --   -0.38966  -0.36196  -0.35210  -0.34809  -0.34338
 Alpha  occ. eigenvalues --   -0.33871  -0.33279  -0.32858  -0.32037  -0.31874
 Alpha  occ. eigenvalues --   -0.31344  -0.31238  -0.30636  -0.29584  -0.29236
 Alpha  occ. eigenvalues --   -0.28537  -0.27912
 Alpha virt. eigenvalues --   -0.14347  -0.11038  -0.09045  -0.08072  -0.07602
 Alpha virt. eigenvalues --   -0.06342  -0.05758  -0.05210  -0.04994  -0.04732
 Alpha virt. eigenvalues --   -0.04490  -0.03953  -0.03553  -0.01514  -0.00022

 Mulliken charges:
               1
     1  N   -0.746349
     2  H    0.407762
     3  H    0.412578
     4  H    0.397082
     5  C   -0.125878
     6  H    0.234241
     7  C    0.639558
     8  C   -0.370185
     9  H    0.166723
    10  H    0.236786
    11  O   -0.559871
    12  C    0.121751
    13  C   -0.229404
    14  H    0.130423
    15  C   -0.189850
    16  H    0.193246
    17  C   -0.127107
    18  H    0.145203
    19  C   -0.130577
    20  H    0.151409
    21  C   -0.127012
    22  H    0.147725
    23  N   -0.576252
    24  H    0.405980
    25  C   -0.144583
    26  H    0.204369
    27  C    0.673449
    28  C   -0.009479
    29  H    0.152878
    30  H    0.098862
    31  O   -0.570502
    32  O   -0.648836
    33  H    0.436998
    34  N   -0.583866
    35  H    0.354469
    36  C   -0.077810
    37  H    0.187972
    38  C    0.641552
    39  C   -0.046235
    40  H    0.128155
    41  H    0.153607
    42  O   -0.557775
    43  O   -0.616231
    44  H    0.404281
    45  N   -0.620962
    46  H    0.385196
    47  C   -0.060786
    48  H    0.199637
    49  C    0.630843
    50  C   -0.399451
    51  H    0.167393
    52  H    0.180011
    53  O   -0.531952
    54  C    0.630928
    55  O   -0.614129
    56  O   -0.602477
    57  N   -0.622316
    58  H    0.386210
    59  C   -0.042551
    60  H    0.215496
    61  C    0.584480
    62  C   -0.294102
    63  H    0.214861
    64  H    0.123576
    65  O   -0.401201
    66  C   -0.318269
    67  H    0.177496
    68  H    0.196285
    69  C   -0.170367
    70  H    0.178482
    71  H    0.195445
    72  N   -0.574743
    73  H    0.372359
    74  N   -0.739807
    75  H    0.385362
    76  H    0.391837
    77  N   -0.767150
    78  H    0.405131
    79  H    0.379351
    80  C    0.779554
    81  O   -0.636103
    82  H    0.427175
 Sum of Mulliken charges =   1.00000

 Dipole moment (field-independent basis, Debye):
    X=              9.6899    Y=              3.8786    Z=             21.3943  Tot=             23.8044
 Quadrupole moment (field-independent basis, Debye-Ang):
   XX=            -66.9813   YY=           -221.7767   ZZ=            -96.7806
   XY=             10.9896   XZ=            170.3459   YZ=             34.6639

 Normal termination of Gaussian 16 at Mon May 16 19:20:08 2022.
