 Gaussian 16, Revision C.01,
 Gaussian 16:  ES64L-G16RevC.01  3-Jul-2019

 ----------------------------------------------------------------------
 # B3LYP/6-31G* empiricaldispersion=gd3bj guess=read geom=check nosymm
 integral(ultrafinegrid)
 ----------------------------------------------------------------------

 ------------------------------------------------------
 Candidate Structure: Conf:102 Charge calc in gas phase
 ------------------------------------------------------
 Structure from the checkpoint file:  "conf-102.chk"
 Charge =  1 Multiplicity = 1

                          Input orientation:
 ---------------------------------------------------------------------
 Center     Atomic      Atomic             Coordinates (Angstroms)
 Number     Number       Type             X           Y           Z
 ---------------------------------------------------------------------
      1          7           0       -4.378202   -1.679433    1.514298
      2          1           0       -4.694653   -0.979148    2.206690
      3          1           0       -5.146579   -1.787040    0.810277
      4          1           0       -4.148769   -2.563510    1.974577
      5          6           0       -3.236102   -1.111973    0.710326
      6          1           0       -2.746586   -0.364290    1.334898
      7          6           0       -3.942960   -0.420064   -0.470229
      8          6           0       -2.256924   -2.190660    0.251043
      9          1           0       -2.823240   -3.010848   -0.212041
     10          1           0       -1.646912   -1.754236   -0.547072
     11          8           0       -5.112145   -0.715154   -0.739295
     12          6           0       -1.302761   -2.723836    1.335794
     13          1           0       -1.881662   -3.233759    2.125276
     14          6           0       -0.371310   -3.758477    0.689874
     15          1           0        0.205293   -3.288778   -0.115520
     16          1           0       -0.935772   -4.590728    0.254850
     17          1           0        0.326605   -4.170886    1.425325
     18          6           0       -0.495551   -1.588063    1.982165
     19          1           0       -0.018415   -0.967729    1.214267
     20          1           0       -1.114768   -0.929843    2.604133
     21          1           0        0.286245   -1.995256    2.631036
     22          7           0       -3.158835    0.456395   -1.092061
     23          1           0       -2.247267    0.649550   -0.666299
     24          6           0       -3.568420    1.452668   -2.087539
     25          1           0       -4.158478    0.958025   -2.865937
     26          6           0       -2.230641    1.988602   -2.662891
     27          6           0       -4.387583    2.595927   -1.432093
     28          1           0       -4.389997    3.443265   -2.121242
     29          1           0       -5.419554    2.255380   -1.309319
     30          8           0       -2.015469    3.183569   -2.804560
     31          6           0       -3.797728    2.968050   -0.100798
     32          6           0       -2.695330    3.749511    0.120423
     33          1           0       -2.148167    4.363053   -0.579678
     34          6           0       -4.129075    2.359088    1.170356
     35          6           0       -3.147952    2.774736    2.112242
     36          6           0       -5.173944    1.526260    1.604359
     37          1           0       -5.959870    1.228560    0.917734
     38          7           0       -2.255254    3.598397    1.438250
     39          1           0       -1.663378    4.271530    1.907222
     40          6           0       -4.185635    1.499137    3.841088
     41          1           0       -4.233957    1.168285    4.873798
     42          6           0       -3.153788    2.342806    3.441700
     43          1           0       -2.391876    2.665531    4.144966
     44          6           0       -5.196305    1.106230    2.935160
     45          1           0       -6.043897    0.530790    3.303486
     46          7           0       -1.295811    1.013860   -2.871466
     47          1           0       -1.584929    0.057198   -2.679711
     48          6           0        0.102290    1.191988   -2.509565
     49          1           0        0.670057    1.689226   -3.303844
     50          6           0        0.661903   -0.224640   -2.261144
     51          6           0        0.260171    2.023708   -1.220147
     52          1           0       -0.063810    3.047749   -1.418790
     53          1           0        1.315560    2.028717   -0.922683
     54          8           0       -0.096889   -1.170642   -2.012640
     55          8           0       -0.544188    1.430334   -0.189140
     56          1           0       -0.800484    2.126681    0.440254
     57          7           0        1.994612   -0.321224   -2.288311
     58          1           0        2.601440    0.478842   -2.463676
     59          6           0        2.729856   -1.526899   -1.943537
     60          1           0        2.324141   -1.932241   -1.007989
     61          6           0        4.180423   -1.059041   -1.712352
     62          6           0        2.634972   -2.595050   -3.042893
     63          1           0        3.172627   -3.503439   -2.754302
     64          1           0        3.066802   -2.219356   -3.975367
     65          1           0        1.586608   -2.850636   -3.212620
     66          8           0        4.513742    0.100786   -1.967824
     67          7           0        5.023061   -1.995638   -1.247943
     68          1           0        4.715979   -2.939897   -1.039538
     69          6           0        6.446138   -1.764768   -1.055814
     70          1           0        6.827904   -1.163314   -1.883405
     71          6           0        7.133799   -3.119690   -1.046211
     72          6           0        6.729599   -1.026858    0.289614
     73          1           0        6.488269    0.026818    0.121905
     74          1           0        6.010427   -1.404410    1.026855
     75          8           0        8.402650   -3.032426   -1.401737
     76          6           0        8.161168   -1.180849    0.844536
     77          1           0        8.873461   -1.180950    0.014859
     78          1           0        8.395230   -0.298706    1.450431
     79          6           0        8.352219   -2.448872    1.721522
     80          1           0        7.555147   -3.174320    1.520174
     81          1           0        8.226454   -2.164921    2.772466
     82          6           0        9.704267   -3.173493    1.579056
     83          1           0       10.488733   -2.464974    1.292956
     84          1           0        9.997706   -3.605876    2.544851
     85          7           0        9.657936   -4.229913    0.534214
     86          1           0       10.581700   -4.639373    0.402024
     87          1           0        9.041650   -4.984959    0.835830
     88          1           0        8.960598   -3.680864   -0.811879
     89          8           0        6.568197   -4.126022   -0.640913
 ---------------------------------------------------------------------

 SCF Done:  E(RB3LYP) =  -2042.70423862     A.U. after    3 cycles

 Alpha  occ. eigenvalues --  -19.26845 -19.24837 -19.22209 -19.21861 -19.21692
 Alpha  occ. eigenvalues --  -19.19829 -19.19486 -14.57751 -14.48816 -14.47289
 Alpha  occ. eigenvalues --  -14.45150 -14.44418 -14.43686 -14.41821 -10.41363
 Alpha  occ. eigenvalues --  -10.38713 -10.38511 -10.37724 -10.37312 -10.36881
 Alpha  occ. eigenvalues --  -10.34087 -10.33865 -10.33524 -10.33009 -10.32199
 Alpha  occ. eigenvalues --  -10.31877 -10.30337 -10.30076 -10.29960 -10.29924
 Alpha  occ. eigenvalues --  -10.29762 -10.29640 -10.29552 -10.29362 -10.28787
 Alpha  occ. eigenvalues --  -10.28659 -10.28552 -10.27278 -10.26502 -10.26099
 Alpha  occ. eigenvalues --  -10.25546 -10.25150 -10.24685  -1.17109  -1.14713
 Alpha  occ. eigenvalues --   -1.14440  -1.13207  -1.12971  -1.11951  -1.11668
 Alpha  occ. eigenvalues --   -1.08307  -1.06276  -1.05312  -1.01982  -1.01499
 Alpha  occ. eigenvalues --   -1.00315  -0.97280  -0.94941  -0.93155  -0.90798
 Alpha  occ. eigenvalues --   -0.88594  -0.87645  -0.86536  -0.85332  -0.84532
 Alpha  occ. eigenvalues --   -0.84091  -0.82167  -0.81415  -0.78647  -0.77820
 Alpha  occ. eigenvalues --   -0.76863  -0.76556  -0.75484  -0.73146  -0.72837
 Alpha  occ. eigenvalues --   -0.71763  -0.71027  -0.70261  -0.69691  -0.69626
 Alpha  occ. eigenvalues --   -0.68572  -0.67287  -0.66774  -0.66526  -0.66020
 Alpha  occ. eigenvalues --   -0.65929  -0.65499  -0.64227  -0.63936  -0.62970
 Alpha  occ. eigenvalues --   -0.61875  -0.60847  -0.59211  -0.59080  -0.58137
 Alpha  occ. eigenvalues --   -0.57927  -0.57775  -0.57615  -0.57355  -0.56440
 Alpha  occ. eigenvalues --   -0.56284  -0.55880  -0.55415  -0.54924  -0.54542
 Alpha  occ. eigenvalues --   -0.54390  -0.54151  -0.53941  -0.53481  -0.52808
 Alpha  occ. eigenvalues --   -0.52618  -0.52263  -0.52040  -0.51804  -0.51598
 Alpha  occ. eigenvalues --   -0.51087  -0.51060  -0.50229  -0.49935  -0.49782
 Alpha  occ. eigenvalues --   -0.49370  -0.48953  -0.48564  -0.48336  -0.48073
 Alpha  occ. eigenvalues --   -0.47949  -0.47870  -0.47511  -0.47227  -0.46884
 Alpha  occ. eigenvalues --   -0.46405  -0.45962  -0.45797  -0.45298  -0.44810
 Alpha  occ. eigenvalues --   -0.44735  -0.44283  -0.43882  -0.43597  -0.43388
 Alpha  occ. eigenvalues --   -0.43152  -0.43099  -0.42790  -0.42444  -0.40339
 Alpha  occ. eigenvalues --   -0.39869  -0.39728  -0.39558  -0.38885  -0.38172
 Alpha  occ. eigenvalues --   -0.37695  -0.36001  -0.35870  -0.35634  -0.35119
 Alpha  occ. eigenvalues --   -0.34479  -0.34151  -0.34069  -0.33692  -0.33238
 Alpha  occ. eigenvalues --   -0.32194  -0.31080
 Alpha virt. eigenvalues --   -0.12424  -0.10760  -0.09923  -0.08679  -0.07851
 Alpha virt. eigenvalues --   -0.07576  -0.05896  -0.04847  -0.04738  -0.03984
 Alpha virt. eigenvalues --   -0.02806  -0.01728  -0.00689  -0.00130   0.00007

 Mulliken charges:
               1
     1  N   -0.756225
     2  H    0.400292
     3  H    0.417067
     4  H    0.404994
     5  C   -0.131645
     6  H    0.214038
     7  C    0.667164
     8  C   -0.323957
     9  H    0.157010
    10  H    0.242117
    11  O   -0.548815
    12  C   -0.081232
    13  H    0.107957
    14  C   -0.461012
    15  H    0.176163
    16  H    0.153817
    17  H    0.158260
    18  C   -0.471713
    19  H    0.177024
    20  H    0.132098
    21  H    0.165243
    22  N   -0.666859
    23  H    0.410125
    24  C   -0.046676
    25  H    0.205015
    26  C    0.589316
    27  C   -0.353919
    28  H    0.200611
    29  H    0.172433
    30  O   -0.506893
    31  C    0.069261
    32  C   -0.036362
    33  H    0.202088
    34  C    0.086857
    35  C    0.286539
    36  C   -0.231970
    37  H    0.171177
    38  N   -0.699400
    39  H    0.352135
    40  C   -0.150798
    41  H    0.155245
    42  C   -0.163366
    43  H    0.154458
    44  C   -0.227224
    45  H    0.154038
    46  N   -0.604124
    47  H    0.365016
    48  C   -0.046520
    49  H    0.193294
    50  C    0.628832
    51  C   -0.077569
    52  H    0.188812
    53  H    0.165117
    54  O   -0.553440
    55  O   -0.650725
    56  H    0.432964
    57  N   -0.612687
    58  H    0.366415
    59  C   -0.049781
    60  H    0.175016
    61  C    0.625006
    62  C   -0.452549
    63  H    0.161623
    64  H    0.172533
    65  H    0.187288
    66  O   -0.543297
    67  N   -0.623308
    68  H    0.351390
    69  C   -0.004331
    70  H    0.192711
    71  C    0.575461
    72  C   -0.281135
    73  H    0.172159
    74  H    0.141303
    75  O   -0.598878
    76  C   -0.284774
    77  H    0.173499
    78  H    0.147035
    79  C   -0.293563
    80  H    0.160961
    81  H    0.150469
    82  C   -0.143234
    83  H    0.167878
    84  H    0.150867
    85  N   -0.780290
    86  H    0.337547
    87  H    0.342058
    88  H    0.460633
    89  O   -0.510157
 Sum of Mulliken charges =   1.00000

 Dipole moment (field-independent basis, Debye):
    X=             -1.6881    Y=             -4.2555    Z=              8.8663  Tot=              9.9785
 Quadrupole moment (field-independent basis, Debye-Ang):
   XX=           -112.3192   YY=           -211.4324   ZZ=           -230.3867
   XY=            -23.5717   XZ=             -3.8591   YZ=             -6.4474

 Normal termination of Gaussian 16 at Mon Jul  4 15:03:58 2022.
