 Gaussian 16, Revision C.01,
 Gaussian 16:  ES64L-G16RevC.01  3-Jul-2019

 ----------------------------------------------------------------------
 # B3LYP/6-31G* empiricaldispersion=gd3bj guess=read geom=check nosymm
 integral(ultrafinegrid)
 ----------------------------------------------------------------------

 ------------------------------------------------------
 Candidate Structure: Conf:727 Charge calc in gas phase
 ------------------------------------------------------
 Structure from the checkpoint file:  "conf-727.chk"
 Charge =  1 Multiplicity = 1

                          Input orientation:
 ---------------------------------------------------------------------
 Center     Atomic      Atomic             Coordinates (Angstroms)
 Number     Number       Type             X           Y           Z
 ---------------------------------------------------------------------
      1          7           0       -5.533973    1.702666    2.396366
      2          1           0       -5.525730    2.099278    1.424302
      3          1           0       -5.807124    0.702394    2.294543
      4          1           0       -6.189023    2.212137    2.993722
      5          6           0       -4.136638    1.642198    2.970374
      6          1           0       -3.628132    2.564691    2.687468
      7          6           0       -3.558825    0.417706    2.234219
      8          6           0       -4.176619    1.444893    4.486820
      9          1           0       -4.656638    0.480272    4.694933
     10          1           0       -3.135077    1.348018    4.818372
     11          8           0       -4.333653   -0.516113    2.004827
     12          6           0       -4.856675    2.567488    5.294466
     13          1           0       -5.918211    2.630689    4.996613
     14          6           0       -4.837024    2.201983    6.784496
     15          1           0       -3.806256    2.143446    7.153315
     16          1           0       -5.316428    1.234269    6.966900
     17          1           0       -5.362139    2.957663    7.376492
     18          6           0       -4.207811    3.936501    5.054159
     19          1           0       -3.142164    3.910281    5.311673
     20          1           0       -4.292343    4.271806    4.013108
     21          1           0       -4.680625    4.700897    5.678113
     22          7           0       -2.281464    0.476695    1.855033
     23          1           0       -1.662207    1.240483    2.114395
     24          6           0       -1.749855   -0.371770    0.803334
     25          1           0       -2.185982   -1.367212    0.904304
     26          6           0       -0.229728   -0.366204    0.982448
     27          6           0       -2.072598    0.238843   -0.611306
     28          1           0       -1.332493    1.017148   -0.814000
     29          1           0       -1.902247   -0.536340   -1.364319
     30          8           0        0.309003    0.579975    1.551825
     31          6           0       -3.454110    0.805133   -0.713674
     32          6           0       -3.792394    2.107910   -0.497665
     33          1           0       -3.154205    2.963088   -0.319435
     34          6           0       -4.693721    0.081429   -0.941283
     35          6           0       -5.752162    1.010480   -0.842532
     36          6           0       -4.985764   -1.263054   -1.201224
     37          1           0       -4.191337   -2.000101   -1.265509
     38          7           0       -5.201770    2.263502   -0.473832
     39          1           0       -5.606300    3.109075   -0.866219
     40          6           0       -7.351871   -0.690428   -1.291147
     41          1           0       -8.378122   -1.008995   -1.444252
     42          6           0       -7.086884    0.649188   -1.011806
     43          1           0       -7.889334    1.378854   -0.945376
     44          6           0       -6.313583   -1.635110   -1.378756
     45          1           0       -6.557022   -2.671680   -1.589056
     46          7           0        0.433901   -1.420308    0.455035
     47          1           0       -0.074164   -2.044898   -0.161284
     48          6           0        1.833834   -1.278768    0.102770
     49          1           0        2.360604   -0.832094    0.950620
     50          6           0        1.954034   -0.323896   -1.117302
     51          6           0        2.405883   -2.664324   -0.184958
     52          1           0        2.371536   -3.265392    0.734590
     53          1           0        3.453415   -2.580252   -0.503754
     54          8           0        0.960609    0.144320   -1.668912
     55          8           0        1.590407   -3.227150   -1.206290
     56          1           0        1.897416   -4.127528   -1.388951
     57          7           0        3.218268   -0.054807   -1.489818
     58          1           0        4.027181   -0.495752   -1.059479
     59          6           0        3.553379    0.741016   -2.655854
     60          1           0        2.914692    0.427490   -3.490841
     61          6           0        5.020984    0.405504   -2.975624
     62          6           0        3.348697    2.242942   -2.404916
     63          1           0        3.575807    2.828560   -3.301451
     64          1           0        3.998224    2.584371   -1.592966
     65          1           0        2.306798    2.418634   -2.127439
     66          8           0        5.699202   -0.274306   -2.201243
     67          7           0        5.496567    0.922512   -4.122842
     68          1           0        4.908729    1.455745   -4.754050
     69          6           0        6.874451    0.762190   -4.554997
     70          1           0        7.535599    0.868050   -3.692423
     71          6           0        7.176208    1.853014   -5.567182
     72          6           0        7.108693   -0.635048   -5.211309
     73          1           0        7.187335   -1.352452   -4.389448
     74          1           0        6.198943   -0.889581   -5.768495
     75          8           0        8.467575    2.136168   -5.619557
     76          6           0        8.329278   -0.736877   -6.149565
     77          1           0        9.148701   -0.135174   -5.746547
     78          1           0        8.681174   -1.774376   -6.150551
     79          6           0        8.019551   -0.318222   -7.613151
     80          1           0        7.104086    0.283898   -7.650327
     81          1           0        7.795349   -1.221590   -8.191577
     82          6           0        9.130089    0.456684   -8.346671
     83          1           0       10.114338    0.170869   -7.960416
     84          1           0        9.116781    0.200945   -9.414790
     85          7           0        8.991469    1.925341   -8.165887
     86          1           0        9.770411    2.412001   -8.607167
     87          1           0        8.141502    2.248598   -8.628505
     88          1           0        8.725141    2.306771   -6.607803
     89          8           0        6.314924    2.307320   -6.307100
 ---------------------------------------------------------------------

 SCF Done:  E(RB3LYP) =  -2042.68629190     A.U. after    1 cycles

 Alpha  occ. eigenvalues --  -19.24100 -19.23197 -19.21025 -19.20522 -19.18203
 Alpha  occ. eigenvalues --  -19.18076 -19.17875 -14.57105 -14.48828 -14.47441
 Alpha  occ. eigenvalues --  -14.44112 -14.41936 -14.41865 -14.40627 -10.41253
 Alpha  occ. eigenvalues --  -10.38381 -10.37544 -10.36014 -10.35241 -10.34886
 Alpha  occ. eigenvalues --  -10.33397 -10.32145 -10.31968 -10.31917 -10.31668
 Alpha  occ. eigenvalues --  -10.31171 -10.30939 -10.29675 -10.29060 -10.28656
 Alpha  occ. eigenvalues --  -10.28574 -10.28487 -10.28331 -10.28290 -10.27790
 Alpha  occ. eigenvalues --  -10.27781 -10.27644 -10.27294 -10.27233 -10.24091
 Alpha  occ. eigenvalues --  -10.24086 -10.23904 -10.23407  -1.16878  -1.13462
 Alpha  occ. eigenvalues --   -1.12807  -1.11482  -1.10705  -1.10080  -1.09319
 Alpha  occ. eigenvalues --   -1.07651  -1.04990  -1.04313  -1.00909  -0.98896
 Alpha  occ. eigenvalues --   -0.98427  -0.96106  -0.93701  -0.93513  -0.90572
 Alpha  occ. eigenvalues --   -0.88276  -0.86345  -0.85560  -0.84223  -0.82992
 Alpha  occ. eigenvalues --   -0.82351  -0.81478  -0.79846  -0.79225  -0.78157
 Alpha  occ. eigenvalues --   -0.76039  -0.75157  -0.73047  -0.71896  -0.71546
 Alpha  occ. eigenvalues --   -0.71325  -0.70306  -0.69769  -0.68806  -0.68268
 Alpha  occ. eigenvalues --   -0.68102  -0.67683  -0.66211  -0.65965  -0.64828
 Alpha  occ. eigenvalues --   -0.63960  -0.63848  -0.62876  -0.62495  -0.61304
 Alpha  occ. eigenvalues --   -0.61067  -0.59695  -0.58345  -0.58263  -0.57626
 Alpha  occ. eigenvalues --   -0.57105  -0.56843  -0.56439  -0.56267  -0.56007
 Alpha  occ. eigenvalues --   -0.54801  -0.54587  -0.54435  -0.54280  -0.53467
 Alpha  occ. eigenvalues --   -0.53207  -0.52775  -0.52574  -0.51938  -0.51716
 Alpha  occ. eigenvalues --   -0.51380  -0.51067  -0.50952  -0.50662  -0.50495
 Alpha  occ. eigenvalues --   -0.49908  -0.49616  -0.49229  -0.48990  -0.48666
 Alpha  occ. eigenvalues --   -0.48562  -0.48308  -0.48211  -0.47610  -0.47251
 Alpha  occ. eigenvalues --   -0.46731  -0.46688  -0.46314  -0.46004  -0.45449
 Alpha  occ. eigenvalues --   -0.45339  -0.44278  -0.44225  -0.44100  -0.44047
 Alpha  occ. eigenvalues --   -0.43981  -0.43295  -0.42988  -0.42873  -0.42607
 Alpha  occ. eigenvalues --   -0.42256  -0.41830  -0.41230  -0.40906  -0.39022
 Alpha  occ. eigenvalues --   -0.38782  -0.38599  -0.38245  -0.38213  -0.36370
 Alpha  occ. eigenvalues --   -0.35820  -0.34955  -0.34616  -0.34159  -0.32897
 Alpha  occ. eigenvalues --   -0.32520  -0.32472  -0.32153  -0.31875  -0.31359
 Alpha  occ. eigenvalues --   -0.30966  -0.30468
 Alpha virt. eigenvalues --   -0.11221  -0.11019  -0.08457  -0.07712  -0.06825
 Alpha virt. eigenvalues --   -0.04568  -0.04184  -0.04037  -0.03466  -0.02952
 Alpha virt. eigenvalues --   -0.02108  -0.01160  -0.00842  -0.00456  -0.00055

 Mulliken charges:
               1
     1  N   -0.773269
     2  H    0.438300
     3  H    0.421310
     4  H    0.398558
     5  C   -0.118053
     6  H    0.192361
     7  C    0.661197
     8  C   -0.276741
     9  H    0.178334
    10  H    0.185155
    11  O   -0.535432
    12  C   -0.103356
    13  H    0.112858
    14  C   -0.447017
    15  H    0.163883
    16  H    0.160371
    17  H    0.170127
    18  C   -0.453232
    19  H    0.166922
    20  H    0.128811
    21  H    0.179196
    22  N   -0.599803
    23  H    0.358602
    24  C   -0.078770
    25  H    0.193630
    26  C    0.650379
    27  C   -0.368604
    28  H    0.203875
    29  H    0.184187
    30  O   -0.537763
    31  C    0.110281
    32  C   -0.076974
    33  H    0.166271
    34  C    0.145198
    35  C    0.217728
    36  C   -0.186129
    37  H    0.141353
    38  N   -0.722991
    39  H    0.354431
    40  C   -0.142830
    41  H    0.153327
    42  C   -0.189274
    43  H    0.140131
    44  C   -0.133742
    45  H    0.152025
    46  N   -0.590403
    47  H    0.354450
    48  C   -0.098618
    49  H    0.201627
    50  C    0.652366
    51  C   -0.054573
    52  H    0.154308
    53  H    0.156915
    54  O   -0.545102
    55  O   -0.625118
    56  H    0.413800
    57  N   -0.621334
    58  H    0.359158
    59  C   -0.037607
    60  H    0.177947
    61  C    0.622273
    62  C   -0.447916
    63  H    0.154236
    64  H    0.163196
    65  H    0.181705
    66  O   -0.547398
    67  N   -0.622933
    68  H    0.350550
    69  C   -0.001981
    70  H    0.189358
    71  C    0.573467
    72  C   -0.281819
    73  H    0.172190
    74  H    0.145031
    75  O   -0.600735
    76  C   -0.284986
    77  H    0.171089
    78  H    0.145513
    79  C   -0.292944
    80  H    0.162348
    81  H    0.150421
    82  C   -0.142364
    83  H    0.165122
    84  H    0.148281
    85  N   -0.778891
    86  H    0.334097
    87  H    0.341328
    88  H    0.458431
    89  O   -0.509310
 Sum of Mulliken charges =   1.00000

 Dipole moment (field-independent basis, Debye):
    X=            -11.3676    Y=              5.1469    Z=              0.6249  Tot=             12.4941
 Quadrupole moment (field-independent basis, Debye-Ang):
   XX=            -64.4245   YY=           -208.7359   ZZ=           -140.3744
   XY=            -49.0291   XZ=           -118.8637   YZ=             20.0691

 Normal termination of Gaussian 16 at Mon Jul  4 15:08:25 2022.
