 Gaussian 16, Revision C.01,
 Gaussian 16:  ES64L-G16RevC.01  3-Jul-2019

 ----------------------------------------------------------------------
 # B3LYP/6-31G* empiricaldispersion=gd3bj guess=read geom=check nosymm
 integral(ultrafinegrid)
 ----------------------------------------------------------------------

 ------------------------------------------------------
 Candidate Structure: Conf:879 Charge calc in gas phase
 ------------------------------------------------------
 Structure from the checkpoint file:  "conf-879.chk"
 Charge =  1 Multiplicity = 1

                          Input orientation:
 ---------------------------------------------------------------------
 Center     Atomic      Atomic             Coordinates (Angstroms)
 Number     Number       Type             X           Y           Z
 ---------------------------------------------------------------------
      1          7           0       -4.291756   -1.205570    2.667950
      2          1           0       -5.300176   -1.382601    2.678900
      3          1           0       -3.875363   -1.661394    1.804762
      4          1           0       -3.876750   -1.581185    3.524835
      5          6           0       -3.937245    0.252451    2.441667
      6          1           0       -4.784209    0.867963    2.749295
      7          6           0       -3.683671    0.287220    0.919846
      8          6           0       -2.657116    0.571698    3.234961
      9          1           0       -2.831304    0.279114    4.281516
     10          1           0       -1.842564   -0.038599    2.828059
     11          8           0       -3.416841   -0.788819    0.362728
     12          6           0       -2.215369    2.047761    3.216679
     13          1           0       -2.037112    2.340770    2.175164
     14          6           0       -3.266410    2.975737    3.837904
     15          1           0       -3.470553    2.691346    4.877956
     16          1           0       -4.218788    2.982582    3.295466
     17          1           0       -2.903333    4.008532    3.845875
     18          6           0       -0.876224    2.163789    3.957972
     19          1           0       -0.986343    1.887817    5.014245
     20          1           0       -0.120699    1.512622    3.508310
     21          1           0       -0.509204    3.194165    3.920370
     22          7           0       -3.717303    1.473009    0.318990
     23          1           0       -3.987321    2.296833    0.845811
     24          6           0       -3.151655    1.669659   -1.026303
     25          1           0       -3.575765    0.897425   -1.673367
     26          6           0       -1.633296    1.496170   -0.857280
     27          6           0       -3.497126    3.072600   -1.559697
     28          1           0       -2.847058    3.791954   -1.050500
     29          1           0       -3.219193    3.094677   -2.618515
     30          8           0       -0.987619    2.338742   -0.218107
     31          6           0       -4.936672    3.434148   -1.363253
     32          6           0       -5.999217    3.175303   -2.194991
     33          1           0       -6.012947    2.731514   -3.180955
     34          6           0       -5.483543    4.050575   -0.179738
     35          6           0       -6.893795    4.125124   -0.355488
     36          6           0       -4.916782    4.547015    1.008548
     37          1           0       -3.837392    4.555767    1.148767
     38          7           0       -7.174520    3.581277   -1.592821
     39          1           0       -8.083409    3.566443   -2.029773
     40          6           0       -7.149502    5.135718    1.789173
     41          1           0       -7.777327    5.566627    2.562776
     42          6           0       -7.736584    4.666353    0.618946
     43          1           0       -8.810749    4.723424    0.468937
     44          6           0       -5.754662    5.079765    1.982511
     45          1           0       -5.328422    5.478770    2.897876
     46          7           0       -1.111158    0.374106   -1.365917
     47          1           0       -1.681592   -0.335212   -1.818335
     48          6           0        0.266769   -0.022740   -1.148148
     49          1           0        0.909028    0.853448   -1.285593
     50          6           0        0.573969   -1.111365   -2.188682
     51          6           0        0.473004   -0.600926    0.271985
     52          1           0        1.549840   -0.758869    0.429442
     53          1           0       -0.025686   -1.574539    0.334249
     54          8           0       -0.347568   -1.748057   -2.703064
     55          8           0       -0.084179    0.214086    1.290783
     56          1           0       -0.058807    1.142184    0.985563
     57          7           0        1.876626   -1.324715   -2.424943
     58          1           0        2.615522   -0.804620   -1.955297
     59          6           0        2.374744   -2.381515   -3.289443
     60          1           0        1.862201   -3.317037   -3.034158
     61          6           0        3.873659   -2.503278   -2.958113
     62          6           0        2.140675   -2.068244   -4.775304
     63          1           0        2.500888   -2.884119   -5.409482
     64          1           0        2.667797   -1.151610   -5.057464
     65          1           0        1.070901   -1.936956   -4.952743
     66          8           0        4.428150   -1.674982   -2.231522
     67          7           0        4.510311   -3.538448   -3.532088
     68          1           0        4.023516   -4.211753   -4.114013
     69          6           0        5.939830   -3.766020   -3.399627
     70          1           0        6.461165   -2.807642   -3.444055
     71          6           0        6.379471   -4.642491   -4.559470
     72          6           0        6.282876   -4.475419   -2.051913
     73          1           0        6.247404   -3.703114   -1.278051
     74          1           0        5.468306   -5.177701   -1.836916
     75          8           0        5.631990   -5.467323   -5.066197
     76          6           0        7.629629   -5.227748   -2.016389
     77          1           0        8.374808   -4.665677   -2.586127
     78          1           0        7.987088   -5.250399   -0.981048
     79          6           0        7.536240   -6.687542   -2.539641
     80          1           0        6.630796   -6.817669   -3.143963
     81          1           0        7.408983   -7.355697   -1.680383
     82          6           0        8.736081   -7.190934   -3.363736
     83          1           0        9.654867   -6.684543   -3.049102
     84          1           0        8.883217   -8.264708   -3.185744
     85          7           0        8.559241   -6.928238   -4.815813
     86          1           0        9.391954   -7.209645   -5.331309
     87          1           0        7.786513   -7.489745   -5.174412
     88          1           0        8.061809   -5.408063   -5.082957
     89          8           0        7.661149   -4.482652   -4.842589
 ---------------------------------------------------------------------

 SCF Done:  E(RB3LYP) =  -2042.69088771     A.U. after    1 cycles

 Alpha  occ. eigenvalues --  -19.26271 -19.22589 -19.21303 -19.21233 -19.19639
 Alpha  occ. eigenvalues --  -19.18505 -19.18492 -14.59517 -14.49274 -14.46451
 Alpha  occ. eigenvalues --  -14.45448 -14.43478 -14.42419 -14.40887 -10.42857
 Alpha  occ. eigenvalues --  -10.39706 -10.38425 -10.36909 -10.36324 -10.35535
 Alpha  occ. eigenvalues --  -10.34194 -10.32067 -10.32026 -10.31410 -10.30595
 Alpha  occ. eigenvalues --  -10.30550 -10.30344 -10.29247 -10.28889 -10.28820
 Alpha  occ. eigenvalues --  -10.27909 -10.27232 -10.27230 -10.27070 -10.26997
 Alpha  occ. eigenvalues --  -10.26941 -10.26611 -10.26536 -10.25693 -10.24686
 Alpha  occ. eigenvalues --  -10.24490 -10.24205 -10.23736  -1.18828  -1.13763
 Alpha  occ. eigenvalues --   -1.13727  -1.13172  -1.11659  -1.10295  -1.09697
 Alpha  occ. eigenvalues --   -1.06368  -1.05838  -1.05300  -1.01856  -1.00231
 Alpha  occ. eigenvalues --   -0.99049  -0.96366  -0.93698  -0.92333  -0.90263
 Alpha  occ. eigenvalues --   -0.87563  -0.86833  -0.85853  -0.84803  -0.82784
 Alpha  occ. eigenvalues --   -0.81917  -0.80493  -0.80210  -0.79065  -0.77313
 Alpha  occ. eigenvalues --   -0.76231  -0.75526  -0.73969  -0.73515  -0.72808
 Alpha  occ. eigenvalues --   -0.72311  -0.71437  -0.70521  -0.68647  -0.68134
 Alpha  occ. eigenvalues --   -0.67550  -0.67168  -0.66626  -0.65395  -0.65312
 Alpha  occ. eigenvalues --   -0.64712  -0.63957  -0.63132  -0.62548  -0.62018
 Alpha  occ. eigenvalues --   -0.62007  -0.60518  -0.59605  -0.58875  -0.58034
 Alpha  occ. eigenvalues --   -0.57124  -0.56955  -0.56728  -0.56263  -0.55514
 Alpha  occ. eigenvalues --   -0.55151  -0.54844  -0.54351  -0.54058  -0.53236
 Alpha  occ. eigenvalues --   -0.52943  -0.52683  -0.52199  -0.51886  -0.51647
 Alpha  occ. eigenvalues --   -0.51582  -0.51136  -0.51034  -0.50761  -0.50646
 Alpha  occ. eigenvalues --   -0.50424  -0.50036  -0.49569  -0.49259  -0.48866
 Alpha  occ. eigenvalues --   -0.48472  -0.48084  -0.47650  -0.47442  -0.47281
 Alpha  occ. eigenvalues --   -0.47030  -0.46941  -0.46468  -0.46173  -0.45926
 Alpha  occ. eigenvalues --   -0.45553  -0.44863  -0.44422  -0.43608  -0.43586
 Alpha  occ. eigenvalues --   -0.43359  -0.43055  -0.42732  -0.42284  -0.42124
 Alpha  occ. eigenvalues --   -0.41908  -0.41684  -0.41551  -0.41419  -0.40725
 Alpha  occ. eigenvalues --   -0.39470  -0.39365  -0.38916  -0.38578  -0.36213
 Alpha  occ. eigenvalues --   -0.35974  -0.35421  -0.34926  -0.34302  -0.33556
 Alpha  occ. eigenvalues --   -0.33220  -0.33072  -0.32845  -0.32011  -0.31019
 Alpha  occ. eigenvalues --   -0.30713  -0.28812
 Alpha virt. eigenvalues --   -0.11980  -0.10368  -0.09864  -0.08301  -0.06217
 Alpha virt. eigenvalues --   -0.05830  -0.05670  -0.04672  -0.03640  -0.03531
 Alpha virt. eigenvalues --   -0.02538  -0.01266  -0.00194   0.00242   0.00765

 Mulliken charges:
               1
     1  N   -0.751273
     2  H    0.413554
     3  H    0.431585
     4  H    0.412553
     5  C   -0.128667
     6  H    0.211956
     7  C    0.668783
     8  C   -0.298938
     9  H    0.148028
    10  H    0.215594
    11  O   -0.546304
    12  C   -0.112762
    13  H    0.165595
    14  C   -0.472124
    15  H    0.150920
    16  H    0.140827
    17  H    0.174014
    18  C   -0.462214
    19  H    0.145846
    20  H    0.178653
    21  H    0.165148
    22  N   -0.600124
    23  H    0.374835
    24  C   -0.037285
    25  H    0.179255
    26  C    0.647016
    27  C   -0.409702
    28  H    0.198175
    29  H    0.181059
    30  O   -0.569073
    31  C    0.066266
    32  C    0.006466
    33  H    0.168384
    34  C    0.063745
    35  C    0.317973
    36  C   -0.260851
    37  H    0.148290
    38  N   -0.688148
    39  H    0.342696
    40  C   -0.155259
    41  H    0.145869
    42  C   -0.158273
    43  H    0.144885
    44  C   -0.141926
    45  H    0.140716
    46  N   -0.577618
    47  H    0.367807
    48  C   -0.122741
    49  H    0.189483
    50  C    0.627119
    51  C    0.009278
    52  H    0.150019
    53  H    0.150356
    54  O   -0.544020
    55  O   -0.656185
    56  H    0.432757
    57  N   -0.620850
    58  H    0.362717
    59  C   -0.041212
    60  H    0.178611
    61  C    0.623006
    62  C   -0.451929
    63  H    0.160502
    64  H    0.165374
    65  H    0.188806
    66  O   -0.544914
    67  N   -0.622710
    68  H    0.351977
    69  C   -0.003849
    70  H    0.190761
    71  C    0.574574
    72  C   -0.281566
    73  H    0.171826
    74  H    0.144307
    75  O   -0.508689
    76  C   -0.284932
    77  H    0.171933
    78  H    0.145689
    79  C   -0.293126
    80  H    0.162453
    81  H    0.150226
    82  C   -0.142479
    83  H    0.165585
    84  H    0.149013
    85  N   -0.779441
    86  H    0.335172
    87  H    0.342075
    88  H    0.459187
    89  O   -0.600116
 Sum of Mulliken charges =   1.00000

 Dipole moment (field-independent basis, Debye):
    X=            -12.8903    Y=             -5.9087    Z=              4.3847  Tot=             14.8424
 Quadrupole moment (field-independent basis, Debye-Ang):
   XX=            -59.9904   YY=           -179.9524   ZZ=           -199.0247
   XY=            -84.4159   XZ=            -57.2330   YZ=             13.8923

 Normal termination of Gaussian 16 at Mon Jul  4 15:08:28 2022.
