 Gaussian 16, Revision C.01,
 Gaussian 16:  ES64L-G16RevC.01  3-Jul-2019

 ----------------------------------------------------------------------
 # B3LYP/6-31G* empiricaldispersion=gd3bj guess=read geom=check nosymm
 integral(ultrafinegrid)
 ----------------------------------------------------------------------

 ------------------------------------------------------
 Candidate Structure: Conf:961 Charge calc in gas phase
 ------------------------------------------------------
 Structure from the checkpoint file:  "conf-961.chk"
 Charge =  1 Multiplicity = 1

                          Input orientation:
 ---------------------------------------------------------------------
 Center     Atomic      Atomic             Coordinates (Angstroms)
 Number     Number       Type             X           Y           Z
 ---------------------------------------------------------------------
      1          7           0       -3.402575    1.228509    4.533688
      2          1           0       -4.345133    0.837007    4.620338
      3          1           0       -2.712583    0.428605    4.415455
      4          1           0       -3.196696    1.780304    5.371052
      5          6           0       -3.189889    2.000855    3.246641
      6          1           0       -4.162982    2.320935    2.870452
      7          6           0       -2.516191    0.944305    2.341604
      8          6           0       -2.260596    3.194625    3.526168
      9          1           0       -2.750647    3.841138    4.268291
     10          1           0       -1.339424    2.802799    3.976854
     11          8           0       -1.978418   -0.024577    2.895928
     12          6           0       -1.888798    4.040886    2.292190
     13          1           0       -1.366252    3.380216    1.593246
     14          6           0       -3.115055    4.649600    1.599923
     15          1           0       -3.671025    5.302788    2.283317
     16          1           0       -3.819490    3.899557    1.218017
     17          1           0       -2.808180    5.255056    0.741745
     18          6           0       -0.906106    5.139922    2.716457
     19          1           0       -1.361769    5.830782    3.435500
     20          1           0       -0.007941    4.715445    3.180573
     21          1           0       -0.596837    5.729533    1.847251
     22          7           0       -2.537149    1.187811    1.037513
     23          1           0       -3.128427    1.924678    0.670565
     24          6           0       -1.764203    0.446494    0.048102
     25          1           0       -2.039661   -0.612492    0.102835
     26          6           0       -0.260799    0.553611    0.401972
     27          6           0       -2.122926    1.007537   -1.340051
     28          1           0       -1.784299    2.051407   -1.382885
     29          1           0       -1.532412    0.482425   -2.097340
     30          8           0        0.137871    1.362481    1.256925
     31          6           0       -3.595440    0.932095   -1.641829
     32          6           0       -4.560295    0.211406   -0.969967
     33          1           0       -4.477163   -0.426654   -0.100959
     34          6           0       -4.257979    1.567503   -2.762960
     35          6           0       -5.626752    1.189646   -2.700555
     36          6           0       -3.830746    2.382587   -3.827679
     37          1           0       -2.803433    2.688787   -3.978787
     38          7           0       -5.782423    0.377609   -1.589457
     39          1           0       -6.627251   -0.116382   -1.348613
     40          6           0       -6.112457    2.412054   -4.684227
     41          1           0       -6.813252    2.744867   -5.444121
     42          6           0       -6.567591    1.608482   -3.645692
     43          1           0       -7.608771    1.305503   -3.578398
     44          6           0       -4.757859    2.788464   -4.776309
     45          1           0       -4.404942    3.389320   -5.607853
     46          7           0        0.526348   -0.333599   -0.239177
     47          1           0        0.227415   -0.631102   -1.180310
     48          6           0        1.961654   -0.489793    0.013246
     49          1           0        2.237313    0.150085    0.851198
     50          6           0        2.710508    0.018126   -1.233863
     51          6           0        2.270015   -1.935511    0.402898
     52          1           0        1.906047   -2.629603   -0.373240
     53          1           0        1.715585   -2.168081    1.323567
     54          8           0        3.089330    1.197772   -1.292095
     55          8           0        3.670034   -1.998340    0.572823
     56          1           0        3.923647   -2.906403    0.796704
     57          7           0        2.790013   -0.809694   -2.296248
     58          1           0        2.365272   -1.720479   -2.174372
     59          6           0        2.589904   -0.257550   -3.652313
     60          1           0        3.343148    0.513656   -3.817972
     61          6           0        1.179940    0.374544   -3.626304
     62          6           0        2.703111   -1.366785   -4.693019
     63          1           0        2.562355   -0.950851   -5.694447
     64          1           0        1.926087   -2.123223   -4.533635
     65          1           0        3.686282   -1.844288   -4.647972
     66          8           0        0.294482   -0.193731   -2.940241
     67          7           0        1.010405    1.522775   -4.259926
     68          1           0        1.565739    1.834066   -5.078576
     69          6           0       -0.230980    2.283331   -4.245355
     70          1           0       -1.050321    1.599751   -4.026829
     71          6           0       -0.411897    2.908992   -5.675241
     72          6           0       -0.185016    3.442933   -3.214115
     73          1           0        0.126248    4.361477   -3.724882
     74          1           0       -1.204426    3.634793   -2.860002
     75          8           0       -1.511608    3.468565   -5.845060
     76          6           0        0.761739    3.205247   -2.035976
     77          1           0        0.582684    2.215386   -1.603804
     78          1           0        1.789103    3.177217   -2.414308
     79          6           0        0.643137    4.272951   -0.941880
     80          1           0       -0.253766    4.098137   -0.332158
     81          1           0        0.517823    5.263196   -1.396656
     82          6           0        1.871164    4.364135   -0.040727
     83          1           0        2.740521    4.716732   -0.601407
     84          1           0        1.707445    5.034502    0.807144
     85          7           0        2.251791    3.018395    0.522848
     86          1           0        2.981518    3.108577    1.233838
     87          1           0        1.440746    2.513632    0.941891
     88          1           0        2.620434    2.354643   -0.221370
     89          8           0        0.607489    2.806758   -6.404926
 ---------------------------------------------------------------------

 SCF Done:  E(RB3LYP) =  -2042.62881648     A.U. after    3 cycles

 Alpha  occ. eigenvalues --  -19.28203 -19.25811 -19.25471 -19.24521 -19.19390
 Alpha  occ. eigenvalues --  -19.08581 -19.07796 -14.61812 -14.54113 -14.51075
 Alpha  occ. eigenvalues --  -14.48184 -14.46384 -14.44795 -14.41206 -10.44804
 Alpha  occ. eigenvalues --  -10.42378 -10.42212 -10.40767 -10.36158 -10.35785
 Alpha  occ. eigenvalues --  -10.35770 -10.35288 -10.35066 -10.35026 -10.32559
 Alpha  occ. eigenvalues --  -10.31947 -10.30064 -10.29870 -10.29669 -10.29617
 Alpha  occ. eigenvalues --  -10.29004 -10.27766 -10.26648 -10.26502 -10.26367
 Alpha  occ. eigenvalues --  -10.26247 -10.24679 -10.24335 -10.24166 -10.24037
 Alpha  occ. eigenvalues --  -10.23292 -10.22585 -10.21970  -1.20841  -1.17117
 Alpha  occ. eigenvalues --   -1.15852  -1.15462  -1.13047  -1.10589  -1.09480
 Alpha  occ. eigenvalues --   -1.08119  -1.05131  -1.04556  -1.02936  -1.01936
 Alpha  occ. eigenvalues --   -0.97697  -0.96663  -0.93181  -0.92079  -0.90023
 Alpha  occ. eigenvalues --   -0.89806  -0.89049  -0.88188  -0.85391  -0.84422
 Alpha  occ. eigenvalues --   -0.83356  -0.81833  -0.80774  -0.78713  -0.78452
 Alpha  occ. eigenvalues --   -0.77674  -0.76774  -0.75864  -0.75653  -0.74869
 Alpha  occ. eigenvalues --   -0.74441  -0.73537  -0.71513  -0.70951  -0.70278
 Alpha  occ. eigenvalues --   -0.69412  -0.68259  -0.67889  -0.67372  -0.66953
 Alpha  occ. eigenvalues --   -0.66550  -0.65376  -0.64914  -0.64552  -0.63625
 Alpha  occ. eigenvalues --   -0.62962  -0.62638  -0.62102  -0.60978  -0.60759
 Alpha  occ. eigenvalues --   -0.60304  -0.59399  -0.59192  -0.58400  -0.57800
 Alpha  occ. eigenvalues --   -0.57471  -0.57225  -0.56286  -0.55995  -0.55762
 Alpha  occ. eigenvalues --   -0.54776  -0.54319  -0.54003  -0.53785  -0.53241
 Alpha  occ. eigenvalues --   -0.53033  -0.52482  -0.52183  -0.52037  -0.51889
 Alpha  occ. eigenvalues --   -0.51111  -0.51035  -0.50687  -0.50447  -0.49989
 Alpha  occ. eigenvalues --   -0.49925  -0.49196  -0.48917  -0.48245  -0.47767
 Alpha  occ. eigenvalues --   -0.47306  -0.47178  -0.46830  -0.46657  -0.46506
 Alpha  occ. eigenvalues --   -0.46282  -0.46024  -0.45918  -0.45396  -0.45108
 Alpha  occ. eigenvalues --   -0.45023  -0.44515  -0.43961  -0.42769  -0.42570
 Alpha  occ. eigenvalues --   -0.41687  -0.41428  -0.41339  -0.40497  -0.39966
 Alpha  occ. eigenvalues --   -0.39393  -0.39164  -0.38544  -0.38392  -0.38213
 Alpha  occ. eigenvalues --   -0.37978  -0.37289  -0.36432  -0.35758  -0.33988
 Alpha  occ. eigenvalues --   -0.33043  -0.31876  -0.27836  -0.26424  -0.23779
 Alpha  occ. eigenvalues --   -0.23455  -0.22044
 Alpha virt. eigenvalues --   -0.13904  -0.12546  -0.12335  -0.10361  -0.08030
 Alpha virt. eigenvalues --   -0.07305  -0.06879  -0.06610  -0.05540  -0.04427
 Alpha virt. eigenvalues --   -0.03510  -0.03296  -0.02809  -0.02482  -0.01665

 Mulliken charges:
               1
     1  N   -0.753098
     2  H    0.418400
     3  H    0.431823
     4  H    0.414991
     5  C   -0.130450
     6  H    0.215136
     7  C    0.671591
     8  C   -0.279749
     9  H    0.165883
    10  H    0.173822
    11  O   -0.544537
    12  C   -0.115829
    13  H    0.174784
    14  C   -0.473193
    15  H    0.165727
    16  H    0.139403
    17  H    0.189704
    18  C   -0.459814
    19  H    0.166355
    20  H    0.143934
    21  H    0.170073
    22  N   -0.596496
    23  H    0.367939
    24  C   -0.054355
    25  H    0.197566
    26  C    0.647066
    27  C   -0.424671
    28  H    0.157741
    29  H    0.251904
    30  O   -0.582632
    31  C    0.026093
    32  C   -0.012683
    33  H    0.127717
    34  C    0.069745
    35  C    0.310944
    36  C   -0.227250
    37  H    0.189933
    38  N   -0.696398
    39  H    0.330525
    40  C   -0.147675
    41  H    0.139816
    42  C   -0.166027
    43  H    0.126735
    44  C   -0.153134
    45  H    0.178509
    46  N   -0.607484
    47  H    0.399394
    48  C   -0.096234
    49  H    0.171007
    50  C    0.663551
    51  C   -0.031996
    52  H    0.132963
    53  H    0.157097
    54  O   -0.556221
    55  O   -0.607865
    56  H    0.417783
    57  N   -0.552391
    58  H    0.340463
    59  C   -0.057826
    60  H    0.195404
    61  C    0.621077
    62  C   -0.476977
    63  H    0.200991
    64  H    0.164066
    65  H    0.177686
    66  O   -0.606044
    67  N   -0.584195
    68  H    0.358309
    69  C   -0.073876
    70  H    0.163350
    71  C    0.584881
    72  C   -0.283551
    73  H    0.172828
    74  H    0.143416
    75  O   -0.580072
    76  C   -0.296437
    77  H    0.129217
    78  H    0.168953
    79  C   -0.295317
    80  H    0.146893
    81  H    0.184894
    82  C   -0.184286
    83  H    0.209018
    84  H    0.181576
    85  N   -0.819837
    86  H    0.386197
    87  H    0.431713
    88  H    0.457540
    89  O   -0.595529
 Sum of Mulliken charges =   1.00000

 Dipole moment (field-independent basis, Debye):
    X=             -6.7788    Y=              3.2426    Z=             27.6476  Tot=             28.6506
 Quadrupole moment (field-independent basis, Debye-Ang):
   XX=           -162.0969   YY=           -213.4726   ZZ=           -269.0023
   XY=             -8.7006   XZ=            -63.4881   YZ=             83.1306

 Normal termination of Gaussian 16 at Mon Jul  4 15:10:30 2022.
