 Gaussian 16, Revision C.01,
 Gaussian 16:  ES64L-G16RevC.01  3-Jul-2019

 ----------------------------------------------------------------------
 # B3LYP/6-31G* empiricaldispersion=gd3bj guess=read geom=check nosymm
 integral(ultrafinegrid)
 ----------------------------------------------------------------------

 ------------------------------------------------------
 Candidate Structure: Conf:669 Charge calc in gas phase
 ------------------------------------------------------
 Structure from the checkpoint file:  "conf-669.chk"
 Charge =  1 Multiplicity = 1

                          Input orientation:
 ---------------------------------------------------------------------
 Center     Atomic      Atomic             Coordinates (Angstroms)
 Number     Number       Type             X           Y           Z
 ---------------------------------------------------------------------
      1          7           0       -0.969331   -0.587284    2.421285
      2          1           0       -0.591210   -0.562967    3.370187
      3          1           0       -0.787070   -1.494587    1.967837
      4          1           0       -0.502926    0.144484    1.800081
      5          6           0       -2.467420   -0.382304    2.379347
      6          1           0       -2.904765   -1.158539    3.013381
      7          6           0       -2.772787   -0.711753    0.899346
      8          6           0       -2.839557    1.014911    2.866790
      9          1           0       -2.462897    1.757518    2.153814
     10          1           0       -3.933796    1.094540    2.844143
     11          8           0       -2.124007   -1.617069    0.369355
     12          6           0       -2.362518    1.369029    4.289355
     13          1           0       -1.260312    1.355534    4.303079
     14          6           0       -2.797903    2.799872    4.628251
     15          1           0       -3.890194    2.885160    4.617913
     16          1           0       -2.404244    3.517929    3.901712
     17          1           0       -2.440298    3.087793    5.621703
     18          6           0       -2.875681    0.376767    5.341191
     19          1           0       -3.971680    0.339428    5.335775
     20          1           0       -2.508706   -0.645961    5.184943
     21          1           0       -2.559015    0.681215    6.343296
     22          7           0       -3.658625    0.072413    0.266047
     23          1           0       -4.076873    0.846841    0.770129
     24          6           0       -3.593346    0.253650   -1.192926
     25          1           0       -3.640500   -0.733738   -1.655676
     26          6           0       -2.210170    0.894024   -1.393868
     27          6           0       -4.749120    1.171466   -1.710831
     28          1           0       -4.299047    2.094544   -2.088048
     29          1           0       -5.219357    0.671079   -2.561244
     30          8           0       -1.991810    2.045160   -0.972891
     31          6           0       -5.780130    1.512668   -0.679252
     32          6           0       -7.010273    0.928941   -0.497488
     33          1           0       -7.504974    0.167307   -1.084188
     34          6           0       -5.618832    2.472558    0.390039
     35          6           0       -6.794425    2.408480    1.190984
     36          6           0       -4.593632    3.371583    0.742717
     37          1           0       -3.691276    3.433467    0.142156
     38          7           0       -7.620032    1.458985    0.622474
     39          1           0       -8.558761    1.247253    0.924773
     40          6           0       -5.935642    4.084541    2.651609
     41          1           0       -6.041606    4.726863    3.520598
     42          6           0       -6.964384    3.206893    2.325968
     43          1           0       -7.867684    3.152355    2.926430
     44          6           0       -4.766039    4.168274    1.867833
     45          1           0       -3.992629    4.877767    2.146073
     46          7           0       -1.247496    0.109038   -1.888910
     47          1           0       -1.413192   -0.865485   -2.126675
     48          6           0        0.152372    0.495469   -1.883509
     49          1           0        0.235428    1.529629   -2.233738
     50          6           0        0.880875   -0.481557   -2.817910
     51          6           0        0.777204    0.361309   -0.476453
     52          1           0        1.812170    0.714253   -0.492958
     53          1           0        0.798243   -0.696350   -0.199216
     54          8           0        0.383998   -1.571750   -3.072887
     55          8           0        0.039773    1.074957    0.532806
     56          1           0       -0.573760    1.709790    0.092697
     57          7           0        2.084921   -0.062800   -3.286774
     58          1           0        2.473171    0.768013   -2.856366
     59          6           0        3.063083   -1.063802   -3.688143
     60          1           0        2.570988   -1.732171   -4.399786
     61          6           0        3.469537   -1.886300   -2.438710
     62          6           0        4.271763   -0.388760   -4.340956
     63          1           0        4.997416   -1.132884   -4.679209
     64          1           0        4.781495    0.270138   -3.627997
     65          1           0        3.957158    0.203884   -5.204587
     66          8           0        3.168031   -1.522123   -1.300810
     67          7           0        4.176276   -2.998405   -2.707215
     68          1           0        4.457468   -3.240658   -3.652206
     69          6           0        4.728265   -3.865238   -1.680133
     70          1           0        5.202686   -3.253802   -0.905312
     71          6           0        5.759216   -4.751711   -2.359716
     72          6           0        3.648682   -4.749703   -1.007172
     73          1           0        4.087418   -5.182880   -0.102248
     74          1           0        2.859751   -4.062620   -0.686413
     75          8           0        6.370695   -5.560854   -1.514946
     76          6           0        3.038469   -5.869453   -1.878813
     77          1           0        2.021395   -6.037190   -1.508418
     78          1           0        2.913421   -5.508999   -2.908383
     79          6           0        3.773717   -7.242159   -1.874598
     80          1           0        3.019248   -8.025509   -1.747738
     81          1           0        4.416444   -7.300693   -0.988664
     82          6           0        4.617095   -7.595566   -3.127264
     83          1           0        4.205092   -8.488843   -3.614119
     84          1           0        4.582416   -6.784653   -3.856633
     85          7           0        6.053761   -7.797964   -2.798831
     86          1           0        6.589048   -7.929923   -3.655912
     87          1           0        6.527933   -6.453072   -2.026252
     88          1           0        6.172679   -8.644601   -2.242959
     89          8           0        5.886133   -4.773610   -3.577127
 ---------------------------------------------------------------------

 SCF Done:  E(RB3LYP) =  -2042.70342880     A.U. after    1 cycles

 Alpha  occ. eigenvalues --  -19.26906 -19.24556 -19.22823 -19.22262 -19.21451
 Alpha  occ. eigenvalues --  -19.19602 -19.19131 -14.56411 -14.47971 -14.46928
 Alpha  occ. eigenvalues --  -14.46565 -14.45123 -14.42931 -14.41506 -10.41655
 Alpha  occ. eigenvalues --  -10.39794 -10.38510 -10.38207 -10.37342 -10.36054
 Alpha  occ. eigenvalues --  -10.34527 -10.34251 -10.34030 -10.31614 -10.31185
 Alpha  occ. eigenvalues --  -10.30660 -10.30645 -10.30459 -10.29866 -10.29076
 Alpha  occ. eigenvalues --  -10.28080 -10.28049 -10.27222 -10.27081 -10.26960
 Alpha  occ. eigenvalues --  -10.26735 -10.26732 -10.26663 -10.26588 -10.26254
 Alpha  occ. eigenvalues --  -10.25137 -10.24995 -10.24964  -1.17207  -1.15248
 Alpha  occ. eigenvalues --   -1.14915  -1.13533  -1.13061  -1.10835  -1.10766
 Alpha  occ. eigenvalues --   -1.06452  -1.06321  -1.04922  -1.03342  -1.01903
 Alpha  occ. eigenvalues --   -0.99681  -0.96838  -0.93418  -0.92230  -0.90174
 Alpha  occ. eigenvalues --   -0.88335  -0.87412  -0.86541  -0.84949  -0.83932
 Alpha  occ. eigenvalues --   -0.81806  -0.81384  -0.80463  -0.78992  -0.77732
 Alpha  occ. eigenvalues --   -0.77276  -0.76197  -0.74991  -0.73027  -0.71814
 Alpha  occ. eigenvalues --   -0.71483  -0.70532  -0.69896  -0.69555  -0.68829
 Alpha  occ. eigenvalues --   -0.68330  -0.67705  -0.67331  -0.66521  -0.65920
 Alpha  occ. eigenvalues --   -0.65119  -0.64184  -0.63205  -0.62881  -0.62107
 Alpha  occ. eigenvalues --   -0.61529  -0.61013  -0.60357  -0.59554  -0.58137
 Alpha  occ. eigenvalues --   -0.57928  -0.57142  -0.56995  -0.56849  -0.56547
 Alpha  occ. eigenvalues --   -0.55913  -0.55569  -0.54830  -0.54484  -0.54140
 Alpha  occ. eigenvalues --   -0.53533  -0.53337  -0.53178  -0.52924  -0.52915
 Alpha  occ. eigenvalues --   -0.52520  -0.52064  -0.51535  -0.51077  -0.50885
 Alpha  occ. eigenvalues --   -0.50786  -0.50658  -0.49965  -0.49588  -0.49419
 Alpha  occ. eigenvalues --   -0.48971  -0.48857  -0.48623  -0.48498  -0.48131
 Alpha  occ. eigenvalues --   -0.47947  -0.47607  -0.47254  -0.46931  -0.46814
 Alpha  occ. eigenvalues --   -0.46487  -0.46104  -0.45687  -0.44991  -0.44496
 Alpha  occ. eigenvalues --   -0.44368  -0.43852  -0.43626  -0.43556  -0.43321
 Alpha  occ. eigenvalues --   -0.43317  -0.42201  -0.41646  -0.41457  -0.39846
 Alpha  occ. eigenvalues --   -0.39762  -0.39600  -0.39148  -0.38979  -0.38554
 Alpha  occ. eigenvalues --   -0.37193  -0.36325  -0.35975  -0.35858  -0.35221
 Alpha  occ. eigenvalues --   -0.34898  -0.33796  -0.33253  -0.32659  -0.32361
 Alpha  occ. eigenvalues --   -0.30773  -0.28883
 Alpha virt. eigenvalues --   -0.12265  -0.09841  -0.09067  -0.07768  -0.07350
 Alpha virt. eigenvalues --   -0.06162  -0.05493  -0.04738  -0.02782  -0.02187
 Alpha virt. eigenvalues --   -0.01878  -0.01588  -0.00612  -0.00068   0.00203

 Mulliken charges:
               1
     1  N   -0.776737
     2  H    0.401140
     3  H    0.414555
     4  H    0.459273
     5  C   -0.123864
     6  H    0.220039
     7  C    0.638904
     8  C   -0.306336
     9  H    0.178520
    10  H    0.189355
    11  O   -0.536053
    12  C   -0.104378
    13  H    0.118047
    14  C   -0.447352
    15  H    0.165014
    16  H    0.156834
    17  H    0.163977
    18  C   -0.456548
    19  H    0.165738
    20  H    0.126507
    21  H    0.178570
    22  N   -0.613301
    23  H    0.388395
    24  C   -0.020434
    25  H    0.185942
    26  C    0.597054
    27  C   -0.394025
    28  H    0.196917
    29  H    0.175135
    30  O   -0.568087
    31  C    0.050230
    32  C    0.015610
    33  H    0.169684
    34  C    0.008675
    35  C    0.324829
    36  C   -0.235575
    37  H    0.174407
    38  N   -0.684773
    39  H    0.343258
    40  C   -0.156034
    41  H    0.144767
    42  C   -0.165304
    43  H    0.144201
    44  C   -0.144937
    45  H    0.137932
    46  N   -0.565595
    47  H    0.376800
    48  C   -0.135813
    49  H    0.195426
    50  C    0.639538
    51  C   -0.000189
    52  H    0.174628
    53  H    0.170904
    54  O   -0.519155
    55  O   -0.701615
    56  H    0.454572
    57  N   -0.578083
    58  H    0.334887
    59  C   -0.077315
    60  H    0.197141
    61  C    0.643043
    62  C   -0.472644
    63  H    0.180111
    64  H    0.161899
    65  H    0.181401
    66  O   -0.558698
    67  N   -0.614619
    68  H    0.356767
    69  C   -0.032399
    70  H    0.184256
    71  C    0.606307
    72  C   -0.267022
    73  H    0.158153
    74  H    0.162431
    75  O   -0.607218
    76  C   -0.285861
    77  H    0.145630
    78  H    0.147953
    79  C   -0.284050
    80  H    0.148773
    81  H    0.158258
    82  C   -0.160821
    83  H    0.149990
    84  H    0.186692
    85  N   -0.776645
    86  H    0.341106
    87  H    0.460075
    88  H    0.330614
    89  O   -0.509384
 Sum of Mulliken charges =   1.00000

 Dipole moment (field-independent basis, Debye):
    X=             -6.6894    Y=             -5.5562    Z=              3.9161  Tot=              9.5371
 Quadrupole moment (field-independent basis, Debye-Ang):
   XX=           -147.8844   YY=           -181.6669   ZZ=           -196.5919
   XY=            -41.8910   XZ=            -42.4383   YZ=             22.6107

 Normal termination of Gaussian 16 at Mon Jul  4 15:07:26 2022.
