 Gaussian 16, Revision C.01,
 Gaussian 16:  ES64L-G16RevC.01  3-Jul-2019

 ----------------------------------------------------------------------
 # B3LYP/6-31G* empiricaldispersion=gd3bj guess=read geom=check nosymm
 integral(ultrafinegrid)
 ----------------------------------------------------------------------

 ------------------------------------------------------
 Candidate Structure: Conf:288 Charge calc in gas phase
 ------------------------------------------------------
 Structure from the checkpoint file:  "conf-288.chk"
 Charge =  1 Multiplicity = 1

                          Input orientation:
 ---------------------------------------------------------------------
 Center     Atomic      Atomic             Coordinates (Angstroms)
 Number     Number       Type             X           Y           Z
 ---------------------------------------------------------------------
      1          7           0       -5.232921    1.759175    1.532337
      2          1           0       -5.173453    1.737919    0.491931
      3          1           0       -5.312068    0.761119    1.834667
      4          1           0       -6.032714    2.318800    1.836614
      5          6           0       -3.922630    2.210967    2.127308
      6          1           0       -3.475896    2.912725    1.421989
      7          6           0       -3.109410    0.896834    2.173761
      8          6           0       -4.156945    2.850249    3.501032
      9          1           0       -4.872776    3.676226    3.377432
     10          1           0       -4.626810    2.105457    4.156629
     11          8           0       -3.723148   -0.177445    2.135029
     12          6           0       -2.888535    3.404271    4.181459
     13          1           0       -2.193521    2.570415    4.339043
     14          6           0       -2.187267    4.471015    3.328783
     15          1           0       -2.864812    5.306572    3.112513
     16          1           0       -1.814426    4.086942    2.371474
     17          1           0       -1.321546    4.873064    3.862871
     18          6           0       -3.263683    3.969866    5.557037
     19          1           0       -3.952729    4.817743    5.459535
     20          1           0       -3.744871    3.212109    6.185062
     21          1           0       -2.371672    4.324451    6.082309
     22          7           0       -1.790398    1.037846    2.235754
     23          1           0       -1.353971    1.958679    2.234358
     24          6           0       -0.827456   -0.011082    1.945948
     25          1           0       -1.026467   -0.885601    2.571227
     26          6           0        0.531462    0.606493    2.302600
     27          6           0       -0.872641   -0.420566    0.430912
     28          1           0        0.079556   -0.894411    0.174265
     29          1           0       -1.659383   -1.170188    0.309899
     30          8           0        0.651137    1.824726    2.432754
     31          6           0       -1.144801    0.757675   -0.455852
     32          6           0       -0.264236    1.756032   -0.800891
     33          1           0        0.797648    1.816792   -0.612403
     34          6           0       -2.435233    1.157129   -0.963309
     35          6           0       -2.269166    2.431161   -1.586704
     36          6           0       -3.707112    0.560280   -0.982587
     37          1           0       -3.858360   -0.424673   -0.551918
     38          7           0       -0.938617    2.762170   -1.467534
     39          1           0       -0.499816    3.569583   -1.884191
     40          6           0       -4.590541    2.530010   -2.136042
     41          1           0       -5.434450    3.037500   -2.592891
     42          6           0       -3.336349    3.129848   -2.160759
     43          1           0       -3.190489    4.101315   -2.623765
     44          6           0       -4.774297    1.249456   -1.564135
     45          1           0       -5.747559    0.769147   -1.637830
     46          7           0        1.546284   -0.272287    2.455027
     47          1           0        1.424976   -1.219302    2.108084
     48          6           0        2.924052    0.169667    2.405136
     49          1           0        3.086617    0.956983    3.148027
     50          6           0        3.244085    0.688291    0.992700
     51          6           0        3.808058   -1.064710    2.702769
     52          1           0        3.564059   -1.433155    3.703928
     53          1           0        4.868507   -0.782619    2.693186
     54          8           0        2.460188    0.547533    0.056401
     55          8           0        3.531128   -2.098372    1.784274
     56          1           0        4.053060   -1.913561    0.973122
     57          7           0        4.485159    1.214308    0.816198
     58          1           0        5.138607    1.145193    1.585963
     59          6           0        5.067438    1.180238   -0.524730
     60          1           0        4.519518    1.884942   -1.157382
     61          6           0        4.898779   -0.253027   -1.074060
     62          6           0        6.546172    1.558146   -0.461360
     63          1           0        6.975641    1.574684   -1.466688
     64          1           0        7.098872    0.821647    0.131905
     65          1           0        6.673323    2.549642   -0.015790
     66          8           0        5.132320   -1.227681   -0.343682
     67          7           0        4.514791   -0.339662   -2.348566
     68          1           0        4.272739    0.492714   -2.882460
     69          6           0        4.150684   -1.567583   -3.039454
     70          1           0        5.017907   -2.236105   -3.074554
     71          6           0        3.794304   -1.129596   -4.473112
     72          6           0        2.942266   -2.299409   -2.377083
     73          1           0        2.412809   -1.543458   -1.788704
     74          1           0        2.247862   -2.627307   -3.159161
     75          8           0        3.615162   -2.107444   -5.341447
     76          6           0        3.303424   -3.497598   -1.479145
     77          1           0        4.253259   -3.293061   -0.977352
     78          1           0        2.551763   -3.562419   -0.682829
     79          6           0        3.372121   -4.875397   -2.154695
     80          1           0        2.413066   -5.106186   -2.642786
     81          1           0        3.489043   -5.623372   -1.361199
     82          6           0        4.507951   -5.103487   -3.159857
     83          1           0        5.416373   -4.588272   -2.827797
     84          1           0        4.746217   -6.175223   -3.198987
     85          7           0        4.174351   -4.602458   -4.515704
     86          1           0        4.937172   -4.826686   -5.156095
     87          1           0        3.365623   -5.117734   -4.866718
     88          1           0        3.824267   -3.018297   -4.933189
     89          8           0        3.655690    0.045768   -4.757423
 ---------------------------------------------------------------------

 SCF Done:  E(RB3LYP) =  -2042.71479451     A.U. after    1 cycles

 Alpha  occ. eigenvalues --  -19.24650 -19.22889 -19.21673 -19.21510 -19.21161
 Alpha  occ. eigenvalues --  -19.19771 -19.19054 -14.57179 -14.47406 -14.47184
 Alpha  occ. eigenvalues --  -14.44990 -14.44898 -14.43589 -14.42576 -10.41500
 Alpha  occ. eigenvalues --  -10.38397 -10.38224 -10.37676 -10.37420 -10.36761
 Alpha  occ. eigenvalues --  -10.33715 -10.32011 -10.31991 -10.31928 -10.31845
 Alpha  occ. eigenvalues --  -10.31673 -10.30781 -10.30306 -10.29880 -10.29292
 Alpha  occ. eigenvalues --  -10.28830 -10.28827 -10.28775 -10.28531 -10.28468
 Alpha  occ. eigenvalues --  -10.28172 -10.27430 -10.27139 -10.26697 -10.26624
 Alpha  occ. eigenvalues --  -10.25786 -10.25700 -10.24655  -1.17096  -1.14854
 Alpha  occ. eigenvalues --   -1.14068  -1.12986  -1.11542  -1.11186  -1.09285
 Alpha  occ. eigenvalues --   -1.07090  -1.06855  -1.04620  -1.01853  -1.01461
 Alpha  occ. eigenvalues --   -1.00328  -0.98111  -0.93877  -0.93399  -0.90116
 Alpha  occ. eigenvalues --   -0.87753  -0.87419  -0.86472  -0.85304  -0.83580
 Alpha  occ. eigenvalues --   -0.83046  -0.82030  -0.81158  -0.78921  -0.77822
 Alpha  occ. eigenvalues --   -0.77055  -0.76322  -0.74052  -0.72287  -0.71956
 Alpha  occ. eigenvalues --   -0.71737  -0.70868  -0.70439  -0.69922  -0.68721
 Alpha  occ. eigenvalues --   -0.68562  -0.67155  -0.66675  -0.66482  -0.65549
 Alpha  occ. eigenvalues --   -0.65036  -0.64726  -0.63977  -0.63115  -0.62474
 Alpha  occ. eigenvalues --   -0.61134  -0.60476  -0.59589  -0.58925  -0.58127
 Alpha  occ. eigenvalues --   -0.58053  -0.57913  -0.57657  -0.56905  -0.56277
 Alpha  occ. eigenvalues --   -0.55842  -0.55799  -0.55568  -0.54670  -0.54349
 Alpha  occ. eigenvalues --   -0.53785  -0.53638  -0.53389  -0.52922  -0.52746
 Alpha  occ. eigenvalues --   -0.52522  -0.52269  -0.51251  -0.51107  -0.50833
 Alpha  occ. eigenvalues --   -0.50684  -0.50461  -0.50066  -0.49515  -0.49295
 Alpha  occ. eigenvalues --   -0.49156  -0.48912  -0.48516  -0.48130  -0.47896
 Alpha  occ. eigenvalues --   -0.47416  -0.47140  -0.47034  -0.46852  -0.46564
 Alpha  occ. eigenvalues --   -0.46380  -0.45544  -0.45427  -0.44755  -0.44698
 Alpha  occ. eigenvalues --   -0.44430  -0.43901  -0.43513  -0.43353  -0.43296
 Alpha  occ. eigenvalues --   -0.43083  -0.42874  -0.42822  -0.40929  -0.40392
 Alpha  occ. eigenvalues --   -0.40173  -0.39766  -0.39117  -0.37519  -0.37224
 Alpha  occ. eigenvalues --   -0.36358  -0.36276  -0.35783  -0.35502  -0.35071
 Alpha  occ. eigenvalues --   -0.34666  -0.33918  -0.33804  -0.32780  -0.32707
 Alpha  occ. eigenvalues --   -0.32343  -0.29631
 Alpha virt. eigenvalues --   -0.11065  -0.10855  -0.08647  -0.07979  -0.07602
 Alpha virt. eigenvalues --   -0.07032  -0.05787  -0.04139  -0.03525  -0.02600
 Alpha virt. eigenvalues --   -0.02123  -0.01173  -0.00962  -0.00709  -0.00161

 Mulliken charges:
               1
     1  N   -0.760358
     2  H    0.408798
     3  H    0.415536
     4  H    0.398598
     5  C   -0.125034
     6  H    0.216529
     7  C    0.667257
     8  C   -0.278979
     9  H    0.155195
    10  H    0.170432
    11  O   -0.551240
    12  C   -0.100282
    13  H    0.159901
    14  C   -0.464466
    15  H    0.152732
    16  H    0.143900
    17  H    0.181767
    18  C   -0.449914
    19  H    0.153187
    20  H    0.157014
    21  H    0.170137
    22  N   -0.618140
    23  H    0.388446
    24  C   -0.051657
    25  H    0.192846
    26  C    0.648871
    27  C   -0.386145
    28  H    0.192512
    29  H    0.176852
    30  O   -0.549306
    31  C    0.040216
    32  C    0.022740
    33  H    0.214399
    34  C    0.073690
    35  C    0.314286
    36  C   -0.242866
    37  H    0.163144
    38  N   -0.686163
    39  H    0.345545
    40  C   -0.149578
    41  H    0.151657
    42  C   -0.163484
    43  H    0.152088
    44  C   -0.234506
    45  H    0.150961
    46  N   -0.595444
    47  H    0.355527
    48  C   -0.081544
    49  H    0.187786
    50  C    0.629501
    51  C   -0.070075
    52  H    0.173087
    53  H    0.144352
    54  O   -0.533896
    55  O   -0.663045
    56  H    0.466618
    57  N   -0.583911
    58  H    0.339138
    59  C   -0.029652
    60  H    0.169678
    61  C    0.652220
    62  C   -0.487043
    63  H    0.182900
    64  H    0.175014
    65  H    0.175216
    66  O   -0.585785
    67  N   -0.614401
    68  H    0.364262
    69  C   -0.048365
    70  H    0.176760
    71  C    0.595051
    72  C   -0.297431
    73  H    0.178516
    74  H    0.152700
    75  O   -0.612753
    76  C   -0.284480
    77  H    0.177476
    78  H    0.143801
    79  C   -0.268638
    80  H    0.133431
    81  H    0.156401
    82  C   -0.144129
    83  H    0.163141
    84  H    0.151502
    85  N   -0.780805
    86  H    0.339053
    87  H    0.334059
    88  H    0.478349
    89  O   -0.481259
 Sum of Mulliken charges =   1.00000

 Dipole moment (field-independent basis, Debye):
    X=             -6.2761    Y=              4.6217    Z=              4.5930  Tot=              9.0468
 Quadrupole moment (field-independent basis, Debye-Ang):
   XX=           -119.0837   YY=           -183.6674   ZZ=           -229.3796
   XY=            -55.6025   XZ=            -29.3543   YZ=             41.1377

 Normal termination of Gaussian 16 at Mon Jul  4 15:05:29 2022.
