 Gaussian 16, Revision C.01,
 Gaussian 16:  ES64L-G16RevC.01  3-Jul-2019

 ----------------------------------------------------------------------
 # B3LYP/6-31G* empiricaldispersion=gd3bj guess=read geom=check nosymm
 integral(ultrafinegrid)
 ----------------------------------------------------------------------

 ------------------------------------------------------
 Candidate Structure: Conf:950 Charge calc in gas phase
 ------------------------------------------------------
 Structure from the checkpoint file:  "conf-950.chk"
 Charge =  1 Multiplicity = 1

                          Input orientation:
 ---------------------------------------------------------------------
 Center     Atomic      Atomic             Coordinates (Angstroms)
 Number     Number       Type             X           Y           Z
 ---------------------------------------------------------------------
      1          7           0       -5.414716    0.443972    2.172289
      2          1           0       -5.942975    1.314427    2.065375
      3          1           0       -5.303615   -0.010243    1.214052
      4          1           0       -5.914816   -0.168530    2.822176
      5          6           0       -3.965720    0.664887    2.563855
      6          1           0       -3.870738    1.670661    2.974879
      7          6           0       -3.238361    0.520169    1.204698
      8          6           0       -3.548761   -0.406590    3.585132
      9          1           0       -4.231855   -0.334032    4.444019
     10          1           0       -3.699091   -1.392960    3.126244
     11          8           0       -3.863631   -0.034036    0.282480
     12          6           0       -2.101247   -0.303283    4.109724
     13          1           0       -1.411318   -0.432827    3.268437
     14          6           0       -1.814089    1.052803    4.767067
     15          1           0       -2.495509    1.235641    5.607371
     16          1           0       -1.902531    1.898049    4.073286
     17          1           0       -0.791182    1.074087    5.152385
     18          6           0       -1.850237   -1.450781    5.096741
     19          1           0       -2.500821   -1.366336    5.975785
     20          1           0       -2.029251   -2.426849    4.632618
     21          1           0       -0.813600   -1.431126    5.445558
     22          7           0       -1.999547    0.975766    1.142036
     23          1           0       -1.498453    1.318705    1.966512
     24          6           0       -1.087741    0.717013    0.032783
     25          1           0       -1.258380   -0.300737   -0.331334
     26          6           0        0.310865    0.813143    0.674945
     27          6           0       -1.300248    1.706480   -1.145513
     28          1           0       -2.383415    1.802144   -1.286148
     29          1           0       -0.921429    2.693686   -0.859244
     30          8           0        0.420774    1.154554    1.862790
     31          6           0       -0.660492    1.223723   -2.408194
     32          6           0        0.451254    1.731880   -3.038406
     33          1           0        1.079923    2.565459   -2.760952
     34          6           0       -1.086587    0.081135   -3.181503
     35          6           0       -0.182433   -0.040817   -4.273212
     36          6           0       -2.143009   -0.836953   -3.058536
     37          1           0       -2.852131   -0.758012   -2.238306
     38          7           0        0.728577    0.992531   -4.166026
     39          1           0        1.579353    1.073417   -4.701475
     40          6           0       -1.365736   -1.940215   -5.088365
     41          1           0       -1.501209   -2.727286   -5.824017
     42          6           0       -0.310923   -1.045273   -5.235508
     43          1           0        0.378723   -1.118844   -6.070969
     44          6           0       -2.269526   -1.840482   -4.011280
     45          1           0       -3.082521   -2.556218   -3.934321
     46          7           0        1.338351    0.521041   -0.123117
     47          1           0        1.195212    0.279759   -1.100745
     48          6           0        2.720271    0.537979    0.315187
     49          1           0        2.908126    1.443608    0.905026
     50          6           0        3.568350    0.524248   -0.958614
     51          6           0        3.045546   -0.703795    1.190299
     52          1           0        2.339175   -0.700663    2.025741
     53          1           0        4.054842   -0.591976    1.614570
     54          8           0        3.058560    0.356865   -2.065024
     55          8           0        2.896082   -1.910021    0.487441
     56          1           0        3.748643   -2.119505    0.049103
     57          7           0        4.915109    0.629024   -0.790090
     58          1           0        5.265658    0.554114    0.157154
     59          6           0        5.778262    0.032813   -1.817237
     60          1           0        5.597323    0.562057   -2.756285
     61          6           0        5.357396   -1.443790   -1.937521
     62          6           0        7.242170    0.149849   -1.403981
     63          1           0        7.888887   -0.254390   -2.187731
     64          1           0        7.421875   -0.424221   -0.488916
     65          1           0        7.512720    1.196474   -1.235407
     66          8           0        5.280468   -2.140263   -0.914586
     67          7           0        5.069899   -1.894192   -3.163302
     68          1           0        5.025615   -1.261083   -3.954312
     69          6           0        4.491012   -3.206504   -3.399500
     70          1           0        5.030470   -3.952620   -2.814015
     71          6           0        4.573740   -3.502600   -4.882959
     72          6           0        2.976785   -3.222450   -3.021581
     73          1           0        2.907162   -2.950604   -1.965861
     74          1           0        2.496446   -2.406660   -3.575813
     75          8           0        4.582184   -4.803368   -5.136597
     76          6           0        2.257540   -4.569619   -3.283309
     77          1           0        2.989077   -5.341649   -3.534153
     78          1           0        1.779994   -4.896391   -2.352827
     79          6           0        1.148549   -4.526340   -4.354341
     80          1           0        0.373785   -3.824365   -4.022908
     81          1           0        0.663760   -5.513149   -4.391696
     82          6           0        1.505513   -4.109339   -5.787082
     83          1           0        0.562623   -3.969552   -6.334272
     84          1           0        2.023720   -3.146716   -5.794935
     85          7           0        2.379377   -5.074752   -6.502541
     86          1           0        2.418621   -4.830005   -7.490999
     87          1           0        3.894952   -4.984225   -5.886266
     88          1           0        1.982429   -6.012990   -6.449530
     89          8           0        4.484338   -2.612057   -5.715162
 ---------------------------------------------------------------------

 SCF Done:  E(RB3LYP) =  -2042.69820337     A.U. after    2 cycles

 Alpha  occ. eigenvalues --  -19.26853 -19.21632 -19.21498 -19.21036 -19.19898
 Alpha  occ. eigenvalues --  -19.18922 -19.18886 -14.60090 -14.48981 -14.44951
 Alpha  occ. eigenvalues --  -14.44764 -14.44446 -14.43277 -14.41356 -10.43332
 Alpha  occ. eigenvalues --  -10.40579 -10.38483 -10.37615 -10.36671 -10.36002
 Alpha  occ. eigenvalues --  -10.33884 -10.33373 -10.31667 -10.31305 -10.30882
 Alpha  occ. eigenvalues --  -10.30697 -10.29476 -10.29270 -10.28956 -10.28834
 Alpha  occ. eigenvalues --  -10.28092 -10.28071 -10.27279 -10.25902 -10.25859
 Alpha  occ. eigenvalues --  -10.25854 -10.25612 -10.25515 -10.25385 -10.25008
 Alpha  occ. eigenvalues --  -10.24721 -10.24609 -10.23871  -1.19243  -1.14072
 Alpha  occ. eigenvalues --   -1.14037  -1.13587  -1.12904  -1.10674  -1.07793
 Alpha  occ. eigenvalues --   -1.05922  -1.05665  -1.05038  -1.01671  -1.01030
 Alpha  occ. eigenvalues --   -0.99718  -0.96799  -0.94838  -0.91033  -0.90092
 Alpha  occ. eigenvalues --   -0.88136  -0.86784  -0.85787  -0.84595  -0.82603
 Alpha  occ. eigenvalues --   -0.81151  -0.80637  -0.80288  -0.79273  -0.78485
 Alpha  occ. eigenvalues --   -0.76251  -0.75922  -0.74003  -0.73742  -0.73095
 Alpha  occ. eigenvalues --   -0.72415  -0.70572  -0.69703  -0.69252  -0.68775
 Alpha  occ. eigenvalues --   -0.67581  -0.66551  -0.66424  -0.65894  -0.65398
 Alpha  occ. eigenvalues --   -0.64849  -0.63794  -0.63163  -0.62958  -0.61928
 Alpha  occ. eigenvalues --   -0.60816  -0.60047  -0.59601  -0.58425  -0.58004
 Alpha  occ. eigenvalues --   -0.57407  -0.56878  -0.56507  -0.56247  -0.55926
 Alpha  occ. eigenvalues --   -0.55463  -0.55023  -0.54860  -0.54374  -0.54024
 Alpha  occ. eigenvalues --   -0.53796  -0.53475  -0.52761  -0.52479  -0.51997
 Alpha  occ. eigenvalues --   -0.51944  -0.51519  -0.50977  -0.50737  -0.50377
 Alpha  occ. eigenvalues --   -0.50044  -0.49877  -0.49508  -0.49113  -0.48955
 Alpha  occ. eigenvalues --   -0.48767  -0.48609  -0.47792  -0.47751  -0.47440
 Alpha  occ. eigenvalues --   -0.47299  -0.47192  -0.46345  -0.45956  -0.45557
 Alpha  occ. eigenvalues --   -0.45221  -0.44857  -0.44600  -0.44489  -0.44217
 Alpha  occ. eigenvalues --   -0.44161  -0.43918  -0.43836  -0.42534  -0.42360
 Alpha  occ. eigenvalues --   -0.41572  -0.41462  -0.40684  -0.40320  -0.39824
 Alpha  occ. eigenvalues --   -0.39382  -0.39117  -0.39038  -0.38770  -0.36112
 Alpha  occ. eigenvalues --   -0.35904  -0.35543  -0.35167  -0.34718  -0.34303
 Alpha  occ. eigenvalues --   -0.33440  -0.33375  -0.32501  -0.32202  -0.31509
 Alpha  occ. eigenvalues --   -0.29264  -0.27603
 Alpha virt. eigenvalues --   -0.12272  -0.11110  -0.08343  -0.07609  -0.06922
 Alpha virt. eigenvalues --   -0.06438  -0.05510  -0.04701  -0.04623  -0.04455
 Alpha virt. eigenvalues --   -0.01959  -0.01606  -0.00606  -0.00289   0.00098

 Mulliken charges:
               1
     1  N   -0.756575
     2  H    0.415951
     3  H    0.432732
     4  H    0.412678
     5  C   -0.119063
     6  H    0.215158
     7  C    0.648650
     8  C   -0.286864
     9  H    0.162116
    10  H    0.173676
    11  O   -0.546722
    12  C   -0.105922
    13  H    0.165982
    14  C   -0.459912
    15  H    0.153272
    16  H    0.137135
    17  H    0.190552
    18  C   -0.451687
    19  H    0.153707
    20  H    0.158193
    21  H    0.176435
    22  N   -0.612483
    23  H    0.393500
    24  C   -0.071860
    25  H    0.209468
    26  C    0.629448
    27  C   -0.348261
    28  H    0.173993
    29  H    0.161245
    30  O   -0.566485
    31  C    0.012894
    32  C    0.023605
    33  H    0.163094
    34  C    0.087058
    35  C    0.312552
    36  C   -0.223893
    37  H    0.141668
    38  N   -0.671151
    39  H    0.344132
    40  C   -0.156796
    41  H    0.135338
    42  C   -0.162740
    43  H    0.140983
    44  C   -0.141710
    45  H    0.130046
    46  N   -0.610773
    47  H    0.394020
    48  C   -0.062269
    49  H    0.180962
    50  C    0.607957
    51  C   -0.051864
    52  H    0.171061
    53  H    0.129876
    54  O   -0.536343
    55  O   -0.650120
    56  H    0.459714
    57  N   -0.585497
    58  H    0.339822
    59  C   -0.039159
    60  H    0.167784
    61  C    0.643645
    62  C   -0.481014
    63  H    0.180980
    64  H    0.176791
    65  H    0.173227
    66  O   -0.585659
    67  N   -0.586105
    68  H    0.352488
    69  C   -0.028592
    70  H    0.192036
    71  C    0.590639
    72  C   -0.295879
    73  H    0.177120
    74  H    0.152676
    75  O   -0.601717
    76  C   -0.281288
    77  H    0.172758
    78  H    0.146598
    79  C   -0.286457
    80  H    0.164054
    81  H    0.131324
    82  C   -0.156225
    83  H    0.139047
    84  H    0.177327
    85  N   -0.775555
    86  H    0.338366
    87  H    0.457865
    88  H    0.328694
    89  O   -0.505451
 Sum of Mulliken charges =   1.00000

 Dipole moment (field-independent basis, Debye):
    X=            -12.4874    Y=              1.2538    Z=              3.9547  Tot=             13.1586
 Quadrupole moment (field-independent basis, Debye-Ang):
   XX=           -134.0507   YY=           -226.9425   ZZ=           -179.5224
   XY=              5.0566   XZ=            -56.3971   YZ=             29.1221

 Normal termination of Gaussian 16 at Mon Jul  4 15:08:50 2022.
