 Gaussian 16, Revision C.01,
 Gaussian 16:  ES64L-G16RevC.01  3-Jul-2019

 ----------------------------------------------------------------------
 # B3LYP/6-31G* empiricaldispersion=gd3bj guess=read geom=check nosymm
 integral(ultrafinegrid)
 ----------------------------------------------------------------------

 ------------------------------------------------------
 Candidate Structure: Conf:459 Charge calc in gas phase
 ------------------------------------------------------
 Structure from the checkpoint file:  "conf-459.chk"
 Charge =  1 Multiplicity = 1

                          Input orientation:
 ---------------------------------------------------------------------
 Center     Atomic      Atomic             Coordinates (Angstroms)
 Number     Number       Type             X           Y           Z
 ---------------------------------------------------------------------
      1          7           0       -1.091716    1.516820    5.260272
      2          1           0       -1.661984    1.762299    6.069839
      3          1           0       -1.363183    0.568604    4.923028
      4          1           0       -0.040649    1.470018    5.548151
      5          6           0       -1.328185    2.423599    4.082620
      6          1           0       -2.085788    3.158689    4.365700
      7          6           0       -1.875765    1.490656    2.981093
      8          6           0       -0.003745    3.115671    3.698909
      9          1           0        0.450644    3.459739    4.634007
     10          1           0        0.662628    2.357121    3.275107
     11          8           0       -1.968728    0.284659    3.194238
     12          6           0       -0.063363    4.319866    2.740310
     13          1           0       -0.277459    3.959763    1.728383
     14          6           0       -1.099174    5.372030    3.155078
     15          1           0       -0.931995    5.703760    4.188317
     16          1           0       -2.130747    5.003517    3.091443
     17          1           0       -1.036671    6.253852    2.509226
     18          6           0        1.341453    4.935763    2.674017
     19          1           0        1.633391    5.330135    3.657485
     20          1           0        2.080656    4.186398    2.370231
     21          1           0        1.376516    5.760168    1.954689
     22          7           0       -2.207030    2.079812    1.808371
     23          1           0       -1.927409    3.046227    1.701731
     24          6           0       -2.120372    1.307251    0.566116
     25          1           0       -2.626831    0.355193    0.732838
     26          6           0       -0.617259    1.096307    0.283068
     27          6           0       -2.809740    2.077600   -0.573914
     28          1           0       -3.861952    2.210626   -0.300271
     29          1           0       -2.362496    3.078500   -0.631638
     30          8           0        0.161902    2.044280    0.385999
     31          6           0       -2.675935    1.395362   -1.900506
     32          6           0       -3.520991    0.454659   -2.439821
     33          1           0       -4.445682    0.051767   -2.049586
     34          6           0       -1.607710    1.581949   -2.851055
     35          6           0       -1.871640    0.721166   -3.952464
     36          6           0       -0.462240    2.398132   -2.882632
     37          1           0       -0.222788    3.044428   -2.044165
     38          7           0       -3.037796    0.040569   -3.664970
     39          1           0       -3.503032   -0.605155   -4.284152
     40          6           0        0.086497    1.481356   -5.077979
     41          1           0        0.760902    1.455041   -5.927725
     42          6           0       -1.033461    0.659514   -5.070040
     43          1           0       -1.246753   -0.006625   -5.900661
     44          6           0        0.370166    2.342289   -3.995870
     45          1           0        1.259978    2.963115   -4.032307
     46          7           0       -0.255947   -0.154524   -0.079805
     47          1           0       -0.967200   -0.867428   -0.004597
     48          6           0        1.122140   -0.618266   -0.101747
     49          1           0        1.084917   -1.651432   -0.464291
     50          6           0        1.694689   -0.670128    1.334720
     51          6           0        1.995100    0.143930   -1.126867
     52          1           0        3.036352   -0.178011   -1.015433
     53          1           0        1.950790    1.215411   -0.915250
     54          8           0        1.036797   -0.336422    2.320795
     55          8           0        1.606608   -0.171872   -2.441622
     56          1           0        0.921786    0.459721   -2.716905
     57          7           0        2.946456   -1.184841    1.420694
     58          1           0        3.411748   -1.471891    0.570209
     59          6           0        3.543574   -1.659437    2.676887
     60          1           0        2.721650   -2.064752    3.279788
     61          6           0        4.185274   -0.510229    3.488892
     62          6           0        4.566798   -2.746634    2.376727
     63          1           0        4.988140   -3.131608    3.307325
     64          1           0        5.397938   -2.343855    1.789979
     65          1           0        4.098313   -3.573077    1.832991
     66          8           0        5.392036   -0.450150    3.706412
     67          7           0        3.293007    0.392017    3.962787
     68          1           0        2.301512    0.205173    3.836731
     69          6           0        3.686306    1.392656    4.937795
     70          1           0        4.266024    0.891107    5.728572
     71          6           0        2.396444    1.937998    5.587204
     72          6           0        4.574583    2.488278    4.327883
     73          1           0        5.201996    2.028932    3.562211
     74          1           0        3.929694    3.215845    3.821365
     75          8           0        2.333015    3.141392    5.992290
     76          6           0        5.472818    3.145119    5.389181
     77          1           0        4.976349    3.110140    6.367796
     78          1           0        6.380042    2.543692    5.507264
     79          6           0        5.876719    4.593515    5.081886
     80          1           0        6.478440    4.640871    4.166880
     81          1           0        6.512819    4.977748    5.889776
     82          6           0        4.685989    5.532702    4.887315
     83          1           0        4.992698    6.581514    4.905783
     84          1           0        4.164782    5.344187    3.947253
     85          7           0        3.662507    5.318476    5.969464
     86          1           0        2.902660    5.999585    5.899807
     87          1           0        3.190019    4.299557    5.922974
     88          1           0        4.081575    5.426086    6.897409
     89          8           0        1.440246    1.125749    5.657450
 ---------------------------------------------------------------------

 SCF Done:  E(RB3LYP) =  -2042.71535434     A.U. after    1 cycles

 Alpha  occ. eigenvalues --  -19.23590 -19.21659 -19.20693 -19.20554 -19.20524
 Alpha  occ. eigenvalues --  -19.20252 -19.18057 -14.54327 -14.52036 -14.46444
 Alpha  occ. eigenvalues --  -14.45321 -14.45058 -14.44742 -14.41689 -10.40117
 Alpha  occ. eigenvalues --  -10.38709 -10.37552 -10.37433 -10.36077 -10.35795
 Alpha  occ. eigenvalues --  -10.34922 -10.32677 -10.31714 -10.30905 -10.30693
 Alpha  occ. eigenvalues --  -10.30644 -10.30070 -10.29532 -10.29063 -10.28902
 Alpha  occ. eigenvalues --  -10.28831 -10.28327 -10.28117 -10.27436 -10.27401
 Alpha  occ. eigenvalues --  -10.26805 -10.25922 -10.25852 -10.25691 -10.25605
 Alpha  occ. eigenvalues --  -10.25285 -10.25128 -10.25061  -1.15768  -1.14554
 Alpha  occ. eigenvalues --   -1.12870  -1.11814  -1.09849  -1.09559  -1.08171
 Alpha  occ. eigenvalues --   -1.07495  -1.05286  -1.05181  -1.03444  -1.01306
 Alpha  occ. eigenvalues --   -1.01017  -0.98765  -0.91788  -0.91062  -0.90851
 Alpha  occ. eigenvalues --   -0.89212  -0.86606  -0.85823  -0.85045  -0.83524
 Alpha  occ. eigenvalues --   -0.82028  -0.80597  -0.79961  -0.79063  -0.78478
 Alpha  occ. eigenvalues --   -0.76398  -0.74791  -0.74563  -0.72601  -0.71666
 Alpha  occ. eigenvalues --   -0.69579  -0.69275  -0.68986  -0.68861  -0.68412
 Alpha  occ. eigenvalues --   -0.68180  -0.67981  -0.67530  -0.66411  -0.65710
 Alpha  occ. eigenvalues --   -0.64705  -0.63995  -0.63688  -0.62872  -0.62398
 Alpha  occ. eigenvalues --   -0.60959  -0.60693  -0.59807  -0.59500  -0.58806
 Alpha  occ. eigenvalues --   -0.58255  -0.57605  -0.57048  -0.56607  -0.56354
 Alpha  occ. eigenvalues --   -0.55832  -0.55535  -0.54875  -0.54500  -0.54381
 Alpha  occ. eigenvalues --   -0.54125  -0.53796  -0.53052  -0.52880  -0.52604
 Alpha  occ. eigenvalues --   -0.51852  -0.51277  -0.50988  -0.50528  -0.50289
 Alpha  occ. eigenvalues --   -0.50022  -0.49826  -0.49769  -0.49355  -0.49109
 Alpha  occ. eigenvalues --   -0.48693  -0.48594  -0.48135  -0.48044  -0.48010
 Alpha  occ. eigenvalues --   -0.47797  -0.47671  -0.47349  -0.46452  -0.46073
 Alpha  occ. eigenvalues --   -0.45916  -0.45495  -0.44942  -0.44927  -0.44581
 Alpha  occ. eigenvalues --   -0.44519  -0.43239  -0.43109  -0.43034  -0.42883
 Alpha  occ. eigenvalues --   -0.42598  -0.42375  -0.42276  -0.41688  -0.40965
 Alpha  occ. eigenvalues --   -0.40510  -0.39337  -0.37970  -0.37214  -0.36830
 Alpha  occ. eigenvalues --   -0.36111  -0.35999  -0.35422  -0.35206  -0.35005
 Alpha  occ. eigenvalues --   -0.34549  -0.33469  -0.32496  -0.31871  -0.30818
 Alpha  occ. eigenvalues --   -0.29407  -0.27665
 Alpha virt. eigenvalues --   -0.09623  -0.08357  -0.08212  -0.07079  -0.06585
 Alpha virt. eigenvalues --   -0.06239  -0.04750  -0.04634  -0.04540  -0.02898
 Alpha virt. eigenvalues --   -0.02453  -0.01566  -0.01315  -0.01069   0.00170

 Mulliken charges:
               1
     1  N   -0.793026
     2  H    0.384136
     3  H    0.416060
     4  H    0.454483
     5  C   -0.105194
     6  H    0.192338
     7  C    0.642737
     8  C   -0.313649
     9  H    0.177446
    10  H    0.197066
    11  O   -0.513837
    12  C   -0.110809
    13  H    0.174967
    14  C   -0.464563
    15  H    0.141851
    16  H    0.142724
    17  H    0.169005
    18  C   -0.455408
    19  H    0.103049
    20  H    0.173199
    21  H    0.162734
    22  N   -0.589482
    23  H    0.353669
    24  C   -0.067631
    25  H    0.177025
    26  C    0.660928
    27  C   -0.371234
    28  H    0.172803
    29  H    0.160466
    30  O   -0.553309
    31  C    0.053061
    32  C   -0.001861
    33  H    0.162790
    34  C    0.087623
    35  C    0.315186
    36  C   -0.251895
    37  H    0.145615
    38  N   -0.686259
    39  H    0.340686
    40  C   -0.141562
    41  H    0.146732
    42  C   -0.155102
    43  H    0.143138
    44  C   -0.169246
    45  H    0.139805
    46  N   -0.576469
    47  H    0.349069
    48  C   -0.090968
    49  H    0.182073
    50  C    0.639182
    51  C   -0.051894
    52  H    0.134786
    53  H    0.179053
    54  O   -0.543586
    55  O   -0.630472
    56  H    0.432994
    57  N   -0.604364
    58  H    0.345579
    59  C   -0.061835
    60  H    0.180073
    61  C    0.627435
    62  C   -0.471533
    63  H    0.186449
    64  H    0.174167
    65  H    0.152802
    66  O   -0.528743
    67  N   -0.642249
    68  H    0.386355
    69  C   -0.021225
    70  H    0.183039
    71  C    0.637183
    72  C   -0.276067
    73  H    0.192732
    74  H    0.123926
    75  O   -0.636432
    76  C   -0.300587
    77  H    0.134304
    78  H    0.187543
    79  C   -0.287946
    80  H    0.184686
    81  H    0.162128
    82  C   -0.187739
    83  H    0.194642
    84  H    0.208254
    85  N   -0.779786
    86  H    0.389732
    87  H    0.477800
    88  H    0.388604
    89  O   -0.589952
 Sum of Mulliken charges =   1.00000

 Dipole moment (field-independent basis, Debye):
    X=              2.5590    Y=             15.9907    Z=             15.8201  Tot=             22.6391
 Quadrupole moment (field-independent basis, Debye-Ang):
   XX=           -192.1875   YY=           -146.7289   ZZ=           -127.1485
   XY=             50.0601   XZ=             45.5174   YZ=            102.9255

 Normal termination of Gaussian 16 at Mon Jul  4 15:06:26 2022.
